                               Psi4 1.9 release

  ==> Input File <==

--------------------------------------------------------------------------
MEMORY 60 GB

molecule dimer {
1 1
Na     0.000000     0.000000     0.000000
--
0 1
O      2.278346     0.669364     0.093229
H      2.155569     1.631124     0.248455
H      2.996795     0.615513    -0.539242
O     -0.417855     2.173232    -1.030201
H     -1.263162     1.963044    -0.589085
H     -0.580901     2.219109    -2.006056
O      0.265411     0.942068     2.195530
H      0.357741     1.810493     2.531820
H     -0.347040     0.368824     2.685547
O     -2.262886     0.226621     0.167464
H     -2.857538    -0.347387     0.685673
H     -2.901645     0.732549    -0.387800
O      0.439362    -2.429410     0.826166
H      0.485462    -2.565000     1.758293
H     -0.253748    -2.976041     0.529420
O     -0.408571    -1.310127    -2.006589
H     -1.342634    -1.270196    -2.124955
H     -0.009102    -1.170847    -2.843478

units ang
no_reorient
no_com
symmetry c1
}

set {
basis        aug-cc-pVTZ
scf_type     df
}

energy("mp2", bsse_type="cp")
--------------------------------------------------------------------------

                               Psi4 1.9 release
    Molecular point group: c1
  Charge       = 0
  Multiplicity = 1
  Basis Set: AUG-CC-PVTZ
    Blend: AUG-CC-PVTZ
  Basis Set: (AUG-CC-PVTZ AUX)
    Blend: AUG-CC-PVTZ-JKFIT + DEF2-UNIVERSAL-JKFIT
  @DF-RHF Final Energy:  -456.32547822356923
    Total Energy =                       -456.3254782235692346
 Dipole X            :          6.1568911           -8.3332141           -2.1763230
 Dipole Y            :         -5.8233816            6.0190971            0.1957155
 Dipole Z            :         -3.8973303            3.6157717           -0.2815585
 Magnitude           :                                                    2.2031708
  Basis Set: (AUG-CC-PVTZ AUX)
    Blend: AUG-CC-PVTZ-RI + DEF2-QZVPP-RI
	 Reference Energy          =    -456.3254782235692346 [Eh]
	 Singles Energy            =      -0.0000000000000000 [Eh]
	 Same-Spin Energy          =      -0.4160597808460833 [Eh]
	 Opposite-Spin Energy      =      -1.3031512253156514 [Eh]
	 Correlation Energy        =      -1.7192110061617347 [Eh]
	 Total Energy              =    -458.0446892297309773 [Eh]
	 SCS Total Energy          =    -458.0279462875633953 [Eh]
                               Psi4 1.9 release
    Molecular point group: c1
  Multiplicity = 1
  Basis Set: AUG-CC-PVTZ
    Blend: AUG-CC-PVTZ
  Basis Set: (AUG-CC-PVTZ AUX)
    Blend: AUG-CC-PVTZ-JKFIT + DEF2-UNIVERSAL-JKFIT
  @DF-RHF Final Energy:  -161.67609655216543
    Total Energy =                       -161.6760965521654043
  Basis Set: (AUG-CC-PVTZ AUX)
	 Singles Energy            =      -0.0000000000000000 [Eh]
	 Same-Spin Energy          =      -0.0073335238316102 [Eh]
	 Opposite-Spin Energy      =      -0.0219825819637926 [Eh]
	 Correlation Energy        =      -0.0293161057954028 [Eh]
	 Total Energy              =    -161.7054126579608351 [Eh]
	 SCS Total Energy          =    -161.7049201584658533 [Eh]
                               Psi4 1.9 release
    Molecular point group: c1

    Geometry (in Bohr), charge = 1, multiplicity = 1:

       Center              X                  Y                   Z               Mass
    ------------   -----------------  -----------------  -----------------  -----------------
         NA           0.000000000000     0.000000000000     0.000000000000    22.989769282000
         O            4.305449959032     1.264914638241     0.176177276950    15.994914619570
         H            4.073435054527     3.082377636661     0.469511904501     1.007825032230
         H            5.663121804141     1.163150996659    -1.019019695344     1.007825032230
         O           -0.789631510153     4.106813287081    -1.946797744173    15.994914619570
         H           -2.387030232086     3.709615532223    -1.113209314615     1.007825032230
         H           -1.097743796005     4.193508252539    -3.790896432331     1.007825032230
         O            0.501554100684     1.780250511558     4.148950400226    15.994914619570
         H            0.676032513847     3.421335922059     4.784446398957     1.007825032230
         H           -0.655810554579     0.696976348496     5.074948327045     1.007825032230
         O           -4.276234793133     0.428251624277     0.316461095874    15.994914619570
         H           -5.399964213089    -0.656466289544     1.295734181621     1.007825032230
         H           -5.483314363304     1.384316983478    -0.732835791453     1.007825032230
         O            0.830273849933    -4.590919546449     1.561227474165    15.994914619570
         H            0.917390224317    -4.847147511799     3.322692218310     1.007825032230
         H           -0.479514224883    -5.623902428134     1.000458805340     1.007825032230
         O           -0.772087292804    -2.475781219568    -3.791903656356    15.994914619570
         H           -2.537210546728    -2.400322565652    -4.015582978922     1.007825032230
         H           -0.017200287194    -2.212580164814    -5.373394663765     1.007825032230

  Charge       = 1
  Multiplicity = 1
  Basis Set: AUG-CC-PVTZ
    Blend: AUG-CC-PVTZ
  Basis Set: (AUG-CC-PVTZ AUX)
    Blend: AUG-CC-PVTZ-JKFIT + DEF2-UNIVERSAL-JKFIT

    Orbital Energies [Eh]
    ---------------------

    Doubly Occupied:

       1A    -40.535336     2A    -20.757906     3A    -20.717322
       4A    -20.711047     5A    -20.704189     6A    -20.694982
       7A    -20.689592     8A     -2.858285     9A     -1.585025
      10A     -1.583183    11A     -1.582841    12A     -1.534749
      13A     -1.511113    14A     -1.496248    15A     -1.494391
      16A     -1.489699    17A     -1.470437    18A     -0.898740
      19A     -0.885987    20A     -0.883990    21A     -0.862151
      22A     -0.858707    23A     -0.834996    24A     -0.790040
      25A     -0.742852    26A     -0.727318    27A     -0.725884
      28A     -0.719570    29A     -0.705413    30A     -0.703310
      31A     -0.669695    32A     -0.657727    33A     -0.654848
      34A     -0.647327    35A     -0.634371

  @DF-RHF Final Energy:  -618.15221862541239

   => Energetics <=

    Nuclear Repulsion Energy =            407.4110845413730999
    One-Electron Energy =               -1661.0880569750374889
    Two-Electron Energy =                 635.5247538082519441
    Total Energy =                       -618.1522186254123881
 Dipole X            :          6.0597253           -8.3332141           -2.2734888
 Dipole Y            :         -5.7326292            6.0190971            0.2864679
 Dipole Z            :         -3.9198164            3.6157717           -0.3040446
 Magnitude           :                                                    2.3115489
  Basis Set: (AUG-CC-PVTZ AUX)
    Blend: AUG-CC-PVTZ-RI + DEF2-QZVPP-RI
	 Reference Energy          =    -618.1522186254123881 [Eh]
	 Singles Energy            =      -0.0000000000000000 [Eh]
	 Same-Spin Energy          =      -0.4222003620147223 [Eh]
	 Opposite-Spin Energy      =      -1.3185791844523105 [Eh]
	 Correlation Energy        =      -1.7407795464670328 [Eh]
	 Total Energy              =    -619.8929981718794124 [Eh]

	 ================> DF-SCS-MP2 Energies <==================
	-----------------------------------------------------------
	 SCS Same-Spin Scale       =       0.3333333333333333 [-]
	 SCS Opposite-Spin Scale   =       1.2000000000000000 [-]
	 SCS Same-Spin Energy      =      -0.1407334540049074 [Eh]
	 SCS Opposite-Spin Energy  =      -1.5822950213427724 [Eh]
	 SCS Correlation Energy    =      -1.7230284753476799 [Eh]
	 SCS Total Energy          =    -619.8752471007600207 [Eh]
	-----------------------------------------------------------

*** Psi4 exiting successfully. Buy a developer a beer!
