                               Psi4 1.8.2 release

  ==> Input File <==

--------------------------------------------------------------------------
MEMORY 60 GB

molecule dimer {
0 1
Gh(Na)     0.000000     0.000000     0.000000
Gh(O)      0.954819     1.660987    -1.074380
Gh(H)      0.801764     2.636974    -1.072418
Gh(H)      1.647407     1.475023    -1.768699
Gh(O)      1.731358    -1.499028    -0.404719
Gh(H)      1.341958    -2.259563     0.035339
Gh(H)      1.778928    -1.780792    -1.299789
Gh(O)      0.649501     0.267862     2.064278
Gh(H)      1.262818     0.937200     2.368076
Gh(H)      0.594691    -0.289524     2.874892
Gh(O)     -1.650746     1.627578     1.227517
Gh(H)     -0.937475     1.262507     1.773525
Gh(H)     -2.433155     1.122101     1.300427
O         -1.573423    -0.329419    -1.795216
H         -2.311819     0.249475    -2.145586
H         -1.174989    -0.659191    -2.614392

units ang
no_reorient
no_com
symmetry c1
}

set {
basis        aug-cc-pVTZ
scf_type     df
}

energy("mp2")
--------------------------------------------------------------------------

    Molecular point group: c1

    Geometry (in Angstrom), charge = 0, multiplicity = 1:

       Center              X                  Y                   Z               Mass
    ------------   -----------------  -----------------  -----------------  -----------------
      Gh(NA)          0.000000000000     0.000000000000     0.000000000000    22.989769282000
      Gh(O)           0.954819000000     1.660987000000    -1.074380000000    15.994914619570
      Gh(H)           0.801764000000     2.636974000000    -1.072418000000     1.007825032230
      Gh(H)           1.647407000000     1.475023000000    -1.768699000000     1.007825032230
      Gh(O)           1.731358000000    -1.499028000000    -0.404719000000    15.994914619570
      Gh(H)           1.341958000000    -2.259563000000     0.035339000000     1.007825032230
      Gh(H)           1.778928000000    -1.780792000000    -1.299789000000     1.007825032230
      Gh(O)           0.649501000000     0.267862000000     2.064278000000    15.994914619570
      Gh(H)           1.262818000000     0.937200000000     2.368076000000     1.007825032230
      Gh(H)           0.594691000000    -0.289524000000     2.874892000000     1.007825032230
      Gh(O)          -1.650746000000     1.627578000000     1.227517000000    15.994914619570
      Gh(H)          -0.937475000000     1.262507000000     1.773525000000     1.007825032230
      Gh(H)          -2.433155000000     1.122101000000     1.300427000000     1.007825032230
         O           -1.573423000000    -0.329419000000    -1.795216000000    15.994914619570
         H           -2.311819000000     0.249475000000    -2.145586000000     1.007825032230
         H           -1.174989000000    -0.659191000000    -2.614392000000     1.007825032230

  Charge       = 0
  Multiplicity = 1
  Basis Set: AUG-CC-PVTZ
    Blend: AUG-CC-PVTZ
  Basis Set: (AUG-CC-PVTZ AUX)
    Blend: AUG-CC-PVTZ-JKFIT + DEF2-UNIVERSAL-JKFIT

    Orbital Energies [Eh]
    ---------------------

    Doubly Occupied:

       1A    -20.572996     2A     -1.341627     3A     -0.697673
       4A     -0.584657     5A     -0.508943

  @DF-RHF Final Energy:   -76.05679013118420

   => Energetics <=

    Nuclear Repulsion Energy =              8.9427643962068970
    One-Electron Energy =                -122.5873122855615236
    Two-Electron Energy =                  37.5877577581704259
    Total Energy =                        -76.0567901311842007
 Dipole X            :         30.1597374          -30.3758206           -0.2160832
 Dipole Y            :          5.9120945           -5.7543446            0.1577500
 Dipole Z            :         35.3744944          -36.1347874           -0.7602930
 Magnitude           :                                                    0.8059916
  Basis Set: (AUG-CC-PVTZ AUX)
    Blend: AUG-CC-PVTZ-RI + DEF2-QZVPP-RI
	 Reference Energy          =     -76.0567901311842007 [Eh]
	 Singles Energy            =      -0.0000000000000000 [Eh]
	 Same-Spin Energy          =      -0.0689535070594393 [Eh]
	 Opposite-Spin Energy      =      -0.2174829156180410 [Eh]
	 Correlation Energy        =      -0.2864364226774803 [Eh]
	 Total Energy              =     -76.3432265538616832 [Eh]

	 ================> DF-SCS-MP2 Energies <==================
	-----------------------------------------------------------
	 SCS Same-Spin Scale       =       0.3333333333333333 [-]
	 SCS Opposite-Spin Scale   =       1.2000000000000000 [-]
	 SCS Same-Spin Energy      =      -0.0229845023531464 [Eh]
	 SCS Opposite-Spin Energy  =      -0.2609794987416491 [Eh]
	 SCS Correlation Energy    =      -0.2839640010947955 [Eh]
	 SCS Total Energy          =     -76.3407541322790024 [Eh]
	-----------------------------------------------------------

*** Psi4 exiting successfully. Buy a developer a beer!
