                               Psi4 1.8.2 release

  ==> Input File <==

--------------------------------------------------------------------------
MEMORY 60 GB

molecule dimer {
1 1
Na         0.000000     0.000000     0.000000
Gh(O)      0.974400    -1.500805    -1.578092
Gh(H)      0.289260    -1.851647    -2.169700
Gh(H)      1.709261    -1.238602    -2.153686
Gh(O)     -1.797096     0.831159    -1.319080
Gh(H)     -1.656469     1.372669    -2.125826
Gh(H)     -2.720728     0.976342    -1.054127
Gh(O)      2.455762     0.636301     0.302092
Gh(H)      2.886737     1.301869     0.827337
Gh(H)      3.173762     0.185035    -0.192646
Gh(O)      0.452548     1.189970     2.197550
Gh(H)      1.237469     0.673737     2.428768
Gh(H)     -0.021114     1.508820     3.014876

units ang
no_reorient
no_com
symmetry c1
}

set {
basis        aug-cc-pVTZ
scf_type     df
}

energy("mp2")
--------------------------------------------------------------------------

    Molecular point group: c1

    Geometry (in Angstrom), charge = 1, multiplicity = 1:

       Center              X                  Y                   Z               Mass
    ------------   -----------------  -----------------  -----------------  -----------------
         NA           0.000000000000     0.000000000000     0.000000000000    22.989769282000
      Gh(O)           0.974400000000    -1.500805000000    -1.578092000000    15.994914619570
      Gh(H)           0.289260000000    -1.851647000000    -2.169700000000     1.007825032230
      Gh(H)           1.709261000000    -1.238602000000    -2.153686000000     1.007825032230
      Gh(O)          -1.797096000000     0.831159000000    -1.319080000000    15.994914619570
      Gh(H)          -1.656469000000     1.372669000000    -2.125826000000     1.007825032230
      Gh(H)          -2.720728000000     0.976342000000    -1.054127000000     1.007825032230
      Gh(O)           2.455762000000     0.636301000000     0.302092000000    15.994914619570
      Gh(H)           2.886737000000     1.301869000000     0.827337000000     1.007825032230
      Gh(H)           3.173762000000     0.185035000000    -0.192646000000     1.007825032230
      Gh(O)           0.452548000000     1.189970000000     2.197550000000    15.994914619570
      Gh(H)           1.237469000000     0.673737000000     2.428768000000     1.007825032230
      Gh(H)          -0.021114000000     1.508820000000     3.014876000000     1.007825032230

  Charge       = 1
  Multiplicity = 1
  Basis Set: AUG-CC-PVTZ
    Blend: AUG-CC-PVTZ
  Basis Set: (AUG-CC-PVTZ AUX)
    Blend: AUG-CC-PVTZ-JKFIT + DEF2-UNIVERSAL-JKFIT

    Orbital Energies [Eh]
    ---------------------

    Doubly Occupied:

       1A    -40.761092     2A     -3.074083     3A     -1.797440
       4A     -1.797413     5A     -1.797307

  @DF-RHF Final Energy:  -161.67607922400654

   => Energetics <=

    Nuclear Repulsion Energy =              0.0000000000000000
    One-Electron Energy =                -224.8974866187538737
    Two-Electron Energy =                  63.2214073947473310
    Total Energy =                       -161.6760792240065427
 Dipole X            :          0.0001333            0.0000000            0.0001333
 Dipole Y            :          0.0000697            0.0000000            0.0000697
 Dipole Z            :         -0.0000514            0.0000000           -0.0000514
 Magnitude           :                                                    0.0001589
  Basis Set: (AUG-CC-PVTZ AUX)
    Blend: AUG-CC-PVTZ-RI + DEF2-QZVPP-RI
	 Reference Energy          =    -161.6760792240065427 [Eh]
	 Singles Energy            =      -0.0000000000000000 [Eh]
	 Same-Spin Energy          =      -0.0045682075578281 [Eh]
	 Opposite-Spin Energy      =      -0.0149336260638908 [Eh]
	 Correlation Energy        =      -0.0195018336217188 [Eh]
	 Total Energy              =    -161.6955810576282602 [Eh]

	 ================> DF-SCS-MP2 Energies <==================
	-----------------------------------------------------------
	 SCS Same-Spin Scale       =       0.3333333333333333 [-]
	 SCS Opposite-Spin Scale   =       1.2000000000000000 [-]
	 SCS Same-Spin Energy      =      -0.0015227358526094 [Eh]
	 SCS Opposite-Spin Energy  =      -0.0179203512766689 [Eh]
	 SCS Correlation Energy    =      -0.0194430871292783 [Eh]
	 SCS Total Energy          =    -161.6955223111358180 [Eh]
	-----------------------------------------------------------

*** Psi4 exiting successfully. Buy a developer a beer!
