                               Psi4 1.9 release

  ==> Input File <==

--------------------------------------------------------------------------
MEMORY 60 GB

molecule dimer {
1 1
Na     0.000000     0.000000     0.000000
--
0 1
O     -1.136205     2.109216     0.011475
H     -1.817514     2.445570     0.580069
H     -0.451115     2.773422    -0.131302
O      1.252024    -2.158597    -0.042907
H      1.513019    -2.709178     0.698471
H      1.692694    -2.571460    -0.772312
O      2.180151     1.061963    -0.494664
H      2.109145     1.159492    -1.466466
H      2.569159     1.827540    -0.098947
O     -0.175210     0.603986    -2.316960
H     -0.687306    -0.098022    -2.722072
H     -0.718872     1.408419    -2.299209
O     -0.000383    -0.188447     2.289591
H      0.693352    -0.570890     2.866500
H     -0.819570    -0.668426     2.496017

units ang
no_reorient
no_com
symmetry c1
}

set {
basis        aug-cc-pVTZ
scf_type     df
}

energy("mp2", bsse_type="cp")
--------------------------------------------------------------------------

                               Psi4 1.9 release
    Molecular point group: c1
  Charge       = 0
  Multiplicity = 1
  Basis Set: AUG-CC-PVTZ
    Blend: AUG-CC-PVTZ
  Basis Set: (AUG-CC-PVTZ AUX)
    Blend: AUG-CC-PVTZ-JKFIT + DEF2-UNIVERSAL-JKFIT
  @DF-RHF Final Energy:  -380.28178418439609
    Total Energy =                       -380.2817841843960878
 Dipole X            :        -39.9546887           39.7711912           -0.1834976
 Dipole Y            :        -27.1719286           27.2525625            0.0806339
 Dipole Z            :         10.1809234           -9.9720300            0.2088934
 Magnitude           :                                                    0.2894989
  Basis Set: (AUG-CC-PVTZ AUX)
    Blend: AUG-CC-PVTZ-RI + DEF2-QZVPP-RI
	 Reference Energy          =    -380.2817841843960878 [Eh]
	 Singles Energy            =      -0.0000000000000000 [Eh]
	 Same-Spin Energy          =      -0.3457807398511761 [Eh]
	 Opposite-Spin Energy      =      -1.0841275228199463 [Eh]
	 Correlation Energy        =      -1.4299082626711224 [Eh]
	 Total Energy              =    -381.7116924470672075 [Eh]
	 SCS Total Energy          =    -381.6979974583970829 [Eh]
                               Psi4 1.9 release
    Molecular point group: c1
  Multiplicity = 1
  Basis Set: AUG-CC-PVTZ
    Blend: AUG-CC-PVTZ
  Basis Set: (AUG-CC-PVTZ AUX)
    Blend: AUG-CC-PVTZ-JKFIT + DEF2-UNIVERSAL-JKFIT
  @DF-RHF Final Energy:  -161.67608920261563
    Total Energy =                       -161.6760892026156284
  Basis Set: (AUG-CC-PVTZ AUX)
	 Singles Energy            =      -0.0000000000000000 [Eh]
	 Same-Spin Energy          =      -0.0062615053258391 [Eh]
	 Opposite-Spin Energy      =      -0.0192623173811268 [Eh]
	 Correlation Energy        =      -0.0255238227069660 [Eh]
	 Total Energy              =    -161.7016130253225867 [Eh]
	 SCS Total Energy          =    -161.7012911519149156 [Eh]
                               Psi4 1.9 release
    Molecular point group: c1

    Geometry (in Bohr), charge = 1, multiplicity = 1:

       Center              X                  Y                   Z               Mass
    ------------   -----------------  -----------------  -----------------  -----------------
         NA           0.000000000000     0.000000000000     0.000000000000    22.989769282000
         O           -2.147116272376     3.985840579434     0.021684607290    15.994914619570
         H           -3.434603689185     4.621457520636     1.096171543868     1.007825032230
         H           -0.852483801086     5.241008010320    -0.248124819725     1.007825032230
         O            2.365982462500    -4.079157145235    -0.081082478865    15.994914619570
         H            2.859191532614    -5.119604445116     1.319918896575     1.007825032230
         H            3.198728074206    -4.859355142570    -1.459458163405     1.007825032230
         O            4.119888302143     2.006819225370    -0.934779484123    15.994914619570
         H            3.985706408879     2.191122324659    -2.771219112296     1.007825032230
         H            4.855006882755     3.453550083319    -0.186982730936     1.007825032230
         O           -0.331098914441     1.141368123611    -4.378419843641    15.994914619570
         H           -1.298820104384    -0.185234734270    -5.143970573777     1.007825032230
         H           -1.358471199260     2.661526179891    -4.344875315188     1.007825032230
         O           -0.000723765106    -0.356113219164     4.326699929313    15.994914619570
         H            1.310245388538    -1.078825747763     5.416899938625     1.007825032230
         H           -1.548762840641    -1.263142075135     4.716788534487     1.007825032230

  Charge       = 1
  Multiplicity = 1
  Basis Set: AUG-CC-PVTZ
    Blend: AUG-CC-PVTZ
  Basis Set: (AUG-CC-PVTZ AUX)
    Blend: AUG-CC-PVTZ-JKFIT + DEF2-UNIVERSAL-JKFIT

    Orbital Energies [Eh]
    ---------------------

    Doubly Occupied:

       1A    -40.556231     2A    -20.726178     3A    -20.724733
       4A    -20.720451     5A    -20.711761     6A    -20.701457
       7A     -2.878254     8A     -1.603630     9A     -1.602855
      10A     -1.602190    11A     -1.514313    12A     -1.505228
      13A     -1.503879    14A     -1.502674    15A     -1.485887
      16A     -0.895452    17A     -0.876504    18A     -0.870781
      19A     -0.866621    20A     -0.862114    21A     -0.754682
      22A     -0.748257    23A     -0.745580    24A     -0.740291
      25A     -0.716743    26A     -0.678115    27A     -0.671835
      28A     -0.668675    29A     -0.659196    30A     -0.648803

  @DF-RHF Final Energy:  -542.09656276556836

   => Energetics <=

    Nuclear Repulsion Energy =            304.4538085347426204
    One-Electron Energy =               -1351.6139902726447417
    Two-Electron Energy =                 505.0636189723337566
    Total Energy =                       -542.0965627655683647
 Dipole X            :        -39.7433170           39.7711912            0.0278742
 Dipole Y            :        -27.0144423           27.2525625            0.2381202
 Dipole Z            :         10.1722431           -9.9720300            0.2002131
 Magnitude           :                                                    0.3123516
  Basis Set: (AUG-CC-PVTZ AUX)
    Blend: AUG-CC-PVTZ-RI + DEF2-QZVPP-RI
	 Reference Energy          =    -542.0965627655683647 [Eh]
	 Singles Energy            =      -0.0000000000000000 [Eh]
	 Same-Spin Energy          =      -0.3508192686185056 [Eh]
	 Opposite-Spin Energy      =      -1.0973397771164872 [Eh]
	 Correlation Energy        =      -1.4481590457349929 [Eh]
	 Total Energy              =    -543.5447218113033614 [Eh]

	 ================> DF-SCS-MP2 Energies <==================
	-----------------------------------------------------------
	 SCS Same-Spin Scale       =       0.3333333333333333 [-]
	 SCS Opposite-Spin Scale   =       1.2000000000000000 [-]
	 SCS Same-Spin Energy      =      -0.1169397562061685 [Eh]
	 SCS Opposite-Spin Energy  =      -1.3168077325397847 [Eh]
	 SCS Correlation Energy    =      -1.4337474887459531 [Eh]
	 SCS Total Energy          =    -543.5303102543143723 [Eh]
	-----------------------------------------------------------

*** Psi4 exiting successfully. Buy a developer a beer!
