                               Psi4 1.8.2 release

  ==> Input File <==

--------------------------------------------------------------------------
MEMORY 60 GB

molecule dimer {
0 1
Gh(Na)     0.000000     0.000000     0.000000
O         -2.261961     1.217191     0.375676
H         -2.319771     0.725206     1.230404
H         -2.115469     2.079564     0.782307
Gh(O)      0.486184     1.167985    -1.873883
Gh(H)      1.475220     1.083745    -1.817610
Gh(H)      0.344352     2.132995    -1.761720
Gh(O)      0.722217     0.847010     2.215250
Gh(H)      1.295874     1.594855     2.044533
Gh(H)      1.115391     0.266313     2.859288
Gh(O)      2.364881    -0.815744    -0.208489
Gh(H)      2.395551    -1.654726     0.299478
Gh(H)      2.540953    -0.931226    -1.162329
Gh(O)     -1.292387    -1.428775     1.297161
Gh(H)     -1.008717    -1.931975     2.092847
Gh(H)     -1.907300    -1.938032     0.765697

units ang
no_reorient
no_com
symmetry c1
}

set {
basis        aug-cc-pVTZ
scf_type     df
}

energy("mp2")
--------------------------------------------------------------------------

    Molecular point group: c1

    Geometry (in Angstrom), charge = 0, multiplicity = 1:

       Center              X                  Y                   Z               Mass
    ------------   -----------------  -----------------  -----------------  -----------------
      Gh(NA)          0.000000000000     0.000000000000     0.000000000000    22.989769282000
         O           -2.261961000000     1.217191000000     0.375676000000    15.994914619570
         H           -2.319771000000     0.725206000000     1.230404000000     1.007825032230
         H           -2.115469000000     2.079564000000     0.782307000000     1.007825032230
      Gh(O)           0.486184000000     1.167985000000    -1.873883000000    15.994914619570
      Gh(H)           1.475220000000     1.083745000000    -1.817610000000     1.007825032230
      Gh(H)           0.344352000000     2.132995000000    -1.761720000000     1.007825032230
      Gh(O)           0.722217000000     0.847010000000     2.215250000000    15.994914619570
      Gh(H)           1.295874000000     1.594855000000     2.044533000000     1.007825032230
      Gh(H)           1.115391000000     0.266313000000     2.859288000000     1.007825032230
      Gh(O)           2.364881000000    -0.815744000000    -0.208489000000    15.994914619570
      Gh(H)           2.395551000000    -1.654726000000     0.299478000000     1.007825032230
      Gh(H)           2.540953000000    -0.931226000000    -1.162329000000     1.007825032230
      Gh(O)          -1.292387000000    -1.428775000000     1.297161000000    15.994914619570
      Gh(H)          -1.008717000000    -1.931975000000     2.092847000000     1.007825032230
      Gh(H)          -1.907300000000    -1.938032000000     0.765697000000     1.007825032230

  Charge       = 0
  Multiplicity = 1
  Basis Set: AUG-CC-PVTZ
    Blend: AUG-CC-PVTZ
  Basis Set: (AUG-CC-PVTZ AUX)
    Blend: AUG-CC-PVTZ-JKFIT + DEF2-UNIVERSAL-JKFIT

    Orbital Energies [Eh]
    ---------------------

    Doubly Occupied:

       1A    -20.574225     2A     -1.350809     3A     -0.688830
       4A     -0.599533     5A     -0.511542

  @DF-RHF Final Energy:   -76.05588236830272

   => Energetics <=

    Nuclear Repulsion Energy =              9.0411382990160973
    One-Electron Energy =                -122.7441629663411504
    Two-Electron Energy =                  37.6471422990223346
    Total Energy =                        -76.0558823683027185
 Dipole X            :         42.6345457          -42.5772833            0.0572624
 Dipole Y            :        -23.4594413           23.7015082            0.2420669
 Dipole Z            :         -8.6760832            9.4828706            0.8067874
 Magnitude           :                                                    0.8442637
  Basis Set: (AUG-CC-PVTZ AUX)
    Blend: AUG-CC-PVTZ-RI + DEF2-QZVPP-RI
	 Reference Energy          =     -76.0558823683027185 [Eh]
	 Singles Energy            =      -0.0000000000000000 [Eh]
	 Same-Spin Energy          =      -0.0690371107335116 [Eh]
	 Opposite-Spin Energy      =      -0.2175596591631957 [Eh]
	 Correlation Energy        =      -0.2865967698967073 [Eh]
	 Total Energy              =     -76.3424791381994226 [Eh]

	 ================> DF-SCS-MP2 Energies <==================
	-----------------------------------------------------------
	 SCS Same-Spin Scale       =       0.3333333333333333 [-]
	 SCS Opposite-Spin Scale   =       1.2000000000000000 [-]
	 SCS Same-Spin Energy      =      -0.0230123702445039 [Eh]
	 SCS Opposite-Spin Energy  =      -0.2610715909958349 [Eh]
	 SCS Correlation Energy    =      -0.2840839612403387 [Eh]
	 SCS Total Energy          =     -76.3399663295430599 [Eh]
	-----------------------------------------------------------

*** Psi4 exiting successfully. Buy a developer a beer!
