                               Psi4 1.8.2 release

  ==> Input File <==

--------------------------------------------------------------------------
MEMORY 60 GB

molecule dimer {
0 1
Gh(Na)     0.000000     0.000000     0.000000
Gh(O)      0.455401     1.725871    -1.530100
Gh(H)      0.381599     2.703129    -1.701900
Gh(H)      1.168828     1.383847    -1.972639
Gh(O)      0.099395    -1.245093    -1.972522
Gh(H)     -0.525908    -1.852204    -2.373265
Gh(H)      0.897570    -1.353097    -2.425965
O         -0.577192    -2.096889     1.451220
H         -0.502479    -1.745663     2.351427
H         -0.878722    -2.990788     1.553783
Gh(O)     -1.109273     1.078842     1.946875
Gh(H)     -1.010859     0.585553     2.773577
Gh(H)     -1.699356     1.860468     2.119333
Gh(O)      2.116279     0.093364     1.509554
Gh(H)      2.034470     0.874012     2.152355
Gh(H)      2.186417    -0.715612     2.045233

units ang
no_reorient
no_com
symmetry c1
}

set {
basis        aug-cc-pVTZ
scf_type     df
}

energy("mp2")
--------------------------------------------------------------------------

    Molecular point group: c1

    Geometry (in Angstrom), charge = 0, multiplicity = 1:

       Center              X                  Y                   Z               Mass
    ------------   -----------------  -----------------  -----------------  -----------------
      Gh(NA)          0.000000000000     0.000000000000     0.000000000000    22.989769282000
      Gh(O)           0.455401000000     1.725871000000    -1.530100000000    15.994914619570
      Gh(H)           0.381599000000     2.703129000000    -1.701900000000     1.007825032230
      Gh(H)           1.168828000000     1.383847000000    -1.972639000000     1.007825032230
      Gh(O)           0.099395000000    -1.245093000000    -1.972522000000    15.994914619570
      Gh(H)          -0.525908000000    -1.852204000000    -2.373265000000     1.007825032230
      Gh(H)           0.897570000000    -1.353097000000    -2.425965000000     1.007825032230
         O           -0.577192000000    -2.096889000000     1.451220000000    15.994914619570
         H           -0.502479000000    -1.745663000000     2.351427000000     1.007825032230
         H           -0.878722000000    -2.990788000000     1.553783000000     1.007825032230
      Gh(O)          -1.109273000000     1.078842000000     1.946875000000    15.994914619570
      Gh(H)          -1.010859000000     0.585553000000     2.773577000000     1.007825032230
      Gh(H)          -1.699356000000     1.860468000000     2.119333000000     1.007825032230
      Gh(O)           2.116279000000     0.093364000000     1.509554000000    15.994914619570
      Gh(H)           2.034470000000     0.874012000000     2.152355000000     1.007825032230
      Gh(H)           2.186417000000    -0.715612000000     2.045233000000     1.007825032230

  Charge       = 0
  Multiplicity = 1
  Basis Set: AUG-CC-PVTZ
    Blend: AUG-CC-PVTZ
  Basis Set: (AUG-CC-PVTZ AUX)
    Blend: AUG-CC-PVTZ-JKFIT + DEF2-UNIVERSAL-JKFIT

    Orbital Energies [Eh]
    ---------------------

    Doubly Occupied:

       1A    -20.566976     2A     -1.352039     3A     -0.718493
       4A     -0.582779     5A     -0.509900

  @DF-RHF Final Energy:   -76.06040078456112

   => Energetics <=

    Nuclear Repulsion Energy =              9.1760324331828809
    One-Electron Energy =                -123.0124879446645707
    Two-Electron Energy =                  37.7760547269205702
    Total Energy =                        -76.0604007845611250
 Dipole X            :         11.1840015          -11.3359700           -0.1519686
 Dipole Y            :         40.2865984          -40.6509626           -0.3643642
 Dipole Z            :        -28.6526961           29.3190441            0.6663480
 Magnitude           :                                                    0.7745162
  Basis Set: (AUG-CC-PVTZ AUX)
    Blend: AUG-CC-PVTZ-RI + DEF2-QZVPP-RI
	 Reference Energy          =     -76.0604007845611250 [Eh]
	 Singles Energy            =      -0.0000000000000000 [Eh]
	 Same-Spin Energy          =      -0.0684103172003951 [Eh]
	 Opposite-Spin Energy      =      -0.2157675489596840 [Eh]
	 Correlation Energy        =      -0.2841778661600791 [Eh]
	 Total Energy              =     -76.3445786507212034 [Eh]

	 ================> DF-SCS-MP2 Energies <==================
	-----------------------------------------------------------
	 SCS Same-Spin Scale       =       0.3333333333333333 [-]
	 SCS Opposite-Spin Scale   =       1.2000000000000000 [-]
	 SCS Same-Spin Energy      =      -0.0228034390667984 [Eh]
	 SCS Opposite-Spin Energy  =      -0.2589210587516208 [Eh]
	 SCS Correlation Energy    =      -0.2817244978184192 [Eh]
	 SCS Total Energy          =     -76.3421252823795413 [Eh]
	-----------------------------------------------------------

*** Psi4 exiting successfully. Buy a developer a beer!
