                               Psi4 1.8.2 release

  ==> Input File <==

--------------------------------------------------------------------------
MEMORY 60 GB

molecule dimer {
1 1
Na         0.000000     0.000000     0.000000
Gh(O)     -1.116986    -1.262600     1.452823
Gh(H)     -1.933314    -0.949816     1.831289
Gh(H)     -1.388892    -2.089831     1.067611
Gh(O)     -2.064765    -0.369848    -1.354204
Gh(H)     -2.208321     0.074992    -2.228213
Gh(H)     -2.865148    -0.793867    -1.087041
Gh(O)     -0.752363     1.854057     1.354572
Gh(H)     -1.096528     1.642435     2.231559
Gh(H)     -1.447594     2.380144     0.877744
Gh(O)      2.350808     0.315241     0.892599
Gh(H)      3.010726     0.173134     0.141394
Gh(H)      2.495966     1.172138     1.167830
Gh(O)      1.084462     1.438589    -1.573635
Gh(H)      1.544269     0.800080    -2.144693
Gh(H)      1.595583     2.266747    -1.520243

units ang
no_reorient
no_com
symmetry c1
}

set {
basis        aug-cc-pVTZ
scf_type     df
}

energy("mp2")
--------------------------------------------------------------------------

    Molecular point group: c1

    Geometry (in Angstrom), charge = 1, multiplicity = 1:

       Center              X                  Y                   Z               Mass
    ------------   -----------------  -----------------  -----------------  -----------------
         NA           0.000000000000     0.000000000000     0.000000000000    22.989769282000
      Gh(O)          -1.116986000000    -1.262600000000     1.452823000000    15.994914619570
      Gh(H)          -1.933314000000    -0.949816000000     1.831289000000     1.007825032230
      Gh(H)          -1.388892000000    -2.089831000000     1.067611000000     1.007825032230
      Gh(O)          -2.064765000000    -0.369848000000    -1.354204000000    15.994914619570
      Gh(H)          -2.208321000000     0.074992000000    -2.228213000000     1.007825032230
      Gh(H)          -2.865148000000    -0.793867000000    -1.087041000000     1.007825032230
      Gh(O)          -0.752363000000     1.854057000000     1.354572000000    15.994914619570
      Gh(H)          -1.096528000000     1.642435000000     2.231559000000     1.007825032230
      Gh(H)          -1.447594000000     2.380144000000     0.877744000000     1.007825032230
      Gh(O)           2.350808000000     0.315241000000     0.892599000000    15.994914619570
      Gh(H)           3.010726000000     0.173134000000     0.141394000000     1.007825032230
      Gh(H)           2.495966000000     1.172138000000     1.167830000000     1.007825032230
      Gh(O)           1.084462000000     1.438589000000    -1.573635000000    15.994914619570
      Gh(H)           1.544269000000     0.800080000000    -2.144693000000     1.007825032230
      Gh(H)           1.595583000000     2.266747000000    -1.520243000000     1.007825032230

  Charge       = 1
  Multiplicity = 1
  Basis Set: AUG-CC-PVTZ
    Blend: AUG-CC-PVTZ
  Basis Set: (AUG-CC-PVTZ AUX)
    Blend: AUG-CC-PVTZ-JKFIT + DEF2-UNIVERSAL-JKFIT

    Orbital Energies [Eh]
    ---------------------

    Doubly Occupied:

       1A    -40.760458     2A     -3.073814     3A     -1.797178
       4A     -1.797145     5A     -1.797131

  @DF-RHF Final Energy:  -161.67608974925420

   => Energetics <=

    Nuclear Repulsion Energy =              0.0000000000000000
    One-Electron Energy =                -224.9007294421951428
    Two-Electron Energy =                  63.2246396929409329
    Total Energy =                       -161.6760897492542028
 Dipole X            :          0.0000072            0.0000000            0.0000072
 Dipole Y            :          0.0000511            0.0000000            0.0000511
 Dipole Z            :         -0.0000050            0.0000000           -0.0000050
 Magnitude           :                                                    0.0000519
  Basis Set: (AUG-CC-PVTZ AUX)
    Blend: AUG-CC-PVTZ-RI + DEF2-QZVPP-RI
	 Reference Energy          =    -161.6760897492542028 [Eh]
	 Singles Energy            =      -0.0000000000000000 [Eh]
	 Same-Spin Energy          =      -0.0063652907200467 [Eh]
	 Opposite-Spin Energy      =      -0.0194965370412591 [Eh]
	 Correlation Energy        =      -0.0258618277613058 [Eh]
	 Total Energy              =    -161.7019515770155067 [Eh]

	 ================> DF-SCS-MP2 Energies <==================
	-----------------------------------------------------------
	 SCS Same-Spin Scale       =       0.3333333333333333 [-]
	 SCS Opposite-Spin Scale   =       1.2000000000000000 [-]
	 SCS Same-Spin Energy      =      -0.0021217635733489 [Eh]
	 SCS Opposite-Spin Energy  =      -0.0233958444495109 [Eh]
	 SCS Correlation Energy    =      -0.0255176080228598 [Eh]
	 SCS Total Energy          =    -161.7016073572770551 [Eh]
	-----------------------------------------------------------

*** Psi4 exiting successfully. Buy a developer a beer!
