                               Psi4 1.8.2 release

  ==> Input File <==

--------------------------------------------------------------------------
MEMORY 60 GB

molecule dimer {
1 1
Na         0.000000     0.000000     0.000000
Gh(O)     -0.673232    -1.361551     1.844656
Gh(H)     -1.547116    -1.792032     1.858565
Gh(H)     -0.316973    -1.439934     2.743867
Gh(O)      0.336907     1.936373     1.176897
Gh(H)      0.697941     1.645446     2.028898
Gh(H)     -0.264584     2.611499     1.395482
Gh(O)      2.529759    -0.112909    -0.584417
Gh(H)      2.441833     0.580572    -1.291541
Gh(H)      2.910429    -0.881984    -1.056684
Gh(O)     -0.010284    -1.811195    -1.348257
Gh(H)      0.547324    -2.624263    -1.265891
Gh(H)     -0.939829    -2.087539    -1.346780
Gh(O)     -2.278247     0.340150    -0.389340
Gh(H)     -3.045876     0.723307     0.114275
Gh(H)     -2.643174    -0.488879    -0.716904

units ang
no_reorient
no_com
symmetry c1
}

set {
basis        aug-cc-pVTZ
scf_type     df
}

energy("mp2")
--------------------------------------------------------------------------

    Molecular point group: c1

    Geometry (in Angstrom), charge = 1, multiplicity = 1:

       Center              X                  Y                   Z               Mass
    ------------   -----------------  -----------------  -----------------  -----------------
         NA           0.000000000000     0.000000000000     0.000000000000    22.989769282000
      Gh(O)          -0.673232000000    -1.361551000000     1.844656000000    15.994914619570
      Gh(H)          -1.547116000000    -1.792032000000     1.858565000000     1.007825032230
      Gh(H)          -0.316973000000    -1.439934000000     2.743867000000     1.007825032230
      Gh(O)           0.336907000000     1.936373000000     1.176897000000    15.994914619570
      Gh(H)           0.697941000000     1.645446000000     2.028898000000     1.007825032230
      Gh(H)          -0.264584000000     2.611499000000     1.395482000000     1.007825032230
      Gh(O)           2.529759000000    -0.112909000000    -0.584417000000    15.994914619570
      Gh(H)           2.441833000000     0.580572000000    -1.291541000000     1.007825032230
      Gh(H)           2.910429000000    -0.881984000000    -1.056684000000     1.007825032230
      Gh(O)          -0.010284000000    -1.811195000000    -1.348257000000    15.994914619570
      Gh(H)           0.547324000000    -2.624263000000    -1.265891000000     1.007825032230
      Gh(H)          -0.939829000000    -2.087539000000    -1.346780000000     1.007825032230
      Gh(O)          -2.278247000000     0.340150000000    -0.389340000000    15.994914619570
      Gh(H)          -3.045876000000     0.723307000000     0.114275000000     1.007825032230
      Gh(H)          -2.643174000000    -0.488879000000    -0.716904000000     1.007825032230

  Charge       = 1
  Multiplicity = 1
  Basis Set: AUG-CC-PVTZ
    Blend: AUG-CC-PVTZ
  Basis Set: (AUG-CC-PVTZ AUX)
    Blend: AUG-CC-PVTZ-JKFIT + DEF2-UNIVERSAL-JKFIT

    Orbital Energies [Eh]
    ---------------------

    Doubly Occupied:

       1A    -40.760476     2A     -3.073815     3A     -1.797179
       4A     -1.797167     5A     -1.797114

  @DF-RHF Final Energy:  -161.67609121356369

   => Energetics <=

    Nuclear Repulsion Energy =              0.0000000000000000
    One-Electron Energy =                -224.9006795163556944
    Two-Electron Energy =                  63.2245883027920144
    Total Energy =                       -161.6760912135636659
 Dipole X            :          0.0000224            0.0000000            0.0000224
 Dipole Y            :         -0.0000039            0.0000000           -0.0000039
 Dipole Z            :         -0.0000391            0.0000000           -0.0000391
 Magnitude           :                                                    0.0000452
  Basis Set: (AUG-CC-PVTZ AUX)
    Blend: AUG-CC-PVTZ-RI + DEF2-QZVPP-RI
	 Reference Energy          =    -161.6760912135636943 [Eh]
	 Singles Energy            =      -0.0000000000000000 [Eh]
	 Same-Spin Energy          =      -0.0062650703140209 [Eh]
	 Opposite-Spin Energy      =      -0.0192551932255061 [Eh]
	 Correlation Energy        =      -0.0255202635395270 [Eh]
	 Total Energy              =    -161.7016114771032278 [Eh]

	 ================> DF-SCS-MP2 Energies <==================
	-----------------------------------------------------------
	 SCS Same-Spin Scale       =       0.3333333333333333 [-]
	 SCS Opposite-Spin Scale   =       1.2000000000000000 [-]
	 SCS Same-Spin Energy      =      -0.0020883567713403 [Eh]
	 SCS Opposite-Spin Energy  =      -0.0231062318706073 [Eh]
	 SCS Correlation Energy    =      -0.0251945886419476 [Eh]
	 SCS Total Energy          =    -161.7012858022056321 [Eh]
	-----------------------------------------------------------

*** Psi4 exiting successfully. Buy a developer a beer!
