                               Psi4 1.8.2 release

  ==> Input File <==

--------------------------------------------------------------------------
MEMORY 60 GB

molecule dimer {
0 1
Gh(Na)     0.000000     0.000000     0.000000
O         -0.846206     1.202595     1.854346
H         -1.394373     1.995479     2.024959
H         -0.648149     0.790331     2.691139
Gh(O)     -1.309742     1.323778    -1.628410
Gh(H)     -1.163522     2.267977    -1.422263
Gh(H)     -1.147540     1.263131    -2.577035
Gh(O)      1.237480    -1.823391     0.446021
Gh(H)      0.963790    -2.734554     0.597322
Gh(H)      2.174011    -1.658736     0.605497
Gh(O)     -1.574568    -1.883367    -0.384367
Gh(H)     -1.498784    -2.289933    -1.277612
Gh(H)     -2.507560    -1.716692    -0.387422

units ang
no_reorient
no_com
symmetry c1
}

set {
basis        aug-cc-pVTZ
scf_type     df
}

energy("mp2")
--------------------------------------------------------------------------

    Molecular point group: c1

    Geometry (in Angstrom), charge = 0, multiplicity = 1:

       Center              X                  Y                   Z               Mass
    ------------   -----------------  -----------------  -----------------  -----------------
      Gh(NA)          0.000000000000     0.000000000000     0.000000000000    22.989769282000
         O           -0.846206000000     1.202595000000     1.854346000000    15.994914619570
         H           -1.394373000000     1.995479000000     2.024959000000     1.007825032230
         H           -0.648149000000     0.790331000000     2.691139000000     1.007825032230
      Gh(O)          -1.309742000000     1.323778000000    -1.628410000000    15.994914619570
      Gh(H)          -1.163522000000     2.267977000000    -1.422263000000     1.007825032230
      Gh(H)          -1.147540000000     1.263131000000    -2.577035000000     1.007825032230
      Gh(O)           1.237480000000    -1.823391000000     0.446021000000    15.994914619570
      Gh(H)           0.963790000000    -2.734554000000     0.597322000000     1.007825032230
      Gh(H)           2.174011000000    -1.658736000000     0.605497000000     1.007825032230
      Gh(O)          -1.574568000000    -1.883367000000    -0.384367000000    15.994914619570
      Gh(H)          -1.498784000000    -2.289933000000    -1.277612000000     1.007825032230
      Gh(H)          -2.507560000000    -1.716692000000    -0.387422000000     1.007825032230

  Charge       = 0
  Multiplicity = 1
  Basis Set: AUG-CC-PVTZ
    Blend: AUG-CC-PVTZ
  Basis Set: (AUG-CC-PVTZ AUX)
    Blend: AUG-CC-PVTZ-JKFIT + DEF2-UNIVERSAL-JKFIT

    Orbital Energies [Eh]
    ---------------------

    Doubly Occupied:

       1A    -20.566896     2A     -1.346431     3A     -0.719868
       4A     -0.575829     5A     -0.508429

  @DF-RHF Final Energy:   -76.05945610049218

   => Energetics <=

    Nuclear Repulsion Energy =              9.1017681855680230
    One-Electron Energy =                -122.8875384251806082
    Two-Electron Energy =                  37.7263141391203973
    Total Energy =                        -76.0594561004921843
 Dipole X            :         16.4202788          -16.6525879           -0.2323090
 Dipole Y            :        -23.1933813           23.4450195            0.2516382
 Dipole Z            :        -36.2702476           36.9457823            0.6755346
 Magnitude           :                                                    0.7573878
  Basis Set: (AUG-CC-PVTZ AUX)
    Blend: AUG-CC-PVTZ-RI + DEF2-QZVPP-RI
	 Reference Energy          =     -76.0594561004921843 [Eh]
	 Singles Energy            =      -0.0000000000000000 [Eh]
	 Same-Spin Energy          =      -0.0684854488157516 [Eh]
	 Opposite-Spin Energy      =      -0.2159365536568092 [Eh]
	 Correlation Energy        =      -0.2844220024725608 [Eh]
	 Total Energy              =     -76.3438781029647515 [Eh]

	 ================> DF-SCS-MP2 Energies <==================
	-----------------------------------------------------------
	 SCS Same-Spin Scale       =       0.3333333333333333 [-]
	 SCS Opposite-Spin Scale   =       1.2000000000000000 [-]
	 SCS Same-Spin Energy      =      -0.0228284829385839 [Eh]
	 SCS Opposite-Spin Energy  =      -0.2591238643881710 [Eh]
	 SCS Correlation Energy    =      -0.2819523473267549 [Eh]
	 SCS Total Energy          =     -76.3414084478189352 [Eh]
	-----------------------------------------------------------

*** Psi4 exiting successfully. Buy a developer a beer!
