                               Psi4 1.8.2 release

  ==> Input File <==

--------------------------------------------------------------------------
MEMORY 60 GB

molecule dimer {
1 1
Na         0.000000     0.000000     0.000000
O         -1.395183     1.416531     1.115880
H         -1.935421     2.181378     0.930318
H         -0.776281     1.627815     1.829800
O         -1.644028    -1.867254    -0.467300
H         -1.184540    -2.597510    -0.013234
H         -1.955768    -2.260579    -1.228122
O          1.995929     1.382494     0.461430
H          2.261805     2.279725     0.187226
H          2.772848     0.877410     0.253783
O          0.711563    -1.241514     1.652283
H          0.535075    -1.057522     2.588328
H          1.001081    -2.145098     1.605558

units ang
no_reorient
no_com
symmetry c1
}

set {
basis        aug-cc-pVTZ
scf_type     df
}

energy("mp2")
--------------------------------------------------------------------------

    Molecular point group: c1

    Geometry (in Angstrom), charge = 1, multiplicity = 1:

       Center              X                  Y                   Z               Mass
    ------------   -----------------  -----------------  -----------------  -----------------
         NA           0.000000000000     0.000000000000     0.000000000000    22.989769282000
         O           -1.395183000000     1.416531000000     1.115880000000    15.994914619570
         H           -1.935421000000     2.181378000000     0.930318000000     1.007825032230
         H           -0.776281000000     1.627815000000     1.829800000000     1.007825032230
         O           -1.644028000000    -1.867254000000    -0.467300000000    15.994914619570
         H           -1.184540000000    -2.597510000000    -0.013234000000     1.007825032230
         H           -1.955768000000    -2.260579000000    -1.228122000000     1.007825032230
         O            1.995929000000     1.382494000000     0.461430000000    15.994914619570
         H            2.261805000000     2.279725000000     0.187226000000     1.007825032230
         H            2.772848000000     0.877410000000     0.253783000000     1.007825032230
         O            0.711563000000    -1.241514000000     1.652283000000    15.994914619570
         H            0.535075000000    -1.057522000000     2.588328000000     1.007825032230
         H            1.001081000000    -2.145098000000     1.605558000000     1.007825032230

  Charge       = 1
  Multiplicity = 1
  Basis Set: AUG-CC-PVTZ
    Blend: AUG-CC-PVTZ
  Basis Set: (AUG-CC-PVTZ AUX)
    Blend: AUG-CC-PVTZ-JKFIT + DEF2-UNIVERSAL-JKFIT

    Orbital Energies [Eh]
    ---------------------

    Doubly Occupied:

       1A    -40.580037     2A    -20.743201     3A    -20.731091
       4A    -20.724248     5A    -20.717593     6A     -2.902693
       7A     -1.628860     8A     -1.627945     9A     -1.625576
      10A     -1.532241    11A     -1.517200    12A     -1.516452
      13A     -1.510210    14A     -0.901894    15A     -0.886226
      16A     -0.876493    17A     -0.872886    18A     -0.782627
      19A     -0.761173    20A     -0.752949    21A     -0.744365
      22A     -0.693982    23A     -0.678346    24A     -0.673660
      25A     -0.668415

  @DF-RHF Final Energy:  -466.01891632690126

   => Energetics <=

    Nuclear Repulsion Energy =            217.1088382680443942
    One-Electron Energy =               -1072.9547742324841693
    Two-Electron Energy =                 389.8270196375385694
    Total Energy =                       -466.0189163269012624
 Dipole X            :          4.5583874           -3.6565312            0.9018562
 Dipole Y            :          6.4330674           -6.7507159           -0.3176485
 Dipole Z            :        -52.6544417           53.3885444            0.7341027
 Magnitude           :                                                    1.2054675
  Basis Set: (AUG-CC-PVTZ AUX)
    Blend: AUG-CC-PVTZ-RI + DEF2-QZVPP-RI
	 Reference Energy          =    -466.0189163269012624 [Eh]
	 Singles Energy            =      -0.0000000000000000 [Eh]
	 Same-Spin Energy          =      -0.2800106318846915 [Eh]
	 Opposite-Spin Energy      =      -0.8776808792448130 [Eh]
	 Correlation Energy        =      -1.1576915111295045 [Eh]
	 Total Energy              =    -467.1766078380307476 [Eh]

	 ================> DF-SCS-MP2 Energies <==================
	-----------------------------------------------------------
	 SCS Same-Spin Scale       =       0.3333333333333333 [-]
	 SCS Opposite-Spin Scale   =       1.2000000000000000 [-]
	 SCS Same-Spin Energy      =      -0.0933368772948972 [Eh]
	 SCS Opposite-Spin Energy  =      -1.0532170550937756 [Eh]
	 SCS Correlation Energy    =      -1.1465539323886729 [Eh]
	 SCS Total Energy          =    -467.1654702592899184 [Eh]
	-----------------------------------------------------------

*** Psi4 exiting successfully. Buy a developer a beer!
