                               Psi4 1.8.2 release

  ==> Input File <==

--------------------------------------------------------------------------
MEMORY 60 GB

molecule dimer {
0 1
Gh(Na)     0.000000     0.000000     0.000000
Gh(O)      2.286825     0.018738     1.162364
Gh(H)      2.422507    -0.937629     1.320021
Gh(H)      3.154241     0.354742     0.916157
Gh(O)     -1.940000    -0.872605    -1.363045
Gh(H)     -1.549085    -0.576304    -2.160318
Gh(H)     -1.845344    -1.858086    -1.342483
Gh(O)     -0.655173     1.813118     1.423743
Gh(H)     -0.115660     2.337774     1.998990
Gh(H)     -1.523922     1.648894     1.868316
Gh(O)      0.732611    -2.100991    -1.445357
Gh(H)      1.373649    -1.504174    -1.763716
Gh(H)      1.227791    -2.880539    -1.203486
O          0.580925     2.071104    -1.522124
H          1.295984     2.707142    -1.331350
H          0.539691     1.997408    -2.447503
Gh(O)     -0.668604    -1.590147     1.552221
Gh(H)     -1.165794    -0.844968     2.001000
Gh(H)     -1.282074    -2.299719     1.373430

units ang
no_reorient
no_com
symmetry c1
}

set {
basis        aug-cc-pVTZ
scf_type     df
}

energy("mp2")
--------------------------------------------------------------------------

    Molecular point group: c1

    Geometry (in Angstrom), charge = 0, multiplicity = 1:

       Center              X                  Y                   Z               Mass
    ------------   -----------------  -----------------  -----------------  -----------------
      Gh(NA)          0.000000000000     0.000000000000     0.000000000000    22.989769282000
      Gh(O)           2.286825000000     0.018738000000     1.162364000000    15.994914619570
      Gh(H)           2.422507000000    -0.937629000000     1.320021000000     1.007825032230
      Gh(H)           3.154241000000     0.354742000000     0.916157000000     1.007825032230
      Gh(O)          -1.940000000000    -0.872605000000    -1.363045000000    15.994914619570
      Gh(H)          -1.549085000000    -0.576304000000    -2.160318000000     1.007825032230
      Gh(H)          -1.845344000000    -1.858086000000    -1.342483000000     1.007825032230
      Gh(O)          -0.655173000000     1.813118000000     1.423743000000    15.994914619570
      Gh(H)          -0.115660000000     2.337774000000     1.998990000000     1.007825032230
      Gh(H)          -1.523922000000     1.648894000000     1.868316000000     1.007825032230
      Gh(O)           0.732611000000    -2.100991000000    -1.445357000000    15.994914619570
      Gh(H)           1.373649000000    -1.504174000000    -1.763716000000     1.007825032230
      Gh(H)           1.227791000000    -2.880539000000    -1.203486000000     1.007825032230
         O            0.580925000000     2.071104000000    -1.522124000000    15.994914619570
         H            1.295984000000     2.707142000000    -1.331350000000     1.007825032230
         H            0.539691000000     1.997408000000    -2.447503000000     1.007825032230
      Gh(O)          -0.668604000000    -1.590147000000     1.552221000000    15.994914619570
      Gh(H)          -1.165794000000    -0.844968000000     2.001000000000     1.007825032230
      Gh(H)          -1.282074000000    -2.299719000000     1.373430000000     1.007825032230

  Charge       = 0
  Multiplicity = 1
  Basis Set: AUG-CC-PVTZ
    Blend: AUG-CC-PVTZ
  Basis Set: (AUG-CC-PVTZ AUX)
    Blend: AUG-CC-PVTZ-JKFIT + DEF2-UNIVERSAL-JKFIT

    Orbital Energies [Eh]
    ---------------------

    Doubly Occupied:

       1A    -20.565315     2A     -1.355268     3A     -0.723760
       4A     -0.582297     5A     -0.510264

  @DF-RHF Final Energy:   -76.05989182189694

   => Energetics <=

    Nuclear Repulsion Energy =              9.2414362168125361
    One-Electron Energy =                -123.1288449302298318
    Two-Electron Energy =                  37.8275168915203537
    Total Energy =                        -76.0598918218969402
 Dipole X            :        -11.8033888           12.2512362            0.4478474
 Dipole Y            :        -39.8272429           40.2008657            0.3736229
 Dipole Z            :         29.6539287          -30.1521772           -0.4982485
 Magnitude           :                                                    0.7670807
  Basis Set: (AUG-CC-PVTZ AUX)
    Blend: AUG-CC-PVTZ-RI + DEF2-QZVPP-RI
	 Reference Energy          =     -76.0598918218969402 [Eh]
	 Singles Energy            =      -0.0000000000000000 [Eh]
	 Same-Spin Energy          =      -0.0682803760254345 [Eh]
	 Opposite-Spin Energy      =      -0.2153816010296745 [Eh]
	 Correlation Energy        =      -0.2836619770551090 [Eh]
	 Total Energy              =     -76.3435537989520441 [Eh]

	 ================> DF-SCS-MP2 Energies <==================
	-----------------------------------------------------------
	 SCS Same-Spin Scale       =       0.3333333333333333 [-]
	 SCS Opposite-Spin Scale   =       1.2000000000000000 [-]
	 SCS Same-Spin Energy      =      -0.0227601253418115 [Eh]
	 SCS Opposite-Spin Energy  =      -0.2584579212356093 [Eh]
	 SCS Correlation Energy    =      -0.2812180465774208 [Eh]
	 SCS Total Energy          =     -76.3411098684743621 [Eh]
	-----------------------------------------------------------

*** Psi4 exiting successfully. Buy a developer a beer!
