                               Psi4 1.8.2 release

  ==> Input File <==

--------------------------------------------------------------------------
MEMORY 60 GB

molecule dimer {
1 1
Na         0.000000     0.000000     0.000000
Gh(O)     -0.782764     1.574336     1.489851
Gh(H)     -0.365882     2.444567     1.403941
Gh(H)     -1.011175     1.409415     2.372406
Gh(O)     -0.098756     1.868143    -1.484671
Gh(H)      0.699059     2.415994    -1.669660
Gh(H)     -0.606397     1.831447    -2.328393
Gh(O)      1.230954    -0.321593     2.079717
Gh(H)      1.596389    -1.191434     1.961752
Gh(H)      2.015878     0.284373     2.134339
Gh(O)     -1.145709    -1.300220    -1.924777
Gh(H)     -1.877147    -0.797909    -2.151236
Gh(H)     -1.485771    -2.184237    -1.927249
Gh(O)      1.838755    -0.607862    -1.272790
Gh(H)      1.384497    -0.352534    -2.065372
Gh(H)      2.683776    -0.133099    -1.228283

units ang
no_reorient
no_com
symmetry c1
}

set {
basis        aug-cc-pVTZ
scf_type     df
}

energy("mp2")
--------------------------------------------------------------------------

    Molecular point group: c1

    Geometry (in Angstrom), charge = 1, multiplicity = 1:

       Center              X                  Y                   Z               Mass
    ------------   -----------------  -----------------  -----------------  -----------------
         NA           0.000000000000     0.000000000000     0.000000000000    22.989769282000
      Gh(O)          -0.782764000000     1.574336000000     1.489851000000    15.994914619570
      Gh(H)          -0.365882000000     2.444567000000     1.403941000000     1.007825032230
      Gh(H)          -1.011175000000     1.409415000000     2.372406000000     1.007825032230
      Gh(O)          -0.098756000000     1.868143000000    -1.484671000000    15.994914619570
      Gh(H)           0.699059000000     2.415994000000    -1.669660000000     1.007825032230
      Gh(H)          -0.606397000000     1.831447000000    -2.328393000000     1.007825032230
      Gh(O)           1.230954000000    -0.321593000000     2.079717000000    15.994914619570
      Gh(H)           1.596389000000    -1.191434000000     1.961752000000     1.007825032230
      Gh(H)           2.015878000000     0.284373000000     2.134339000000     1.007825032230
      Gh(O)          -1.145709000000    -1.300220000000    -1.924777000000    15.994914619570
      Gh(H)          -1.877147000000    -0.797909000000    -2.151236000000     1.007825032230
      Gh(H)          -1.485771000000    -2.184237000000    -1.927249000000     1.007825032230
      Gh(O)           1.838755000000    -0.607862000000    -1.272790000000    15.994914619570
      Gh(H)           1.384497000000    -0.352534000000    -2.065372000000     1.007825032230
      Gh(H)           2.683776000000    -0.133099000000    -1.228283000000     1.007825032230

  Charge       = 1
  Multiplicity = 1
  Basis Set: AUG-CC-PVTZ
    Blend: AUG-CC-PVTZ
  Basis Set: (AUG-CC-PVTZ AUX)
    Blend: AUG-CC-PVTZ-JKFIT + DEF2-UNIVERSAL-JKFIT

    Orbital Energies [Eh]
    ---------------------

    Doubly Occupied:

       1A    -40.760415     2A     -3.073791     3A     -1.797160
       4A     -1.797136     5A     -1.797100

  @DF-RHF Final Energy:  -161.67609095516843

   => Energetics <=

    Nuclear Repulsion Energy =              0.0000000000000000
    One-Electron Energy =                -224.9009763875212400
    Two-Electron Energy =                  63.2248854323527993
    Total Energy =                       -161.6760909551684335
 Dipole X            :          0.0000456            0.0000000            0.0000456
 Dipole Y            :         -0.0000054            0.0000000           -0.0000054
 Dipole Z            :          0.0000073            0.0000000            0.0000073
 Magnitude           :                                                    0.0000465
  Basis Set: (AUG-CC-PVTZ AUX)
    Blend: AUG-CC-PVTZ-RI + DEF2-QZVPP-RI
	 Reference Energy          =    -161.6760909551684335 [Eh]
	 Singles Energy            =      -0.0000000000000000 [Eh]
	 Same-Spin Energy          =      -0.0059244921484929 [Eh]
	 Opposite-Spin Energy      =      -0.0183390306144606 [Eh]
	 Correlation Energy        =      -0.0242635227629536 [Eh]
	 Total Energy              =    -161.7003544779313984 [Eh]

	 ================> DF-SCS-MP2 Energies <==================
	-----------------------------------------------------------
	 SCS Same-Spin Scale       =       0.3333333333333333 [-]
	 SCS Opposite-Spin Scale   =       1.2000000000000000 [-]
	 SCS Same-Spin Energy      =      -0.0019748307161643 [Eh]
	 SCS Opposite-Spin Energy  =      -0.0220068367373528 [Eh]
	 SCS Correlation Energy    =      -0.0239816674535171 [Eh]
	 SCS Total Energy          =    -161.7000726226219456 [Eh]
	-----------------------------------------------------------

*** Psi4 exiting successfully. Buy a developer a beer!
