                               Psi4 1.9 release

  ==> Input File <==

--------------------------------------------------------------------------
MEMORY 60 GB

molecule dimer {
1 1
Na     0.000000     0.000000     0.000000
--
0 1
O      0.954819     1.660987    -1.074380
H      0.801764     2.636974    -1.072418
H      1.647407     1.475023    -1.768699
O      1.731358    -1.499028    -0.404719
H      1.341958    -2.259563     0.035339
H      1.778928    -1.780792    -1.299789
O      0.649501     0.267862     2.064278
H      1.262818     0.937200     2.368076
H      0.594691    -0.289524     2.874892
O     -1.650746     1.627578     1.227517
H     -0.937475     1.262507     1.773525
H     -2.433155     1.122101     1.300427
O     -1.573423    -0.329419    -1.795216
H     -2.311819     0.249475    -2.145586
H     -1.174989    -0.659191    -2.614392

units ang
no_reorient
no_com
symmetry c1
}

set {
basis        aug-cc-pVTZ
scf_type     df
}

energy("mp2", bsse_type="cp")
--------------------------------------------------------------------------

                               Psi4 1.9 release
    Molecular point group: c1
  Charge       = 0
  Multiplicity = 1
  Basis Set: AUG-CC-PVTZ
    Blend: AUG-CC-PVTZ
  Basis Set: (AUG-CC-PVTZ AUX)
    Blend: AUG-CC-PVTZ-JKFIT + DEF2-UNIVERSAL-JKFIT
  @DF-RHF Final Energy:  -380.27770175074977
    Total Energy =                       -380.2777017507497703
 Dipole X            :         -2.3570184            2.7631575            0.4061391
 Dipole Y            :        -31.8327695           31.2145906           -0.6181789
 Dipole Z            :          0.4758957           -0.7724917           -0.2965960
 Magnitude           :                                                    0.7969086
  Basis Set: (AUG-CC-PVTZ AUX)
    Blend: AUG-CC-PVTZ-RI + DEF2-QZVPP-RI
	 Reference Energy          =    -380.2777017507497703 [Eh]
	 Singles Energy            =      -0.0000000000000000 [Eh]
	 Same-Spin Energy          =      -0.3473702614518956 [Eh]
	 Opposite-Spin Energy      =      -1.0881472680132989 [Eh]
	 Correlation Energy        =      -1.4355175294651945 [Eh]
	 Total Energy              =    -381.7132192802149575 [Eh]
	 SCS Total Energy          =    -381.6992685595163834 [Eh]
                               Psi4 1.9 release
    Molecular point group: c1
  Multiplicity = 1
  Basis Set: AUG-CC-PVTZ
    Blend: AUG-CC-PVTZ
  Basis Set: (AUG-CC-PVTZ AUX)
    Blend: AUG-CC-PVTZ-JKFIT + DEF2-UNIVERSAL-JKFIT
  @DF-RHF Final Energy:  -161.67609384717363
    Total Energy =                       -161.6760938471736324
  Basis Set: (AUG-CC-PVTZ AUX)
	 Singles Energy            =      -0.0000000000000000 [Eh]
	 Same-Spin Energy          =      -0.0071161852575534 [Eh]
	 Opposite-Spin Energy      =      -0.0213234114810883 [Eh]
	 Correlation Energy        =      -0.0284395967386416 [Eh]
	 Total Energy              =    -161.7045334439122826 [Eh]
	 SCS Total Energy          =    -161.7040540027034581 [Eh]
                               Psi4 1.9 release
    Molecular point group: c1

    Geometry (in Bohr), charge = 1, multiplicity = 1:

       Center              X                  Y                   Z               Mass
    ------------   -----------------  -----------------  -----------------  -----------------
         NA           0.000000000000     0.000000000000     0.000000000000    22.989769282000
         O            1.804346409384     3.138810527946    -2.030283954669    15.994914619570
         H            1.515114377252     4.983158659953    -2.026576312011     1.007825032230
         H            3.113148047162     2.787389498751    -3.342356708371     1.007825032230
         O            3.271792445120    -2.832752374393    -0.764808067769    15.994914619570
         H            2.535933091867    -4.269955233218     0.066781031548     1.007825032230
         H            3.361686716908    -3.365209166406    -2.456245230883     1.007825032230
         O            1.227379008211     0.506185819417     3.900920066808    15.994914619570
         H            2.386380166298     1.771051324779     4.475015084270     1.007825032230
         H            1.123803119275    -0.547121066747     5.432758520270     1.007825032230
         O           -3.119457842695     3.075676667820     2.319670944344    15.994914619570
         H           -1.771570999464     2.385792461473     3.351476526653     1.007825032230
         H           -4.597996570788     2.120463575102     2.457450876151     1.007825032230
         O           -2.973338549496    -0.622511690522    -3.392466576040    15.994914619570
         H           -4.368704761630     0.471439425149    -4.054569918617     1.007825032230
         H           -2.220407410426    -1.245690454367    -4.940484864588     1.007825032230

  Charge       = 1
  Multiplicity = 1
  Basis Set: AUG-CC-PVTZ
    Blend: AUG-CC-PVTZ
  Basis Set: (AUG-CC-PVTZ AUX)
    Blend: AUG-CC-PVTZ-JKFIT + DEF2-UNIVERSAL-JKFIT

    Orbital Energies [Eh]
    ---------------------

    Doubly Occupied:

       1A    -40.553559     2A    -20.755033     3A    -20.732250
       4A    -20.724865     5A    -20.724655     6A    -20.685388
       7A     -2.879153     8A     -1.606879     9A     -1.604923
      10A     -1.603440    11A     -1.541117    12A     -1.527266
      13A     -1.496978    14A     -1.491816    15A     -1.479444
      16A     -0.890934    17A     -0.886117    18A     -0.871415
      19A     -0.859993    20A     -0.852103    21A     -0.798373
      22A     -0.763997    23A     -0.753325    24A     -0.745229
      25A     -0.718383    26A     -0.685958    27A     -0.683463
      28A     -0.674170    29A     -0.659149    30A     -0.637813

  @DF-RHF Final Energy:  -542.07807913256534

   => Energetics <=

    Nuclear Repulsion Energy =            309.8172259301475151
    One-Electron Energy =               -1362.0162244131402076
    Two-Electron Energy =                 510.1209193504274140
    Total Energy =                       -542.0780791325653354
 Dipole X            :         -2.2921059            2.7631575            0.4710516
 Dipole Y            :        -31.6359618           31.2145906           -0.4213712
 Dipole Z            :          0.4263322           -0.7724917           -0.3461595
 Magnitude           :                                                    0.7206037
  Basis Set: (AUG-CC-PVTZ AUX)
    Blend: AUG-CC-PVTZ-RI + DEF2-QZVPP-RI
	 Reference Energy          =    -542.0780791325653354 [Eh]
	 Singles Energy            =      -0.0000000000000000 [Eh]
	 Same-Spin Energy          =      -0.3534391684860833 [Eh]
	 Opposite-Spin Energy      =      -1.1031269690389371 [Eh]
	 Correlation Energy        =      -1.4565661375250203 [Eh]
	 Total Energy              =    -543.5346452700903228 [Eh]

	 ================> DF-SCS-MP2 Energies <==================
	-----------------------------------------------------------
	 SCS Same-Spin Scale       =       0.3333333333333333 [-]
	 SCS Opposite-Spin Scale   =       1.2000000000000000 [-]
	 SCS Same-Spin Energy      =      -0.1178130561620278 [Eh]
	 SCS Opposite-Spin Energy  =      -1.3237523628467245 [Eh]
	 SCS Correlation Energy    =      -1.4415654190087523 [Eh]
	 SCS Total Energy          =    -543.5196445515740606 [Eh]
	-----------------------------------------------------------

*** Psi4 exiting successfully. Buy a developer a beer!
