                               Psi4 1.9 release

  ==> Input File <==

--------------------------------------------------------------------------
MEMORY 60 GB

molecule dimer {
1 1
Na     0.000000     0.000000     0.000000
--
0 1
O     -0.326768     2.408225     0.061285
H      0.544784     2.772753    -0.175390
H     -0.732186     2.969370     0.737395
O      0.756241     0.217993     2.191234
H      0.298885    -0.587551     2.571149
H      1.393189     0.622836     2.815605
O      1.186850    -2.317272     0.164521
H      1.872732    -2.329814     0.850027
H      0.683306    -3.146135     0.325061
O      1.885007     0.747789    -1.167856
H      2.689228     0.780065    -0.668381
H      2.068393     0.776155    -2.104132
O     -1.476463     0.638790    -1.711258
H     -0.833314     1.324452    -1.599428
H     -2.279710     1.059435    -1.296832

units ang
no_reorient
no_com
symmetry c1
}

set {
basis        aug-cc-pVTZ
scf_type     df
}

energy("mp2", bsse_type="cp")
--------------------------------------------------------------------------

                               Psi4 1.9 release
    Molecular point group: c1
  Charge       = 0
  Multiplicity = 1
  Basis Set: AUG-CC-PVTZ
    Blend: AUG-CC-PVTZ
  Basis Set: (AUG-CC-PVTZ AUX)
    Blend: AUG-CC-PVTZ-JKFIT + DEF2-UNIVERSAL-JKFIT
  @DF-RHF Final Energy:  -380.27723945609597
    Total Energy =                       -380.2772394560959697
 Dipole X            :        -40.1897411           41.3930203            1.2032791
 Dipole Y            :        -33.1116511           33.6480212            0.5363701
 Dipole Z            :          5.8656567           -4.2358551            1.6298016
 Magnitude           :                                                    2.0956686
  Basis Set: (AUG-CC-PVTZ AUX)
    Blend: AUG-CC-PVTZ-RI + DEF2-QZVPP-RI
	 Reference Energy          =    -380.2772394560959697 [Eh]
	 Singles Energy            =      -0.0000000000000000 [Eh]
	 Same-Spin Energy          =      -0.3472933536272875 [Eh]
	 Opposite-Spin Energy      =      -1.0873873134629324 [Eh]
	 Correlation Energy        =      -1.4346806670902199 [Eh]
	 Total Energy              =    -381.7119201231861894 [Eh]
	 SCS Total Energy          =    -381.6978686834605696 [Eh]
                               Psi4 1.9 release
    Molecular point group: c1
  Multiplicity = 1
  Basis Set: AUG-CC-PVTZ
    Blend: AUG-CC-PVTZ
  Basis Set: (AUG-CC-PVTZ AUX)
    Blend: AUG-CC-PVTZ-JKFIT + DEF2-UNIVERSAL-JKFIT
  @DF-RHF Final Energy:  -161.67609176067378
    Total Energy =                       -161.6760917606737848
  Basis Set: (AUG-CC-PVTZ AUX)
	 Singles Energy            =      -0.0000000000000000 [Eh]
	 Same-Spin Energy          =      -0.0065665277203703 [Eh]
	 Opposite-Spin Energy      =      -0.0199159165302522 [Eh]
	 Correlation Energy        =      -0.0264824442506224 [Eh]
	 Total Energy              =    -161.7025742049244172 [Eh]
	 SCS Total Energy          =    -161.7021797030835444 [Eh]
                               Psi4 1.9 release
    Molecular point group: c1

    Geometry (in Bohr), charge = 1, multiplicity = 1:

       Center              X                  Y                   Z               Mass
    ------------   -----------------  -----------------  -----------------  -----------------
         NA           0.000000000000     0.000000000000     0.000000000000    22.989769282000
         O           -0.617502026564     4.550885698481     0.115811865599    15.994914619570
         H            1.029492557531     5.239743783542    -0.331439065144     1.007825032230
         H           -1.383631012894     5.611296065151     1.393474596282     1.007825032230
         O            1.429088374842     0.411947067267     4.140832136791    15.994914619570
         H            0.564810793007    -1.110310474739     4.858767437745     1.007825032230
         H            2.632745651000     1.176989461076     5.320722327470     1.007825032230
         O            2.242821452000    -4.379009438192     0.310899631886    15.994914619570
         H            3.538950586381    -4.402710383257     1.606318229245     1.007825032230
         H            1.291261199882    -5.945333503717     0.614276264067     1.007825032230
         O            3.562146974571     1.413116409630    -2.206927993973    15.994914619570
         H            5.081904408913     1.474109210055    -1.263057037460     1.007825032230
         H            3.908696289814     1.466720380905    -3.976233211812     1.007825032230
         O           -2.790110704372     1.207138151681    -3.233808949999    15.994914619570
         H           -1.574735236510     2.502851546315    -3.022480877389     1.007825032230
         H           -4.308027545467     2.002041997724    -2.450657310730     1.007825032230

  Charge       = 1
  Multiplicity = 1
  Basis Set: AUG-CC-PVTZ
    Blend: AUG-CC-PVTZ
  Basis Set: (AUG-CC-PVTZ AUX)
    Blend: AUG-CC-PVTZ-JKFIT + DEF2-UNIVERSAL-JKFIT

    Orbital Energies [Eh]
    ---------------------

    Doubly Occupied:

       1A    -40.567859     2A    -20.737730     3A    -20.728106
       4A    -20.727818     5A    -20.720308     6A    -20.701447
       7A     -2.890195     8A     -1.616348     9A     -1.614804
      10A     -1.613691    11A     -1.521006    12A     -1.511585
      13A     -1.505162    14A     -1.495631    15A     -1.484982
      16A     -0.899964    17A     -0.887932    18A     -0.886241
      19A     -0.855700    20A     -0.842455    21A     -0.765598
      22A     -0.757364    23A     -0.747138    24A     -0.739865
      25A     -0.716383    26A     -0.684853    27A     -0.679825
      28A     -0.671964    29A     -0.660224    30A     -0.650173

  @DF-RHF Final Energy:  -542.07867832436011

   => Energetics <=

    Nuclear Repulsion Energy =            307.0932407081854194
    One-Electron Energy =               -1356.5791212166625428
    Two-Electron Energy =                 507.4072021841169544
    Total Energy =                       -542.0786783243601121
 Dipole X            :        -39.9570279           41.3930203            1.4359923
 Dipole Y            :        -32.8797297           33.6480212            0.7682915
 Dipole Z            :          5.8939603           -4.2358551            1.6581052
 Magnitude           :                                                    2.3241469
  Basis Set: (AUG-CC-PVTZ AUX)
    Blend: AUG-CC-PVTZ-RI + DEF2-QZVPP-RI
	 Reference Energy          =    -542.0786783243601121 [Eh]
	 Singles Energy            =      -0.0000000000000000 [Eh]
	 Same-Spin Energy          =      -0.3529085811766897 [Eh]
	 Opposite-Spin Energy      =      -1.1017296787553608 [Eh]
	 Correlation Energy        =      -1.4546382599320504 [Eh]
	 Total Energy              =    -543.5333165842921517 [Eh]

	 ================> DF-SCS-MP2 Energies <==================
	-----------------------------------------------------------
	 SCS Same-Spin Scale       =       0.3333333333333333 [-]
	 SCS Opposite-Spin Scale   =       1.2000000000000000 [-]
	 SCS Same-Spin Energy      =      -0.1176361937255632 [Eh]
	 SCS Opposite-Spin Energy  =      -1.3220756145064330 [Eh]
	 SCS Correlation Energy    =      -1.4397118082319962 [Eh]
	 SCS Total Energy          =    -543.5183901325921170 [Eh]
	-----------------------------------------------------------

*** Psi4 exiting successfully. Buy a developer a beer!
