                               Psi4 1.8.2 release

  ==> Input File <==

--------------------------------------------------------------------------
MEMORY 60 GB

molecule dimer {
0 1
Gh(Na)     0.000000     0.000000     0.000000
Gh(O)     -0.176977     1.686618    -2.008264
Gh(H)     -0.632707     2.516626    -2.104365
Gh(H)      0.159539     1.416134    -2.919306
Gh(O)      1.634007    -0.997109    -1.357904
Gh(H)      1.486035    -0.968361    -2.307521
Gh(H)      1.460201    -1.819247    -0.910788
Gh(O)      1.120484    -0.081834     2.153587
Gh(H)      1.506776     0.791182     2.044304
Gh(H)      0.522102    -0.043865     2.978173
O         -1.063075    -1.858798     0.142341
H         -1.368323    -2.410910     0.865620
H         -1.298628    -2.180823    -0.693113
Gh(O)     -0.084576     2.215043     0.683941
Gh(H)     -0.140511     2.320130     1.634745
Gh(H)      0.316926     3.119409     0.463861

units ang
no_reorient
no_com
symmetry c1
}

set {
basis        aug-cc-pVTZ
scf_type     df
}

energy("mp2")
--------------------------------------------------------------------------

    Molecular point group: c1

    Geometry (in Angstrom), charge = 0, multiplicity = 1:

       Center              X                  Y                   Z               Mass
    ------------   -----------------  -----------------  -----------------  -----------------
      Gh(NA)          0.000000000000     0.000000000000     0.000000000000    22.989769282000
      Gh(O)          -0.176977000000     1.686618000000    -2.008264000000    15.994914619570
      Gh(H)          -0.632707000000     2.516626000000    -2.104365000000     1.007825032230
      Gh(H)           0.159539000000     1.416134000000    -2.919306000000     1.007825032230
      Gh(O)           1.634007000000    -0.997109000000    -1.357904000000    15.994914619570
      Gh(H)           1.486035000000    -0.968361000000    -2.307521000000     1.007825032230
      Gh(H)           1.460201000000    -1.819247000000    -0.910788000000     1.007825032230
      Gh(O)           1.120484000000    -0.081834000000     2.153587000000    15.994914619570
      Gh(H)           1.506776000000     0.791182000000     2.044304000000     1.007825032230
      Gh(H)           0.522102000000    -0.043865000000     2.978173000000     1.007825032230
         O           -1.063075000000    -1.858798000000     0.142341000000    15.994914619570
         H           -1.368323000000    -2.410910000000     0.865620000000     1.007825032230
         H           -1.298628000000    -2.180823000000    -0.693113000000     1.007825032230
      Gh(O)          -0.084576000000     2.215043000000     0.683941000000    15.994914619570
      Gh(H)          -0.140511000000     2.320130000000     1.634745000000     1.007825032230
      Gh(H)           0.316926000000     3.119409000000     0.463861000000     1.007825032230

  Charge       = 0
  Multiplicity = 1
  Basis Set: AUG-CC-PVTZ
    Blend: AUG-CC-PVTZ
  Basis Set: (AUG-CC-PVTZ AUX)
    Blend: AUG-CC-PVTZ-JKFIT + DEF2-UNIVERSAL-JKFIT

    Orbital Energies [Eh]
    ---------------------

    Doubly Occupied:

       1A    -20.560284     2A     -1.354978     3A     -0.742725
       4A     -0.570046     5A     -0.508908

  @DF-RHF Final Energy:   -76.05934526174248

   => Energetics <=

    Nuclear Repulsion Energy =              9.3189887139680554
    One-Electron Energy =                -123.2827838224102095
    Two-Electron Energy =                  37.9044498466996700
    Total Energy =                        -76.0593452617424930
 Dipole X            :         20.7376820          -21.1111718           -0.3734897
 Dipole Y            :         36.1746820          -36.7780710           -0.6033890
 Dipole Z            :         -2.5596078            2.4778750           -0.0817328
 Magnitude           :                                                    0.7143200
  Basis Set: (AUG-CC-PVTZ AUX)
    Blend: AUG-CC-PVTZ-RI + DEF2-QZVPP-RI
	 Reference Energy          =     -76.0593452617424788 [Eh]
	 Singles Energy            =      -0.0000000000000000 [Eh]
	 Same-Spin Energy          =      -0.0680891056470566 [Eh]
	 Opposite-Spin Energy      =      -0.2148148377722564 [Eh]
	 Correlation Energy        =      -0.2829039434193130 [Eh]
	 Total Energy              =     -76.3422492051617922 [Eh]

	 ================> DF-SCS-MP2 Energies <==================
	-----------------------------------------------------------
	 SCS Same-Spin Scale       =       0.3333333333333333 [-]
	 SCS Opposite-Spin Scale   =       1.2000000000000000 [-]
	 SCS Same-Spin Energy      =      -0.0226963685490189 [Eh]
	 SCS Opposite-Spin Energy  =      -0.2577778053267077 [Eh]
	 SCS Correlation Energy    =      -0.2804741738757266 [Eh]
	 SCS Total Energy          =     -76.3398194356182103 [Eh]
	-----------------------------------------------------------

*** Psi4 exiting successfully. Buy a developer a beer!
