                               Psi4 1.8.2 release

  ==> Input File <==

--------------------------------------------------------------------------
MEMORY 60 GB

molecule dimer {
0 1
Gh(Na)     0.000000     0.000000     0.000000
Gh(O)      1.626028     1.034922     1.580623
Gh(H)      1.378579     0.724001     2.502033
Gh(H)      2.064630     1.955065     1.635979
Gh(O)     -1.372352    -2.180406    -0.667887
Gh(H)     -1.156517    -2.493550     0.245784
Gh(H)     -1.510414    -2.963832    -1.183852
Gh(O)     -1.339998     1.807402     0.199177
Gh(H)     -1.582903     2.201952    -0.688290
Gh(H)     -1.288117     2.504336     0.887083
O         -1.123329    -0.697031     2.020695
H         -0.556554    -0.315841     2.727097
H         -1.512463    -1.540032     2.286606
Gh(O)     -0.325095     0.344770    -2.289885
Gh(H)     -0.904628    -0.206831    -2.834921
Gh(H)      0.583007     0.391315    -2.704986

units ang
no_reorient
no_com
symmetry c1
}

set {
basis        aug-cc-pVTZ
scf_type     df
}

energy("mp2")
--------------------------------------------------------------------------

    Molecular point group: c1

    Geometry (in Angstrom), charge = 0, multiplicity = 1:

       Center              X                  Y                   Z               Mass
    ------------   -----------------  -----------------  -----------------  -----------------
      Gh(NA)          0.000000000000     0.000000000000     0.000000000000    22.989769282000
      Gh(O)           1.626028000000     1.034922000000     1.580623000000    15.994914619570
      Gh(H)           1.378579000000     0.724001000000     2.502033000000     1.007825032230
      Gh(H)           2.064630000000     1.955065000000     1.635979000000     1.007825032230
      Gh(O)          -1.372352000000    -2.180406000000    -0.667887000000    15.994914619570
      Gh(H)          -1.156517000000    -2.493550000000     0.245784000000     1.007825032230
      Gh(H)          -1.510414000000    -2.963832000000    -1.183852000000     1.007825032230
      Gh(O)          -1.339998000000     1.807402000000     0.199177000000    15.994914619570
      Gh(H)          -1.582903000000     2.201952000000    -0.688290000000     1.007825032230
      Gh(H)          -1.288117000000     2.504336000000     0.887083000000     1.007825032230
         O           -1.123329000000    -0.697031000000     2.020695000000    15.994914619570
         H           -0.556554000000    -0.315841000000     2.727097000000     1.007825032230
         H           -1.512463000000    -1.540032000000     2.286606000000     1.007825032230
      Gh(O)          -0.325095000000     0.344770000000    -2.289885000000    15.994914619570
      Gh(H)          -0.904628000000    -0.206831000000    -2.834921000000     1.007825032230
      Gh(H)           0.583007000000     0.391315000000    -2.704986000000     1.007825032230

  Charge       = 0
  Multiplicity = 1
  Basis Set: AUG-CC-PVTZ
    Blend: AUG-CC-PVTZ
  Basis Set: (AUG-CC-PVTZ AUX)
    Blend: AUG-CC-PVTZ-JKFIT + DEF2-UNIVERSAL-JKFIT

    Orbital Energies [Eh]
    ---------------------

    Doubly Occupied:

       1A    -20.566422     2A     -1.339952     3A     -0.721680
       4A     -0.567392     5A     -0.506612

  @DF-RHF Final Energy:   -76.05781798147775

   => Energetics <=

    Nuclear Repulsion Energy =              9.0193611742687700
    One-Electron Energy =                -122.7502405661840470
    Two-Electron Energy =                  37.6730614104375192
    Total Energy =                        -76.0578179814777684
 Dipole X            :         21.0102909          -20.8921487            0.1181421
 Dipole Y            :         13.7321501          -14.0446732           -0.3125231
 Dipole Z            :        -39.3689176           40.0230066            0.6540890
 Magnitude           :                                                    0.7344799
  Basis Set: (AUG-CC-PVTZ AUX)
    Blend: AUG-CC-PVTZ-RI + DEF2-QZVPP-RI
	 Reference Energy          =     -76.0578179814777542 [Eh]
	 Singles Energy            =      -0.0000000000000000 [Eh]
	 Same-Spin Energy          =      -0.0686337571484515 [Eh]
	 Opposite-Spin Energy      =      -0.2164859970702870 [Eh]
	 Correlation Energy        =      -0.2851197542187385 [Eh]
	 Total Energy              =     -76.3429377356964949 [Eh]

	 ================> DF-SCS-MP2 Energies <==================
	-----------------------------------------------------------
	 SCS Same-Spin Scale       =       0.3333333333333333 [-]
	 SCS Opposite-Spin Scale   =       1.2000000000000000 [-]
	 SCS Same-Spin Energy      =      -0.0228779190494838 [Eh]
	 SCS Opposite-Spin Energy  =      -0.2597831964843443 [Eh]
	 SCS Correlation Energy    =      -0.2826611155338282 [Eh]
	 SCS Total Energy          =     -76.3404790970115812 [Eh]
	-----------------------------------------------------------

*** Psi4 exiting successfully. Buy a developer a beer!
