                               Psi4 1.8.2 release

  ==> Input File <==

--------------------------------------------------------------------------
MEMORY 60 GB

molecule dimer {
1 1
Na         0.000000     0.000000     0.000000
O          1.692917     1.592615     0.480622
H          2.586663     1.486171     0.100037
H          1.727856     2.356221     1.061969
O         -1.389429    -1.947879    -0.873259
H         -0.995256    -2.536833    -1.500073
H         -2.243648    -1.766646    -1.123488
O          2.076813    -1.377446     0.020620
H          2.625603    -2.126282    -0.266841
H          2.516735    -1.045054     0.792393
O         -0.594482     1.641239    -1.699071
H          0.125257     2.036144    -2.302619
H         -1.490431     1.945166    -1.907436
O         -1.394789     1.438669     1.679367
H         -2.318786     1.491294     1.965205
H         -1.357392     2.233936     1.154702

units ang
no_reorient
no_com
symmetry c1
}

set {
basis        aug-cc-pVTZ
scf_type     df
}

energy("mp2")
--------------------------------------------------------------------------

    Molecular point group: c1

    Geometry (in Angstrom), charge = 1, multiplicity = 1:

       Center              X                  Y                   Z               Mass
    ------------   -----------------  -----------------  -----------------  -----------------
         NA           0.000000000000     0.000000000000     0.000000000000    22.989769282000
         O            1.692917000000     1.592615000000     0.480622000000    15.994914619570
         H            2.586663000000     1.486171000000     0.100037000000     1.007825032230
         H            1.727856000000     2.356221000000     1.061969000000     1.007825032230
         O           -1.389429000000    -1.947879000000    -0.873259000000    15.994914619570
         H           -0.995256000000    -2.536833000000    -1.500073000000     1.007825032230
         H           -2.243648000000    -1.766646000000    -1.123488000000     1.007825032230
         O            2.076813000000    -1.377446000000     0.020620000000    15.994914619570
         H            2.625603000000    -2.126282000000    -0.266841000000     1.007825032230
         H            2.516735000000    -1.045054000000     0.792393000000     1.007825032230
         O           -0.594482000000     1.641239000000    -1.699071000000    15.994914619570
         H            0.125257000000     2.036144000000    -2.302619000000     1.007825032230
         H           -1.490431000000     1.945166000000    -1.907436000000     1.007825032230
         O           -1.394789000000     1.438669000000     1.679367000000    15.994914619570
         H           -2.318786000000     1.491294000000     1.965205000000     1.007825032230
         H           -1.357392000000     2.233936000000     1.154702000000     1.007825032230

  Charge       = 1
  Multiplicity = 1
  Basis Set: AUG-CC-PVTZ
    Blend: AUG-CC-PVTZ
  Basis Set: (AUG-CC-PVTZ AUX)
    Blend: AUG-CC-PVTZ-JKFIT + DEF2-UNIVERSAL-JKFIT

    Orbital Energies [Eh]
    ---------------------

    Doubly Occupied:

       1A    -40.564146     2A    -20.722236     3A    -20.721400
       4A    -20.715843     5A    -20.712050     6A    -20.702188
       7A     -2.883533     8A     -1.608007     9A     -1.607799
      10A     -1.607198    11A     -1.509905    12A     -1.505388
      13A     -1.501448    14A     -1.499213    15A     -1.485886
      16A     -0.887234    17A     -0.876249    18A     -0.868870
      19A     -0.863264    20A     -0.847127    21A     -0.755561
      22A     -0.744631    23A     -0.741562    24A     -0.732951
      25A     -0.726271    26A     -0.672019    27A     -0.662721
      28A     -0.660368    29A     -0.658117    30A     -0.654604

  @DF-RHF Final Energy:  -542.09301635218503

   => Energetics <=

    Nuclear Repulsion Energy =            293.4414381273729191
    One-Electron Energy =               -1329.6733231685736882
    Two-Electron Energy =                 494.1388686890156805
    Total Energy =                       -542.0930163521850318
 Dipole X            :         -7.8006902            8.1349705            0.3342803
 Dipole Y            :        -27.0337663           28.0656474            1.0318810
 Dipole Z            :          8.8358792           -9.7508337           -0.9149546
 Magnitude           :                                                    1.4190362
  Basis Set: (AUG-CC-PVTZ AUX)
    Blend: AUG-CC-PVTZ-RI + DEF2-QZVPP-RI
	 Reference Energy          =    -542.0930163521850318 [Eh]
	 Singles Energy            =      -0.0000000000000000 [Eh]
	 Same-Spin Energy          =      -0.3494668914189293 [Eh]
	 Opposite-Spin Energy      =      -1.0950124552464624 [Eh]
	 Correlation Energy        =      -1.4444793466653918 [Eh]
	 Total Energy              =    -543.5374956988504209 [Eh]

	 ================> DF-SCS-MP2 Energies <==================
	-----------------------------------------------------------
	 SCS Same-Spin Scale       =       0.3333333333333333 [-]
	 SCS Opposite-Spin Scale   =       1.2000000000000000 [-]
	 SCS Same-Spin Energy      =      -0.1164889638063098 [Eh]
	 SCS Opposite-Spin Energy  =      -1.3140149462957549 [Eh]
	 SCS Correlation Energy    =      -1.4305039101020647 [Eh]
	 SCS Total Energy          =    -543.5235202622870929 [Eh]
	-----------------------------------------------------------

*** Psi4 exiting successfully. Buy a developer a beer!
