                               Psi4 1.8.2 release

  ==> Input File <==

--------------------------------------------------------------------------
MEMORY 60 GB

molecule dimer {
1 1
Na         0.000000     0.000000     0.000000
O          1.883305    -0.787728     1.103306
H          1.885842    -1.374752     1.892927
H          2.452066    -1.205300     0.437928
O         -0.532091    -2.130325    -0.632144
H         -0.199576    -2.040712    -1.524978
H          0.239557    -2.564379    -0.117632
O         -2.191649     0.554956    -0.988319
H         -2.198458     1.493372    -1.035750
H         -3.034836     0.267373    -0.638305
O          1.316751     0.763309    -1.800840
H          0.984517     0.646102    -2.716363
H          1.851374     1.546851    -1.595691

units ang
no_reorient
no_com
symmetry c1
}

set {
basis        aug-cc-pVTZ
scf_type     df
}

energy("mp2")
--------------------------------------------------------------------------

    Molecular point group: c1

    Geometry (in Angstrom), charge = 1, multiplicity = 1:

       Center              X                  Y                   Z               Mass
    ------------   -----------------  -----------------  -----------------  -----------------
         NA           0.000000000000     0.000000000000     0.000000000000    22.989769282000
         O            1.883305000000    -0.787728000000     1.103306000000    15.994914619570
         H            1.885842000000    -1.374752000000     1.892927000000     1.007825032230
         H            2.452066000000    -1.205300000000     0.437928000000     1.007825032230
         O           -0.532091000000    -2.130325000000    -0.632144000000    15.994914619570
         H           -0.199576000000    -2.040712000000    -1.524978000000     1.007825032230
         H            0.239557000000    -2.564379000000    -0.117632000000     1.007825032230
         O           -2.191649000000     0.554956000000    -0.988319000000    15.994914619570
         H           -2.198458000000     1.493372000000    -1.035750000000     1.007825032230
         H           -3.034836000000     0.267373000000    -0.638305000000     1.007825032230
         O            1.316751000000     0.763309000000    -1.800840000000    15.994914619570
         H            0.984517000000     0.646102000000    -2.716363000000     1.007825032230
         H            1.851374000000     1.546851000000    -1.595691000000     1.007825032230

  Charge       = 1
  Multiplicity = 1
  Basis Set: AUG-CC-PVTZ
    Blend: AUG-CC-PVTZ
  Basis Set: (AUG-CC-PVTZ AUX)
    Blend: AUG-CC-PVTZ-JKFIT + DEF2-UNIVERSAL-JKFIT

    Orbital Energies [Eh]
    ---------------------

    Doubly Occupied:

       1A    -40.585342     2A    -20.747668     3A    -20.739854
       4A    -20.736178     5A    -20.723267     6A     -2.908339
       7A     -1.634038     8A     -1.632776     9A     -1.632075
      10A     -1.524459    11A     -1.516872    12A     -1.514519
      13A     -1.506522    14A     -0.909624    15A     -0.891995
      16A     -0.889483    17A     -0.867031    18A     -0.770471
      19A     -0.755899    20A     -0.747488    21A     -0.740484
      22A     -0.698753    23A     -0.686925    24A     -0.677889
      25A     -0.674312

  @DF-RHF Final Energy:  -466.00499132019297

   => Energetics <=

    Nuclear Repulsion Energy =            218.0624774637244627
    One-Electron Energy =               -1074.7104049236018000
    Two-Electron Energy =                 390.6429361396843660
    Total Energy =                       -466.0049913201929712
 Dipole X            :        -10.1962736           10.9434304            0.7471568
 Dipole Y            :         30.1935645          -30.2918355           -0.0982710
 Dipole Z            :         44.3766304          -45.0545479           -0.6779176
 Magnitude           :                                                    1.0136433
  Basis Set: (AUG-CC-PVTZ AUX)
    Blend: AUG-CC-PVTZ-RI + DEF2-QZVPP-RI
	 Reference Energy          =    -466.0049913201929712 [Eh]
	 Singles Energy            =      -0.0000000000000000 [Eh]
	 Same-Spin Energy          =      -0.2810396824483621 [Eh]
	 Opposite-Spin Energy      =      -0.8803213732628246 [Eh]
	 Correlation Energy        =      -1.1613610557111866 [Eh]
	 Total Energy              =    -467.1663523759041823 [Eh]

	 ================> DF-SCS-MP2 Energies <==================
	-----------------------------------------------------------
	 SCS Same-Spin Scale       =       0.3333333333333333 [-]
	 SCS Opposite-Spin Scale   =       1.2000000000000000 [-]
	 SCS Same-Spin Energy      =      -0.0936798941494540 [Eh]
	 SCS Opposite-Spin Energy  =      -1.0563856479153895 [Eh]
	 SCS Correlation Energy    =      -1.1500655420648436 [Eh]
	 SCS Total Energy          =    -467.1550568622578226 [Eh]
	-----------------------------------------------------------

*** Psi4 exiting successfully. Buy a developer a beer!
