                               Psi4 1.8.2 release

  ==> Input File <==

--------------------------------------------------------------------------
MEMORY 60 GB

molecule dimer {
1 1
Na         0.000000     0.000000     0.000000
O         -1.116986    -1.262600     1.452823
H         -1.933314    -0.949816     1.831289
H         -1.388892    -2.089831     1.067611
O         -2.064765    -0.369848    -1.354204
H         -2.208321     0.074992    -2.228213
H         -2.865148    -0.793867    -1.087041
O         -0.752363     1.854057     1.354572
H         -1.096528     1.642435     2.231559
H         -1.447594     2.380144     0.877744
O          2.350808     0.315241     0.892599
H          3.010726     0.173134     0.141394
H          2.495966     1.172138     1.167830
O          1.084462     1.438589    -1.573635
H          1.544269     0.800080    -2.144693
H          1.595583     2.266747    -1.520243

units ang
no_reorient
no_com
symmetry c1
}

set {
basis        aug-cc-pVTZ
scf_type     df
}

energy("mp2")
--------------------------------------------------------------------------

    Molecular point group: c1

    Geometry (in Angstrom), charge = 1, multiplicity = 1:

       Center              X                  Y                   Z               Mass
    ------------   -----------------  -----------------  -----------------  -----------------
         NA           0.000000000000     0.000000000000     0.000000000000    22.989769282000
         O           -1.116986000000    -1.262600000000     1.452823000000    15.994914619570
         H           -1.933314000000    -0.949816000000     1.831289000000     1.007825032230
         H           -1.388892000000    -2.089831000000     1.067611000000     1.007825032230
         O           -2.064765000000    -0.369848000000    -1.354204000000    15.994914619570
         H           -2.208321000000     0.074992000000    -2.228213000000     1.007825032230
         H           -2.865148000000    -0.793867000000    -1.087041000000     1.007825032230
         O           -0.752363000000     1.854057000000     1.354572000000    15.994914619570
         H           -1.096528000000     1.642435000000     2.231559000000     1.007825032230
         H           -1.447594000000     2.380144000000     0.877744000000     1.007825032230
         O            2.350808000000     0.315241000000     0.892599000000    15.994914619570
         H            3.010726000000     0.173134000000     0.141394000000     1.007825032230
         H            2.495966000000     1.172138000000     1.167830000000     1.007825032230
         O            1.084462000000     1.438589000000    -1.573635000000    15.994914619570
         H            1.544269000000     0.800080000000    -2.144693000000     1.007825032230
         H            1.595583000000     2.266747000000    -1.520243000000     1.007825032230

  Charge       = 1
  Multiplicity = 1
  Basis Set: AUG-CC-PVTZ
    Blend: AUG-CC-PVTZ
  Basis Set: (AUG-CC-PVTZ AUX)
    Blend: AUG-CC-PVTZ-JKFIT + DEF2-UNIVERSAL-JKFIT

    Orbital Energies [Eh]
    ---------------------

    Doubly Occupied:

       1A    -40.553383     2A    -20.725306     3A    -20.725065
       4A    -20.723704     5A    -20.717582     6A    -20.703462
       7A     -2.875846     8A     -1.602111     9A     -1.600725
      10A     -1.599214    11A     -1.520824    12A     -1.504707
      13A     -1.503805    14A     -1.492493    15A     -1.491448
      16A     -0.880912    17A     -0.879283    18A     -0.877466
      19A     -0.860492    20A     -0.855071    21A     -0.765973
      22A     -0.748418    23A     -0.742076    24A     -0.731756
      25A     -0.726400    26A     -0.682289    27A     -0.679374
      28A     -0.669333    29A     -0.659925    30A     -0.642178

  @DF-RHF Final Energy:  -542.08261795955218

   => Energetics <=

    Nuclear Repulsion Energy =            303.1879503497696078
    One-Electron Energy =               -1349.0598872273453708
    Two-Electron Energy =                 503.7893189180235822
    Total Energy =                       -542.0826179595521808
 Dipole X            :         10.9133465          -11.8750484           -0.9617019
 Dipole Y            :        -38.0130403           38.7009637            0.6879234
 Dipole Z            :        -13.0660742           12.3105774           -0.7554968
 Magnitude           :                                                    1.4031694
  Basis Set: (AUG-CC-PVTZ AUX)
    Blend: AUG-CC-PVTZ-RI + DEF2-QZVPP-RI
	 Reference Energy          =    -542.0826179595521808 [Eh]
	 Singles Energy            =      -0.0000000000000000 [Eh]
	 Same-Spin Energy          =      -0.3509544003603301 [Eh]
	 Opposite-Spin Energy      =      -1.0987021324595616 [Eh]
	 Correlation Energy        =      -1.4496565328198918 [Eh]
	 Total Energy              =    -543.5322744923720393 [Eh]

	 ================> DF-SCS-MP2 Energies <==================
	-----------------------------------------------------------
	 SCS Same-Spin Scale       =       0.3333333333333333 [-]
	 SCS Opposite-Spin Scale   =       1.2000000000000000 [-]
	 SCS Same-Spin Energy      =      -0.1169848001201100 [Eh]
	 SCS Opposite-Spin Energy  =      -1.3184425589514739 [Eh]
	 SCS Correlation Energy    =      -1.4354273590715838 [Eh]
	 SCS Total Energy          =    -543.5180453186237628 [Eh]
	-----------------------------------------------------------

*** Psi4 exiting successfully. Buy a developer a beer!
