                               Psi4 1.9 release

  ==> Input File <==

--------------------------------------------------------------------------
MEMORY 60 GB

molecule dimer {
1 1
Na     0.000000     0.000000     0.000000
--
0 1
O      0.985243     1.361756    -1.542488
H      1.874246     1.350733    -1.934909
H      0.414988     1.260066    -2.324670
O      0.823978     0.878247     2.115655
H      1.298081     1.751934     2.375790
H      0.257828     0.586640     2.820213
O     -0.226418    -1.408438    -1.797917
H     -0.917865    -2.089083    -1.585986
H      0.448556    -1.874981    -2.327105
O     -1.974562     0.901395    -0.277079
H     -2.014013     1.682929     0.320102
H     -2.637138     0.327502     0.068322

units ang
no_reorient
no_com
symmetry c1
}

set {
basis        aug-cc-pVTZ
scf_type     df
}

energy("mp2", bsse_type="cp")
--------------------------------------------------------------------------

                               Psi4 1.9 release
    Molecular point group: c1
  Charge       = 0
  Multiplicity = 1
  Basis Set: AUG-CC-PVTZ
    Blend: AUG-CC-PVTZ
  Basis Set: (AUG-CC-PVTZ AUX)
    Blend: AUG-CC-PVTZ-JKFIT + DEF2-UNIVERSAL-JKFIT
  @DF-RHF Final Energy:  -304.21671366336477
    Total Energy =                       -304.2167136633647715
 Dipole X            :          8.0106131           -8.3325376           -0.3219245
 Dipole Y            :        -32.2008859           31.8596864           -0.3411994
 Dipole Z            :         27.9088337          -27.5954344            0.3133993
 Magnitude           :                                                    0.5641556
  Basis Set: (AUG-CC-PVTZ AUX)
    Blend: AUG-CC-PVTZ-RI + DEF2-QZVPP-RI
	 Reference Energy          =    -304.2167136633647715 [Eh]
	 Singles Energy            =      -0.0000000000000000 [Eh]
	 Same-Spin Energy          =      -0.2770072879065716 [Eh]
	 Opposite-Spin Energy      =      -0.8701776471777214 [Eh]
	 Correlation Energy        =      -1.1471849350842929 [Eh]
	 Total Energy              =    -305.3638985984490546 [Eh]
	 SCS Total Energy          =    -305.3532626026135404 [Eh]
                               Psi4 1.9 release
    Molecular point group: c1
  Multiplicity = 1
  Basis Set: AUG-CC-PVTZ
    Blend: AUG-CC-PVTZ
  Basis Set: (AUG-CC-PVTZ AUX)
    Blend: AUG-CC-PVTZ-JKFIT + DEF2-UNIVERSAL-JKFIT
  @DF-RHF Final Energy:  -161.67608771799769
    Total Energy =                       -161.6760877179976887
  Basis Set: (AUG-CC-PVTZ AUX)
	 Singles Energy            =      -0.0000000000000000 [Eh]
	 Same-Spin Energy          =      -0.0057561300956716 [Eh]
	 Opposite-Spin Energy      =      -0.0178546479134475 [Eh]
	 Correlation Energy        =      -0.0236107780091191 [Eh]
	 Total Energy              =    -161.6996984960068175 [Eh]
	 SCS Total Energy          =    -161.6994320055257219 [Eh]
                               Psi4 1.9 release
    Molecular point group: c1

    Geometry (in Bohr), charge = 1, multiplicity = 1:

       Center              X                  Y                   Z               Mass
    ------------   -----------------  -----------------  -----------------  -----------------
         NA           0.000000000000     0.000000000000     0.000000000000    22.989769282000
         O            1.861839437024     2.573345889699    -2.914879871805    15.994914619570
         H            3.541811631735     2.552515438618    -3.656448087683     1.007825032230
         H            0.784213665351     2.381179640001    -4.392989632068     1.007825032230
         O            1.557092753402     1.659646300505     3.998008525955    15.994914619570
         H            2.453017578660     3.310675449878     4.489592431601     1.007825032230
         H            0.487224307475     1.108588934239     5.329430185456     1.007825032230
         O           -0.427868009874    -2.661562084688    -3.397570726305    15.994914619570
         H           -1.734513470143    -3.947794723350    -2.997079178810     1.007825032230
         H            0.847647991931    -3.543200580437    -4.397591115184     1.007825032230
         O           -3.731381397736     1.703389680857    -0.523603425116    15.994914619570
         H           -3.805932983112     3.180274898591     0.604905112211     1.007825032230
         H           -4.983468575038     0.618889085540     0.129109868344     1.007825032230

  Charge       = 1
  Multiplicity = 1
  Basis Set: AUG-CC-PVTZ
    Blend: AUG-CC-PVTZ
  Basis Set: (AUG-CC-PVTZ AUX)
    Blend: AUG-CC-PVTZ-JKFIT + DEF2-UNIVERSAL-JKFIT

    Orbital Energies [Eh]
    ---------------------

    Doubly Occupied:

       1A    -40.568586     2A    -20.739743     3A    -20.739540
       4A    -20.732394     5A    -20.720058     6A     -2.893495
       7A     -1.619936     8A     -1.618540     9A     -1.617678
      10A     -1.527340    11A     -1.512013    12A     -1.501508
      13A     -1.500804    14A     -0.887726    15A     -0.876862
      16A     -0.876062    17A     -0.858119    18A     -0.773264
      19A     -0.758986    20A     -0.751770    21A     -0.743235
      22A     -0.693899    23A     -0.683899    24A     -0.673379
      25A     -0.666486

  @DF-RHF Final Energy:  -466.01027045934870

   => Energetics <=

    Nuclear Repulsion Energy =            219.6595905675975189
    One-Electron Energy =               -1078.2690740186060339
    Two-Electron Energy =                 392.5992129916597833
    Total Energy =                       -466.0102704593487033
 Dipole X            :          7.9547407           -8.3325376           -0.3777969
 Dipole Y            :        -31.9990073           31.8596864           -0.1393208
 Dipole Z            :         27.7195544          -27.5954344            0.1241200
 Magnitude           :                                                    0.4213628
  Basis Set: (AUG-CC-PVTZ AUX)
    Blend: AUG-CC-PVTZ-RI + DEF2-QZVPP-RI
	 Reference Energy          =    -466.0102704593487033 [Eh]
	 Singles Energy            =      -0.0000000000000000 [Eh]
	 Same-Spin Energy          =      -0.2816301304372454 [Eh]
	 Opposite-Spin Energy      =      -0.8820538499899621 [Eh]
	 Correlation Energy        =      -1.1636839804272074 [Eh]
	 Total Energy              =    -467.1739544397759119 [Eh]

	 ================> DF-SCS-MP2 Energies <==================
	-----------------------------------------------------------
	 SCS Same-Spin Scale       =       0.3333333333333333 [-]
	 SCS Opposite-Spin Scale   =       1.2000000000000000 [-]
	 SCS Same-Spin Energy      =      -0.0938767101457485 [Eh]
	 SCS Opposite-Spin Energy  =      -1.0584646199879544 [Eh]
	 SCS Correlation Energy    =      -1.1523413301337029 [Eh]
	 SCS Total Energy          =    -467.1626117894824120 [Eh]
	-----------------------------------------------------------

*** Psi4 exiting successfully. Buy a developer a beer!
