                               Psi4 1.8.2 release

  ==> Input File <==

--------------------------------------------------------------------------
MEMORY 60 GB

molecule dimer {
0 1
Gh(Na)     0.000000     0.000000     0.000000
Gh(O)     -1.982434     0.371909     1.103721
Gh(H)     -1.999968    -0.133509     1.915544
Gh(H)     -2.677161    -0.029523     0.520499
Gh(O)     -0.506861     1.576105    -1.534582
Gh(H)     -1.312414     2.123471    -1.457035
Gh(H)      0.255777     2.156557    -1.829559
Gh(O)      1.680895    -0.267523    -1.814314
Gh(H)      1.826160     0.587119    -2.126473
Gh(H)      2.577908    -0.601219    -1.659205
O          1.269075    -0.963815     1.515438
H          1.588209    -1.762903     1.072335
H          1.939449    -0.207875     1.425336

units ang
no_reorient
no_com
symmetry c1
}

set {
basis        aug-cc-pVTZ
scf_type     df
}

energy("mp2")
--------------------------------------------------------------------------

    Molecular point group: c1

    Geometry (in Angstrom), charge = 0, multiplicity = 1:

       Center              X                  Y                   Z               Mass
    ------------   -----------------  -----------------  -----------------  -----------------
      Gh(NA)          0.000000000000     0.000000000000     0.000000000000    22.989769282000
      Gh(O)          -1.982434000000     0.371909000000     1.103721000000    15.994914619570
      Gh(H)          -1.999968000000    -0.133509000000     1.915544000000     1.007825032230
      Gh(H)          -2.677161000000    -0.029523000000     0.520499000000     1.007825032230
      Gh(O)          -0.506861000000     1.576105000000    -1.534582000000    15.994914619570
      Gh(H)          -1.312414000000     2.123471000000    -1.457035000000     1.007825032230
      Gh(H)           0.255777000000     2.156557000000    -1.829559000000     1.007825032230
      Gh(O)           1.680895000000    -0.267523000000    -1.814314000000    15.994914619570
      Gh(H)           1.826160000000     0.587119000000    -2.126473000000     1.007825032230
      Gh(H)           2.577908000000    -0.601219000000    -1.659205000000     1.007825032230
         O            1.269075000000    -0.963815000000     1.515438000000    15.994914619570
         H            1.588209000000    -1.762903000000     1.072335000000     1.007825032230
         H            1.939449000000    -0.207875000000     1.425336000000     1.007825032230

  Charge       = 0
  Multiplicity = 1
  Basis Set: AUG-CC-PVTZ
    Blend: AUG-CC-PVTZ
  Basis Set: (AUG-CC-PVTZ AUX)
    Blend: AUG-CC-PVTZ-JKFIT + DEF2-UNIVERSAL-JKFIT

    Orbital Energies [Eh]
    ---------------------

    Doubly Occupied:

       1A    -20.569597     2A     -1.332977     3A     -0.710764
       4A     -0.566033     5A     -0.505627

  @DF-RHF Final Energy:   -76.05453543513741

   => Energetics <=

    Nuclear Repulsion Energy =              8.8715516895296602
    One-Electron Energy =                -122.4821767243423949
    Two-Electron Energy =                  37.5560895996753175
    Total Energy =                        -76.0545354351374101
 Dipole X            :        -25.1960981           25.8519409            0.6558429
 Dipole Y            :         18.2602401          -18.2950018           -0.0347616
 Dipole Z            :        -27.9852907           27.6300164           -0.3552743
 Magnitude           :                                                    0.7466981
  Basis Set: (AUG-CC-PVTZ AUX)
    Blend: AUG-CC-PVTZ-RI + DEF2-QZVPP-RI
	 Reference Energy          =     -76.0545354351374101 [Eh]
	 Singles Energy            =      -0.0000000000000000 [Eh]
	 Same-Spin Energy          =      -0.0689228172784840 [Eh]
	 Opposite-Spin Energy      =      -0.2174585286176176 [Eh]
	 Correlation Energy        =      -0.2863813458961015 [Eh]
	 Total Energy              =     -76.3409167810335134 [Eh]

	 ================> DF-SCS-MP2 Energies <==================
	-----------------------------------------------------------
	 SCS Same-Spin Scale       =       0.3333333333333333 [-]
	 SCS Opposite-Spin Scale   =       1.2000000000000000 [-]
	 SCS Same-Spin Energy      =      -0.0229742724261613 [Eh]
	 SCS Opposite-Spin Energy  =      -0.2609502343411411 [Eh]
	 SCS Correlation Energy    =      -0.2839245067673024 [Eh]
	 SCS Total Energy          =     -76.3384599419047163 [Eh]
	-----------------------------------------------------------

*** Psi4 exiting successfully. Buy a developer a beer!
