                               Psi4 1.8.2 release

  ==> Input File <==

--------------------------------------------------------------------------
MEMORY 60 GB

molecule dimer {
1 1
Na         0.000000     0.000000     0.000000
O          1.295992    -1.038055    -1.666929
H          1.199472    -0.914486    -2.588127
H          2.215709    -0.827473    -1.487559
O          0.945093    -1.880558     0.968601
H          1.449261    -2.195584     0.246835
H          0.398653    -2.523314     1.421842
O         -1.899954     0.291284     1.327143
H         -1.989905     1.254936     1.673416
H         -1.881234    -0.239655     2.109490
O          2.210054     0.959882     0.855124
H          2.866527     0.324916     0.526095
H          2.208158     0.741535     1.764241
O         -1.049559     1.773634    -1.401658
H         -0.352216     2.144695    -1.977073
H         -1.638655     1.166318    -1.764810

units ang
no_reorient
no_com
symmetry c1
}

set {
basis        aug-cc-pVTZ
scf_type     df
}

energy("mp2")
--------------------------------------------------------------------------

    Molecular point group: c1

    Geometry (in Angstrom), charge = 1, multiplicity = 1:

       Center              X                  Y                   Z               Mass
    ------------   -----------------  -----------------  -----------------  -----------------
         NA           0.000000000000     0.000000000000     0.000000000000    22.989769282000
         O            1.295992000000    -1.038055000000    -1.666929000000    15.994914619570
         H            1.199472000000    -0.914486000000    -2.588127000000     1.007825032230
         H            2.215709000000    -0.827473000000    -1.487559000000     1.007825032230
         O            0.945093000000    -1.880558000000     0.968601000000    15.994914619570
         H            1.449261000000    -2.195584000000     0.246835000000     1.007825032230
         H            0.398653000000    -2.523314000000     1.421842000000     1.007825032230
         O           -1.899954000000     0.291284000000     1.327143000000    15.994914619570
         H           -1.989905000000     1.254936000000     1.673416000000     1.007825032230
         H           -1.881234000000    -0.239655000000     2.109490000000     1.007825032230
         O            2.210054000000     0.959882000000     0.855124000000    15.994914619570
         H            2.866527000000     0.324916000000     0.526095000000     1.007825032230
         H            2.208158000000     0.741535000000     1.764241000000     1.007825032230
         O           -1.049559000000     1.773634000000    -1.401658000000    15.994914619570
         H           -0.352216000000     2.144695000000    -1.977073000000     1.007825032230
         H           -1.638655000000     1.166318000000    -1.764810000000     1.007825032230

  Charge       = 1
  Multiplicity = 1
  Basis Set: AUG-CC-PVTZ
    Blend: AUG-CC-PVTZ
  Basis Set: (AUG-CC-PVTZ AUX)
    Blend: AUG-CC-PVTZ-JKFIT + DEF2-UNIVERSAL-JKFIT

    Orbital Energies [Eh]
    ---------------------

    Doubly Occupied:

       1A    -40.564279     2A    -20.748579     3A    -20.728863
       4A    -20.722779     5A    -20.721445     6A    -20.712594
       7A     -2.887202     8A     -1.612830     9A     -1.612006
      10A     -1.611525    11A     -1.546808    12A     -1.519108
      13A     -1.514402    14A     -1.504899    15A     -1.500871
      16A     -0.924980    17A     -0.901993    18A     -0.900632
      19A     -0.866523    20A     -0.861359    21A     -0.784474
      22A     -0.753772    23A     -0.749678    24A     -0.743224
      25A     -0.717191    26A     -0.703427    27A     -0.679638
      28A     -0.673570    29A     -0.668488    30A     -0.665672

  @DF-RHF Final Energy:  -542.07560624959535

   => Energetics <=

    Nuclear Repulsion Energy =            305.0950909886888667
    One-Electron Energy =               -1352.1357703019566543
    Two-Electron Energy =                 504.9650730636725484
    Total Energy =                       -542.0756062495953529
 Dipole X            :        -30.1383686           31.1592746            1.0209059
 Dipole Y            :         -0.4643807           -0.4131244           -0.8775050
 Dipole Z            :         -1.3386446            1.1009507           -0.2376939
 Magnitude           :                                                    1.3670268
  Basis Set: (AUG-CC-PVTZ AUX)
    Blend: AUG-CC-PVTZ-RI + DEF2-QZVPP-RI
	 Reference Energy          =    -542.0756062495953529 [Eh]
	 Singles Energy            =      -0.0000000000000000 [Eh]
	 Same-Spin Energy          =      -0.3506146147729088 [Eh]
	 Opposite-Spin Energy      =      -1.0966988798725321 [Eh]
	 Correlation Energy        =      -1.4473134946454409 [Eh]
	 Total Energy              =    -543.5229197442407667 [Eh]

	 ================> DF-SCS-MP2 Energies <==================
	-----------------------------------------------------------
	 SCS Same-Spin Scale       =       0.3333333333333333 [-]
	 SCS Opposite-Spin Scale   =       1.2000000000000000 [-]
	 SCS Same-Spin Energy      =      -0.1168715382576363 [Eh]
	 SCS Opposite-Spin Energy  =      -1.3160386558470385 [Eh]
	 SCS Correlation Energy    =      -1.4329101941046747 [Eh]
	 SCS Total Energy          =    -543.5085164437000458 [Eh]
	-----------------------------------------------------------

*** Psi4 exiting successfully. Buy a developer a beer!
