                               Psi4 1.8.2 release

  ==> Input File <==

--------------------------------------------------------------------------
MEMORY 60 GB

molecule dimer {
1 1
Na         0.000000     0.000000     0.000000
O         -0.634954     2.413494    -0.469274
H         -0.282418     2.529735     0.411993
H          0.141916     2.156275    -1.092832
O          1.214648     0.775486     1.918368
H          0.880044     0.448486     2.755494
H          1.217297     1.754919     1.974001
O         -0.701755    -1.577387     1.746965
H          0.074402    -2.165534     1.642667
H         -1.200487    -1.862180     2.524719
O         -0.775218    -1.328748    -1.945209
H         -1.162383    -1.989746    -1.350365
H         -0.197621    -1.804248    -2.558987
O          1.999358    -1.188625    -0.266368
H          1.946447    -1.713828    -1.091922
H          2.822903    -0.667217    -0.248495
O         -2.490267     0.426443     0.351436
H         -2.601949     1.346809     0.579271
H         -3.125572    -0.045171     0.927670

units ang
no_reorient
no_com
symmetry c1
}

set {
basis        aug-cc-pVTZ
scf_type     df
}

energy("mp2")
--------------------------------------------------------------------------

    Molecular point group: c1

    Geometry (in Angstrom), charge = 1, multiplicity = 1:

       Center              X                  Y                   Z               Mass
    ------------   -----------------  -----------------  -----------------  -----------------
         NA           0.000000000000     0.000000000000     0.000000000000    22.989769282000
         O           -0.634954000000     2.413494000000    -0.469274000000    15.994914619570
         H           -0.282418000000     2.529735000000     0.411993000000     1.007825032230
         H            0.141916000000     2.156275000000    -1.092832000000     1.007825032230
         O            1.214648000000     0.775486000000     1.918368000000    15.994914619570
         H            0.880044000000     0.448486000000     2.755494000000     1.007825032230
         H            1.217297000000     1.754919000000     1.974001000000     1.007825032230
         O           -0.701755000000    -1.577387000000     1.746965000000    15.994914619570
         H            0.074402000000    -2.165534000000     1.642667000000     1.007825032230
         H           -1.200487000000    -1.862180000000     2.524719000000     1.007825032230
         O           -0.775218000000    -1.328748000000    -1.945209000000    15.994914619570
         H           -1.162383000000    -1.989746000000    -1.350365000000     1.007825032230
         H           -0.197621000000    -1.804248000000    -2.558987000000     1.007825032230
         O            1.999358000000    -1.188625000000    -0.266368000000    15.994914619570
         H            1.946447000000    -1.713828000000    -1.091922000000     1.007825032230
         H            2.822903000000    -0.667217000000    -0.248495000000     1.007825032230
         O           -2.490267000000     0.426443000000     0.351436000000    15.994914619570
         H           -2.601949000000     1.346809000000     0.579271000000     1.007825032230
         H           -3.125572000000    -0.045171000000     0.927670000000     1.007825032230

  Charge       = 1
  Multiplicity = 1
  Basis Set: AUG-CC-PVTZ
    Blend: AUG-CC-PVTZ
  Basis Set: (AUG-CC-PVTZ AUX)
    Blend: AUG-CC-PVTZ-JKFIT + DEF2-UNIVERSAL-JKFIT

    Orbital Energies [Eh]
    ---------------------

    Doubly Occupied:

       1A    -40.560000     2A    -20.731224     3A    -20.730292
       4A    -20.726071     5A    -20.720366     6A    -20.716643
       7A    -20.692011     8A     -2.881964     9A     -1.608048
      10A     -1.606220    11A     -1.605538    12A     -1.511968
      13A     -1.506315    14A     -1.499081    15A     -1.496786
      16A     -1.493858    17A     -1.474375    18A     -0.883504
      19A     -0.882165    20A     -0.873116    21A     -0.865608
      22A     -0.862292    23A     -0.838325    24A     -0.759495
      25A     -0.741961    26A     -0.737531    27A     -0.733544
      28A     -0.726750    29A     -0.714076    30A     -0.681969
      31A     -0.680869    32A     -0.665585    33A     -0.661743
      34A     -0.659430    35A     -0.635899

  @DF-RHF Final Energy:  -618.13350144131505

   => Energetics <=

    Nuclear Repulsion Energy =            405.9954612966345167
    One-Electron Energy =               -1657.9286753528833742
    Two-Electron Energy =                 633.7997126149336964
    Total Energy =                       -618.1335014413150475
 Dipole X            :         24.5810543          -23.7971794            0.7838749
 Dipole Y            :         10.2533584          -11.0480873           -0.7947289
 Dipole Z            :        -27.3392972           28.6493025            1.3100053
 Magnitude           :                                                    1.7210950
  Basis Set: (AUG-CC-PVTZ AUX)
    Blend: AUG-CC-PVTZ-RI + DEF2-QZVPP-RI
	 Reference Energy          =    -618.1335014413150475 [Eh]
	 Singles Energy            =      -0.0000000000000000 [Eh]
	 Same-Spin Energy          =      -0.4238734150570573 [Eh]
	 Opposite-Spin Energy      =      -1.3234454025571516 [Eh]
	 Correlation Energy        =      -1.7473188176142089 [Eh]
	 Total Energy              =    -619.8808202589292478 [Eh]

	 ================> DF-SCS-MP2 Energies <==================
	-----------------------------------------------------------
	 SCS Same-Spin Scale       =       0.3333333333333333 [-]
	 SCS Opposite-Spin Scale   =       1.2000000000000000 [-]
	 SCS Same-Spin Energy      =      -0.1412911383523524 [Eh]
	 SCS Opposite-Spin Energy  =      -1.5881344830685820 [Eh]
	 SCS Correlation Energy    =      -1.7294256214209343 [Eh]
	 SCS Total Energy          =    -619.8629270627359347 [Eh]
	-----------------------------------------------------------

*** Psi4 exiting successfully. Buy a developer a beer!
