                               Psi4 1.8.2 release

  ==> Input File <==

--------------------------------------------------------------------------
MEMORY 60 GB

molecule dimer {
1 1
Na         0.000000     0.000000     0.000000
O         -1.724880    -1.271601     1.213900
H         -2.325128    -0.571095     1.379831
H         -2.168723    -1.746989     0.502293
O         -0.039054    -1.936295    -1.391128
H          0.391505    -2.720753    -1.100880
H          0.371378    -1.668308    -2.222008
O         -1.221731     2.060268    -0.618102
H         -2.197672     1.923654    -0.578974
H         -1.034113     2.478922     0.254269
O          2.170696    -1.419467     0.263194
H          2.386052    -0.539926    -0.129718
H          2.614810    -1.412889     1.118737
O          1.577504     0.614945    -1.358706
H          1.342517     0.541305    -2.293175
H          1.634371     1.604489    -1.284154
O          0.804081     0.832483     2.115286
H          0.484562     0.652400     2.977864
H          1.717967     0.859279     2.323688

units ang
no_reorient
no_com
symmetry c1
}

set {
basis        aug-cc-pVTZ
scf_type     df
}

energy("mp2")
--------------------------------------------------------------------------

    Molecular point group: c1

    Geometry (in Angstrom), charge = 1, multiplicity = 1:

       Center              X                  Y                   Z               Mass
    ------------   -----------------  -----------------  -----------------  -----------------
         NA           0.000000000000     0.000000000000     0.000000000000    22.989769282000
         O           -1.724880000000    -1.271601000000     1.213900000000    15.994914619570
         H           -2.325128000000    -0.571095000000     1.379831000000     1.007825032230
         H           -2.168723000000    -1.746989000000     0.502293000000     1.007825032230
         O           -0.039054000000    -1.936295000000    -1.391128000000    15.994914619570
         H            0.391505000000    -2.720753000000    -1.100880000000     1.007825032230
         H            0.371378000000    -1.668308000000    -2.222008000000     1.007825032230
         O           -1.221731000000     2.060268000000    -0.618102000000    15.994914619570
         H           -2.197672000000     1.923654000000    -0.578974000000     1.007825032230
         H           -1.034113000000     2.478922000000     0.254269000000     1.007825032230
         O            2.170696000000    -1.419467000000     0.263194000000    15.994914619570
         H            2.386052000000    -0.539926000000    -0.129718000000     1.007825032230
         H            2.614810000000    -1.412889000000     1.118737000000     1.007825032230
         O            1.577504000000     0.614945000000    -1.358706000000    15.994914619570
         H            1.342517000000     0.541305000000    -2.293175000000     1.007825032230
         H            1.634371000000     1.604489000000    -1.284154000000     1.007825032230
         O            0.804081000000     0.832483000000     2.115286000000    15.994914619570
         H            0.484562000000     0.652400000000     2.977864000000     1.007825032230
         H            1.717967000000     0.859279000000     2.323688000000     1.007825032230

  Charge       = 1
  Multiplicity = 1
  Basis Set: AUG-CC-PVTZ
    Blend: AUG-CC-PVTZ
  Basis Set: (AUG-CC-PVTZ AUX)
    Blend: AUG-CC-PVTZ-JKFIT + DEF2-UNIVERSAL-JKFIT

    Orbital Energies [Eh]
    ---------------------

    Doubly Occupied:

       1A    -40.547097     2A    -20.751116     3A    -20.737813
       4A    -20.729044     5A    -20.712763     6A    -20.700330
       7A    -20.687280     8A     -2.871689     9A     -1.600379
      10A     -1.596650    11A     -1.595572    12A     -1.535022
      13A     -1.532660    14A     -1.508615    15A     -1.507377
      16A     -1.494038    17A     -1.468039    18A     -0.885647
      19A     -0.879509    20A     -0.866121    21A     -0.864439
      22A     -0.861355    23A     -0.854190    24A     -0.781493
      25A     -0.771025    26A     -0.756924    27A     -0.742171
      28A     -0.730212    29A     -0.717104    30A     -0.698031
      31A     -0.684414    32A     -0.681100    33A     -0.662738
      34A     -0.649381    35A     -0.630760

  @DF-RHF Final Energy:  -618.14240020279158

   => Energetics <=

    Nuclear Repulsion Energy =            413.4903039599839758
    One-Electron Energy =               -1672.6812048942394995
    Two-Electron Energy =                 641.0485007314639461
    Total Energy =                       -618.1424002027915776
 Dipole X            :        -29.6228460           29.7640444            0.1411984
 Dipole Y            :         19.1517840          -18.0605793            1.0912047
 Dipole Z            :         -4.9004037            5.1841329            0.2837293
 Magnitude           :                                                    1.1362953
  Basis Set: (AUG-CC-PVTZ AUX)
    Blend: AUG-CC-PVTZ-RI + DEF2-QZVPP-RI
	 Reference Energy          =    -618.1424002027915776 [Eh]
	 Singles Energy            =      -0.0000000000000000 [Eh]
	 Same-Spin Energy          =      -0.4239299357626650 [Eh]
	 Opposite-Spin Energy      =      -1.3210871011274614 [Eh]
	 Correlation Energy        =      -1.7450170368901263 [Eh]
	 Total Energy              =    -619.8874172396816675 [Eh]

	 ================> DF-SCS-MP2 Energies <==================
	-----------------------------------------------------------
	 SCS Same-Spin Scale       =       0.3333333333333333 [-]
	 SCS Opposite-Spin Scale   =       1.2000000000000000 [-]
	 SCS Same-Spin Energy      =      -0.1413099785875550 [Eh]
	 SCS Opposite-Spin Energy  =      -1.5853045213529537 [Eh]
	 SCS Correlation Energy    =      -1.7266144999405086 [Eh]
	 SCS Total Energy          =    -619.8690147027321018 [Eh]
	-----------------------------------------------------------

*** Psi4 exiting successfully. Buy a developer a beer!
