                               Psi4 1.8.2 release

  ==> Input File <==

--------------------------------------------------------------------------
MEMORY 60 GB

molecule dimer {
1 1
Na         0.000000     0.000000     0.000000
Gh(O)     -0.661700    -0.413389    -2.363281
Gh(H)     -0.455933    -1.315712    -2.553822
Gh(H)     -1.637257    -0.376380    -2.237891
Gh(O)      0.544728    -1.118350     1.977274
Gh(H)      0.744353    -0.833495     2.905568
Gh(H)      1.400723    -1.370952     1.498188
Gh(O)      1.757489    -1.534201    -0.881471
Gh(H)      1.958724    -2.447531    -1.193130
Gh(H)      2.491303    -0.876661    -1.093475
Gh(O)      1.321666     1.801539     0.627374
Gh(H)      2.276903     1.670009     0.616582
Gh(H)      1.141935     2.724683     0.842806
Gh(O)     -2.390327    -0.322307     0.707325
Gh(H)     -3.122651     0.080379     0.219370
Gh(H)     -2.401244     0.084327     1.563290

units ang
no_reorient
no_com
symmetry c1
}

set {
basis        aug-cc-pVTZ
scf_type     df
}

energy("mp2")
--------------------------------------------------------------------------

    Molecular point group: c1

    Geometry (in Angstrom), charge = 1, multiplicity = 1:

       Center              X                  Y                   Z               Mass
    ------------   -----------------  -----------------  -----------------  -----------------
         NA           0.000000000000     0.000000000000     0.000000000000    22.989769282000
      Gh(O)          -0.661700000000    -0.413389000000    -2.363281000000    15.994914619570
      Gh(H)          -0.455933000000    -1.315712000000    -2.553822000000     1.007825032230
      Gh(H)          -1.637257000000    -0.376380000000    -2.237891000000     1.007825032230
      Gh(O)           0.544728000000    -1.118350000000     1.977274000000    15.994914619570
      Gh(H)           0.744353000000    -0.833495000000     2.905568000000     1.007825032230
      Gh(H)           1.400723000000    -1.370952000000     1.498188000000     1.007825032230
      Gh(O)           1.757489000000    -1.534201000000    -0.881471000000    15.994914619570
      Gh(H)           1.958724000000    -2.447531000000    -1.193130000000     1.007825032230
      Gh(H)           2.491303000000    -0.876661000000    -1.093475000000     1.007825032230
      Gh(O)           1.321666000000     1.801539000000     0.627374000000    15.994914619570
      Gh(H)           2.276903000000     1.670009000000     0.616582000000     1.007825032230
      Gh(H)           1.141935000000     2.724683000000     0.842806000000     1.007825032230
      Gh(O)          -2.390327000000    -0.322307000000     0.707325000000    15.994914619570
      Gh(H)          -3.122651000000     0.080379000000     0.219370000000     1.007825032230
      Gh(H)          -2.401244000000     0.084327000000     1.563290000000     1.007825032230

  Charge       = 1
  Multiplicity = 1
  Basis Set: AUG-CC-PVTZ
    Blend: AUG-CC-PVTZ
  Basis Set: (AUG-CC-PVTZ AUX)
    Blend: AUG-CC-PVTZ-JKFIT + DEF2-UNIVERSAL-JKFIT

    Orbital Energies [Eh]
    ---------------------

    Doubly Occupied:

       1A    -40.760610     2A     -3.073864     3A     -1.797236
       4A     -1.797194     5A     -1.797163

  @DF-RHF Final Energy:  -161.67609111809699

   => Energetics <=

    Nuclear Repulsion Energy =              0.0000000000000000
    One-Electron Energy =                -224.9000490971664306
    Two-Electron Energy =                  63.2239579790694535
    Total Energy =                       -161.6760911180969629
 Dipole X            :         -0.0000082            0.0000000           -0.0000082
 Dipole Y            :         -0.0000971            0.0000000           -0.0000971
 Dipole Z            :         -0.0000507            0.0000000           -0.0000507
 Magnitude           :                                                    0.0001098
  Basis Set: (AUG-CC-PVTZ AUX)
    Blend: AUG-CC-PVTZ-RI + DEF2-QZVPP-RI
	 Reference Energy          =    -161.6760911180969913 [Eh]
	 Singles Energy            =      -0.0000000000000000 [Eh]
	 Same-Spin Energy          =      -0.0055876414560813 [Eh]
	 Opposite-Spin Energy      =      -0.0175091421844741 [Eh]
	 Correlation Energy        =      -0.0230967836405554 [Eh]
	 Total Energy              =    -161.6991879017375595 [Eh]

	 ================> DF-SCS-MP2 Energies <==================
	-----------------------------------------------------------
	 SCS Same-Spin Scale       =       0.3333333333333333 [-]
	 SCS Opposite-Spin Scale   =       1.2000000000000000 [-]
	 SCS Same-Spin Energy      =      -0.0018625471520271 [Eh]
	 SCS Opposite-Spin Energy  =      -0.0210109706213689 [Eh]
	 SCS Correlation Energy    =      -0.0228735177733960 [Eh]
	 SCS Total Energy          =    -161.6989646358703965 [Eh]
	-----------------------------------------------------------

*** Psi4 exiting successfully. Buy a developer a beer!
