                               Psi4 1.8.2 release

  ==> Input File <==

--------------------------------------------------------------------------
MEMORY 60 GB

molecule dimer {
0 1
Gh(Na)     0.000000     0.000000     0.000000
Gh(O)      1.334000    -1.849241     0.833682
Gh(H)      0.843314    -2.454108     0.292436
Gh(H)      1.075079    -1.910830     1.778471
O          0.600992     2.170522     0.487660
H          0.984422     2.164393     1.361891
H         -0.125654     2.794966     0.541435
Gh(O)     -0.992808     0.222812     2.227261
Gh(H)     -1.843637     0.610825     2.337129
Gh(H)     -0.512337     0.213665     3.094299
Gh(O)     -0.600025    -1.874107    -1.325344
Gh(H)     -0.153155    -2.069651    -2.176957
Gh(H)     -1.332728    -2.491016    -1.134304
Gh(O)     -2.219894     1.097809    -0.293701
Gh(H)     -2.721279     0.507752    -0.888427
Gh(H)     -2.724866     1.291058     0.464875

units ang
no_reorient
no_com
symmetry c1
}

set {
basis        aug-cc-pVTZ
scf_type     df
}

energy("mp2")
--------------------------------------------------------------------------

    Molecular point group: c1

    Geometry (in Angstrom), charge = 0, multiplicity = 1:

       Center              X                  Y                   Z               Mass
    ------------   -----------------  -----------------  -----------------  -----------------
      Gh(NA)          0.000000000000     0.000000000000     0.000000000000    22.989769282000
      Gh(O)           1.334000000000    -1.849241000000     0.833682000000    15.994914619570
      Gh(H)           0.843314000000    -2.454108000000     0.292436000000     1.007825032230
      Gh(H)           1.075079000000    -1.910830000000     1.778471000000     1.007825032230
         O            0.600992000000     2.170522000000     0.487660000000    15.994914619570
         H            0.984422000000     2.164393000000     1.361891000000     1.007825032230
         H           -0.125654000000     2.794966000000     0.541435000000     1.007825032230
      Gh(O)          -0.992808000000     0.222812000000     2.227261000000    15.994914619570
      Gh(H)          -1.843637000000     0.610825000000     2.337129000000     1.007825032230
      Gh(H)          -0.512337000000     0.213665000000     3.094299000000     1.007825032230
      Gh(O)          -0.600025000000    -1.874107000000    -1.325344000000    15.994914619570
      Gh(H)          -0.153155000000    -2.069651000000    -2.176957000000     1.007825032230
      Gh(H)          -1.332728000000    -2.491016000000    -1.134304000000     1.007825032230
      Gh(O)          -2.219894000000     1.097809000000    -0.293701000000    15.994914619570
      Gh(H)          -2.721279000000     0.507752000000    -0.888427000000     1.007825032230
      Gh(H)          -2.724866000000     1.291058000000     0.464875000000     1.007825032230

  Charge       = 0
  Multiplicity = 1
  Basis Set: AUG-CC-PVTZ
    Blend: AUG-CC-PVTZ
  Basis Set: (AUG-CC-PVTZ AUX)
    Blend: AUG-CC-PVTZ-JKFIT + DEF2-UNIVERSAL-JKFIT

    Orbital Energies [Eh]
    ---------------------

    Doubly Occupied:

       1A    -20.566767     2A     -1.353260     3A     -0.718516
       4A     -0.584105     5A     -0.510227

  @DF-RHF Final Energy:   -76.06076285659083

   => Energetics <=

    Nuclear Repulsion Energy =              9.1949103368084888
    One-Electron Energy =                -123.0455925397198058
    Two-Electron Energy =                  37.7899193463204881
    Total Energy =                        -76.0607628565908271
 Dipole X            :        -10.9363038           10.7085186           -0.2277852
 Dipole Y            :        -41.7738719           42.1853673            0.4114954
 Dipole Z            :        -10.3508036           10.9691156            0.6183120
 Magnitude           :                                                    0.7768683
  Basis Set: (AUG-CC-PVTZ AUX)
    Blend: AUG-CC-PVTZ-RI + DEF2-QZVPP-RI
	 Reference Energy          =     -76.0607628565908271 [Eh]
	 Singles Energy            =      -0.0000000000000000 [Eh]
	 Same-Spin Energy          =      -0.0684148874405397 [Eh]
	 Opposite-Spin Energy      =      -0.2159352048310265 [Eh]
	 Correlation Energy        =      -0.2843500922715662 [Eh]
	 Total Energy              =     -76.3451129488623934 [Eh]

	 ================> DF-SCS-MP2 Energies <==================
	-----------------------------------------------------------
	 SCS Same-Spin Scale       =       0.3333333333333333 [-]
	 SCS Opposite-Spin Scale   =       1.2000000000000000 [-]
	 SCS Same-Spin Energy      =      -0.0228049624801799 [Eh]
	 SCS Opposite-Spin Energy  =      -0.2591222457972318 [Eh]
	 SCS Correlation Energy    =      -0.2819272082774116 [Eh]
	 SCS Total Energy          =     -76.3426900648682363 [Eh]
	-----------------------------------------------------------

*** Psi4 exiting successfully. Buy a developer a beer!
