                               Psi4 1.8.2 release

  ==> Input File <==

--------------------------------------------------------------------------
MEMORY 60 GB

molecule dimer {
1 1
Na         0.000000     0.000000     0.000000
O          1.442910    -1.615519    -0.724539
H          2.256766    -1.142850    -0.890378
H          1.587192    -2.224263     0.048492
O         -0.953321     0.932193    -1.763865
H         -1.633057     1.511012    -1.396330
H         -0.910682     1.229146    -2.659653
O         -0.002406     0.246926     2.384799
H          0.732056    -0.107898     2.849308
H          0.173253     1.192445     2.308746
O          2.128873     1.405530     0.211056
H          2.986769     1.017955     0.261027
H          2.073410     1.856766    -0.680462
O         -2.115569    -0.327278     0.500773
H         -2.586886    -0.082643    -0.302497
H         -2.583910     0.063951     1.259491

units ang
no_reorient
no_com
symmetry c1
}

set {
basis        aug-cc-pVTZ
scf_type     df
}

energy("mp2")
--------------------------------------------------------------------------

    Molecular point group: c1

    Geometry (in Angstrom), charge = 1, multiplicity = 1:

       Center              X                  Y                   Z               Mass
    ------------   -----------------  -----------------  -----------------  -----------------
         NA           0.000000000000     0.000000000000     0.000000000000    22.989769282000
         O            1.442910000000    -1.615519000000    -0.724539000000    15.994914619570
         H            2.256766000000    -1.142850000000    -0.890378000000     1.007825032230
         H            1.587192000000    -2.224263000000     0.048492000000     1.007825032230
         O           -0.953321000000     0.932193000000    -1.763865000000    15.994914619570
         H           -1.633057000000     1.511012000000    -1.396330000000     1.007825032230
         H           -0.910682000000     1.229146000000    -2.659653000000     1.007825032230
         O           -0.002406000000     0.246926000000     2.384799000000    15.994914619570
         H            0.732056000000    -0.107898000000     2.849308000000     1.007825032230
         H            0.173253000000     1.192445000000     2.308746000000     1.007825032230
         O            2.128873000000     1.405530000000     0.211056000000    15.994914619570
         H            2.986769000000     1.017955000000     0.261027000000     1.007825032230
         H            2.073410000000     1.856766000000    -0.680462000000     1.007825032230
         O           -2.115569000000    -0.327278000000     0.500773000000    15.994914619570
         H           -2.586886000000    -0.082643000000    -0.302497000000     1.007825032230
         H           -2.583910000000     0.063951000000     1.259491000000     1.007825032230

  Charge       = 1
  Multiplicity = 1
  Basis Set: AUG-CC-PVTZ
    Blend: AUG-CC-PVTZ
  Basis Set: (AUG-CC-PVTZ AUX)
    Blend: AUG-CC-PVTZ-JKFIT + DEF2-UNIVERSAL-JKFIT

    Orbital Energies [Eh]
    ---------------------

    Doubly Occupied:

       1A    -40.547918     2A    -20.745562     3A    -20.737076
       4A    -20.728044     5A    -20.719012     6A    -20.716170
       7A     -2.874213     8A     -1.602279     9A     -1.599811
      10A     -1.598997    11A     -1.538623    12A     -1.517356
      13A     -1.510361    14A     -1.506013    15A     -1.501769
      16A     -0.902342    17A     -0.884646    18A     -0.878183
      19A     -0.877261    20A     -0.869580    21A     -0.787414
      22A     -0.757460    23A     -0.752269    24A     -0.742719
      25A     -0.731659    26A     -0.697679    27A     -0.691019
      28A     -0.670806    29A     -0.669464    30A     -0.666416

  @DF-RHF Final Energy:  -542.07970887008310

   => Energetics <=

    Nuclear Repulsion Energy =            311.2801902442423625
    One-Electron Energy =               -1364.6755492187232903
    Two-Electron Energy =                 511.3156501043979461
    Total Energy =                       -542.0797088700830955
 Dipole X            :        -10.7443673           11.5250749            0.7807076
 Dipole Y            :        -14.5668659           15.9652321            1.3983662
 Dipole Z            :        -10.9871366           10.7025319           -0.2846046
 Magnitude           :                                                    1.6266322
  Basis Set: (AUG-CC-PVTZ AUX)
    Blend: AUG-CC-PVTZ-RI + DEF2-QZVPP-RI
	 Reference Energy          =    -542.0797088700830955 [Eh]
	 Singles Energy            =      -0.0000000000000000 [Eh]
	 Same-Spin Energy          =      -0.3518851500253197 [Eh]
	 Opposite-Spin Energy      =      -1.0997633114683689 [Eh]
	 Correlation Energy        =      -1.4516484614936886 [Eh]
	 Total Energy              =    -543.5313573315768281 [Eh]

	 ================> DF-SCS-MP2 Energies <==================
	-----------------------------------------------------------
	 SCS Same-Spin Scale       =       0.3333333333333333 [-]
	 SCS Opposite-Spin Scale   =       1.2000000000000000 [-]
	 SCS Same-Spin Energy      =      -0.1172950500084399 [Eh]
	 SCS Opposite-Spin Energy  =      -1.3197159737620427 [Eh]
	 SCS Correlation Energy    =      -1.4370110237704827 [Eh]
	 SCS Total Energy          =    -543.5167198938536330 [Eh]
	-----------------------------------------------------------

*** Psi4 exiting successfully. Buy a developer a beer!
