                               Psi4 1.8.2 release

  ==> Input File <==

--------------------------------------------------------------------------
MEMORY 60 GB

molecule dimer {
0 1
Gh(Na)     0.000000     0.000000     0.000000
Gh(O)      0.678160     2.284288    -0.397643
Gh(H)      1.614332     2.337963    -0.456092
Gh(H)      0.453059     2.958377     0.208204
Gh(O)     -1.023978    -2.189835     0.746360
Gh(H)     -0.521172    -2.711199     0.158310
Gh(H)     -0.741558    -2.343754     1.621825
Gh(O)     -1.055877     1.483188     1.542185
Gh(H)     -1.151422     2.354443     1.184827
Gh(H)     -1.725839     1.293498     2.192923
O          1.362518    -0.511661    -1.626750
H          1.650715    -0.789797    -2.502568
H          2.116689    -0.657072    -1.084660

units ang
no_reorient
no_com
symmetry c1
}

set {
basis        aug-cc-pVTZ
scf_type     df
}

energy("mp2")
--------------------------------------------------------------------------

    Molecular point group: c1

    Geometry (in Angstrom), charge = 0, multiplicity = 1:

       Center              X                  Y                   Z               Mass
    ------------   -----------------  -----------------  -----------------  -----------------
      Gh(NA)          0.000000000000     0.000000000000     0.000000000000    22.989769282000
      Gh(O)           0.678160000000     2.284288000000    -0.397643000000    15.994914619570
      Gh(H)           1.614332000000     2.337963000000    -0.456092000000     1.007825032230
      Gh(H)           0.453059000000     2.958377000000     0.208204000000     1.007825032230
      Gh(O)          -1.023978000000    -2.189835000000     0.746360000000    15.994914619570
      Gh(H)          -0.521172000000    -2.711199000000     0.158310000000     1.007825032230
      Gh(H)          -0.741558000000    -2.343754000000     1.621825000000     1.007825032230
      Gh(O)          -1.055877000000     1.483188000000     1.542185000000    15.994914619570
      Gh(H)          -1.151422000000     2.354443000000     1.184827000000     1.007825032230
      Gh(H)          -1.725839000000     1.293498000000     2.192923000000     1.007825032230
         O            1.362518000000    -0.511661000000    -1.626750000000    15.994914619570
         H            1.650715000000    -0.789797000000    -2.502568000000     1.007825032230
         H            2.116689000000    -0.657072000000    -1.084660000000     1.007825032230

  Charge       = 0
  Multiplicity = 1
  Basis Set: AUG-CC-PVTZ
    Blend: AUG-CC-PVTZ
  Basis Set: (AUG-CC-PVTZ AUX)
    Blend: AUG-CC-PVTZ-JKFIT + DEF2-UNIVERSAL-JKFIT

    Orbital Energies [Eh]
    ---------------------

    Doubly Occupied:

       1A    -20.566261     2A     -1.357060     3A     -0.719632
       4A     -0.587183     5A     -0.510985

  @DF-RHF Final Energy:   -76.06067484706779

   => Energetics <=

    Nuclear Repulsion Energy =              9.2521612655062846
    One-Electron Energy =                -123.1434271878097348
    Two-Electron Energy =                  37.8305910752356525
    Total Energy =                        -76.0606748470677871
 Dipole X            :        -27.0220510           27.7176487            0.6955977
 Dipole Y            :         10.1875698          -10.4693794           -0.2818096
 Dipole Z            :         31.1531662          -31.3717743           -0.2186081
 Magnitude           :                                                    0.7817047
  Basis Set: (AUG-CC-PVTZ AUX)
    Blend: AUG-CC-PVTZ-RI + DEF2-QZVPP-RI
	 Reference Energy          =     -76.0606748470677871 [Eh]
	 Singles Energy            =      -0.0000000000000000 [Eh]
	 Same-Spin Energy          =      -0.0683188419459891 [Eh]
	 Opposite-Spin Energy      =      -0.2155602839888403 [Eh]
	 Correlation Energy        =      -0.2838791259348294 [Eh]
	 Total Energy              =     -76.3445539730026184 [Eh]

	 ================> DF-SCS-MP2 Energies <==================
	-----------------------------------------------------------
	 SCS Same-Spin Scale       =       0.3333333333333333 [-]
	 SCS Opposite-Spin Scale   =       1.2000000000000000 [-]
	 SCS Same-Spin Energy      =      -0.0227729473153297 [Eh]
	 SCS Opposite-Spin Energy  =      -0.2586723407866084 [Eh]
	 SCS Correlation Energy    =      -0.2814452881019381 [Eh]
	 SCS Total Energy          =     -76.3421201351697221 [Eh]
	-----------------------------------------------------------

*** Psi4 exiting successfully. Buy a developer a beer!
