                               Psi4 1.8.2 release

  ==> Input File <==

--------------------------------------------------------------------------
MEMORY 60 GB

molecule dimer {
0 1
Gh(Na)     0.000000     0.000000     0.000000
Gh(O)      2.161813     1.206626    -0.266700
Gh(H)      2.702963     0.459594    -0.645875
Gh(H)      2.788583     1.720992     0.282642
O         -0.556590    -0.575984    -2.179488
H         -1.017472     0.122616    -2.697717
H          0.357469    -0.689631    -2.443771
Gh(O)      0.229150     0.481834     2.206901
Gh(H)     -0.313539     1.262282     2.430655
Gh(H)      0.022652    -0.088819     2.940612
Gh(O)     -0.111430    -2.057137     0.450586
Gh(H)     -0.126469    -2.559975    -0.403823
Gh(H)     -0.555096    -2.521016     1.178518
Gh(O)     -1.173824     1.990268    -0.285624
Gh(H)     -1.323983     2.704336    -0.895645
Gh(H)     -1.221891     2.483177     0.551307

units ang
no_reorient
no_com
symmetry c1
}

set {
basis        aug-cc-pVTZ
scf_type     df
}

energy("mp2")
--------------------------------------------------------------------------

    Molecular point group: c1

    Geometry (in Angstrom), charge = 0, multiplicity = 1:

       Center              X                  Y                   Z               Mass
    ------------   -----------------  -----------------  -----------------  -----------------
      Gh(NA)          0.000000000000     0.000000000000     0.000000000000    22.989769282000
      Gh(O)           2.161813000000     1.206626000000    -0.266700000000    15.994914619570
      Gh(H)           2.702963000000     0.459594000000    -0.645875000000     1.007825032230
      Gh(H)           2.788583000000     1.720992000000     0.282642000000     1.007825032230
         O           -0.556590000000    -0.575984000000    -2.179488000000    15.994914619570
         H           -1.017472000000     0.122616000000    -2.697717000000     1.007825032230
         H            0.357469000000    -0.689631000000    -2.443771000000     1.007825032230
      Gh(O)           0.229150000000     0.481834000000     2.206901000000    15.994914619570
      Gh(H)          -0.313539000000     1.262282000000     2.430655000000     1.007825032230
      Gh(H)           0.022652000000    -0.088819000000     2.940612000000     1.007825032230
      Gh(O)          -0.111430000000    -2.057137000000     0.450586000000    15.994914619570
      Gh(H)          -0.126469000000    -2.559975000000    -0.403823000000     1.007825032230
      Gh(H)          -0.555096000000    -2.521016000000     1.178518000000     1.007825032230
      Gh(O)          -1.173824000000     1.990268000000    -0.285624000000    15.994914619570
      Gh(H)          -1.323983000000     2.704336000000    -0.895645000000     1.007825032230
      Gh(H)          -1.221891000000     2.483177000000     0.551307000000     1.007825032230

  Charge       = 0
  Multiplicity = 1
  Basis Set: AUG-CC-PVTZ
    Blend: AUG-CC-PVTZ
  Basis Set: (AUG-CC-PVTZ AUX)
    Blend: AUG-CC-PVTZ-JKFIT + DEF2-UNIVERSAL-JKFIT

    Orbital Energies [Eh]
    ---------------------

    Doubly Occupied:

       1A    -20.565489     2A     -1.340940     3A     -0.724624
       4A     -0.566416     5A     -0.506629

  @DF-RHF Final Energy:   -76.05776976804191

   => Energetics <=

    Nuclear Repulsion Energy =              9.0456363271851306
    One-Electron Energy =                -122.7986116115886972
    Two-Electron Energy =                  37.6952055163616464
    Total Energy =                        -76.0577697680419078
 Dipole X            :          9.9709228           -9.6616462            0.3092765
 Dipole Y            :         10.1729392           -9.7791192            0.3938201
 Dipole Z            :         42.1362722          -42.6650875           -0.5288153
 Magnitude           :                                                    0.7282801
  Basis Set: (AUG-CC-PVTZ AUX)
    Blend: AUG-CC-PVTZ-RI + DEF2-QZVPP-RI
	 Reference Energy          =     -76.0577697680419078 [Eh]
	 Singles Energy            =      -0.0000000000000000 [Eh]
	 Same-Spin Energy          =      -0.0685893467373890 [Eh]
	 Opposite-Spin Energy      =      -0.2163370371619261 [Eh]
	 Correlation Energy        =      -0.2849263838993151 [Eh]
	 Total Energy              =     -76.3426961519412259 [Eh]

	 ================> DF-SCS-MP2 Energies <==================
	-----------------------------------------------------------
	 SCS Same-Spin Scale       =       0.3333333333333333 [-]
	 SCS Opposite-Spin Scale   =       1.2000000000000000 [-]
	 SCS Same-Spin Energy      =      -0.0228631155791297 [Eh]
	 SCS Opposite-Spin Energy  =      -0.2596044445943113 [Eh]
	 SCS Correlation Energy    =      -0.2824675601734410 [Eh]
	 SCS Total Energy          =     -76.3402373282153519 [Eh]
	-----------------------------------------------------------

*** Psi4 exiting successfully. Buy a developer a beer!
