                               Psi4 1.8.2 release

  ==> Input File <==

--------------------------------------------------------------------------
MEMORY 60 GB

molecule dimer {
1 1
Na         0.000000     0.000000     0.000000
Gh(O)      1.253379    -0.553947    -1.795986
Gh(H)      1.273490    -1.231624    -2.437543
Gh(H)      2.156284    -0.245421    -1.763626
Gh(O)      1.653641    -0.225820     1.459891
Gh(H)      2.288234     0.493100     1.361670
Gh(H)      1.659884    -0.507457     2.410014
Gh(O)     -0.197384    -2.387924     0.118493
Gh(H)      0.422453    -2.904071     0.645872
Gh(H)     -0.888605    -3.002090    -0.148393
Gh(O)     -0.691979     1.747232     1.638579
Gh(H)     -0.060873     2.000291     2.305818
Gh(H)     -0.951374     2.650499     1.367873

units ang
no_reorient
no_com
symmetry c1
}

set {
basis        aug-cc-pVTZ
scf_type     df
}

energy("mp2")
--------------------------------------------------------------------------

    Molecular point group: c1

    Geometry (in Angstrom), charge = 1, multiplicity = 1:

       Center              X                  Y                   Z               Mass
    ------------   -----------------  -----------------  -----------------  -----------------
         NA           0.000000000000     0.000000000000     0.000000000000    22.989769282000
      Gh(O)           1.253379000000    -0.553947000000    -1.795986000000    15.994914619570
      Gh(H)           1.273490000000    -1.231624000000    -2.437543000000     1.007825032230
      Gh(H)           2.156284000000    -0.245421000000    -1.763626000000     1.007825032230
      Gh(O)           1.653641000000    -0.225820000000     1.459891000000    15.994914619570
      Gh(H)           2.288234000000     0.493100000000     1.361670000000     1.007825032230
      Gh(H)           1.659884000000    -0.507457000000     2.410014000000     1.007825032230
      Gh(O)          -0.197384000000    -2.387924000000     0.118493000000    15.994914619570
      Gh(H)           0.422453000000    -2.904071000000     0.645872000000     1.007825032230
      Gh(H)          -0.888605000000    -3.002090000000    -0.148393000000     1.007825032230
      Gh(O)          -0.691979000000     1.747232000000     1.638579000000    15.994914619570
      Gh(H)          -0.060873000000     2.000291000000     2.305818000000     1.007825032230
      Gh(H)          -0.951374000000     2.650499000000     1.367873000000     1.007825032230

  Charge       = 1
  Multiplicity = 1
  Basis Set: AUG-CC-PVTZ
    Blend: AUG-CC-PVTZ
  Basis Set: (AUG-CC-PVTZ AUX)
    Blend: AUG-CC-PVTZ-JKFIT + DEF2-UNIVERSAL-JKFIT

    Orbital Energies [Eh]
    ---------------------

    Doubly Occupied:

       1A    -40.760603     2A     -3.073888     3A     -1.797247
       4A     -1.797212     5A     -1.797189

  @DF-RHF Final Energy:  -161.67608527918188

   => Energetics <=

    Nuclear Repulsion Energy =              0.0000000000000000
    One-Electron Energy =                -224.8998944960281960
    Two-Electron Energy =                  63.2238092168463126
    Total Energy =                       -161.6760852791818763
 Dipole X            :          0.0001545            0.0000000            0.0001545
 Dipole Y            :         -0.0000439            0.0000000           -0.0000439
 Dipole Z            :          0.0000621            0.0000000            0.0000621
 Magnitude           :                                                    0.0001722
  Basis Set: (AUG-CC-PVTZ AUX)
    Blend: AUG-CC-PVTZ-RI + DEF2-QZVPP-RI
	 Reference Energy          =    -161.6760852791818763 [Eh]
	 Singles Energy            =      -0.0000000000000000 [Eh]
	 Same-Spin Energy          =      -0.0055159470436954 [Eh]
	 Opposite-Spin Energy      =      -0.0172102272429378 [Eh]
	 Correlation Energy        =      -0.0227261742866332 [Eh]
	 Total Energy              =    -161.6988114534685224 [Eh]

	 ================> DF-SCS-MP2 Energies <==================
	-----------------------------------------------------------
	 SCS Same-Spin Scale       =       0.3333333333333333 [-]
	 SCS Opposite-Spin Scale   =       1.2000000000000000 [-]
	 SCS Same-Spin Energy      =      -0.0018386490145651 [Eh]
	 SCS Opposite-Spin Energy  =      -0.0206522726915254 [Eh]
	 SCS Correlation Energy    =      -0.0224909217060905 [Eh]
	 SCS Total Energy          =    -161.6985762008879703 [Eh]
	-----------------------------------------------------------

*** Psi4 exiting successfully. Buy a developer a beer!
