                               Psi4 1.8.2 release

  ==> Input File <==

--------------------------------------------------------------------------
MEMORY 60 GB

molecule dimer {
1 1
Na         0.000000     0.000000     0.000000
O         -1.453265    -0.927157     1.825285
H         -2.100322    -0.255926     1.972817
H         -1.935961    -1.746795     1.593913
O          0.533351     1.207339     2.078428
H          0.369434     2.123890     2.057849
H          1.328925     0.987573     2.532613
O          1.651761    -1.445261     0.090473
H          2.214791    -1.702771     0.905964
H          1.533721    -2.215695    -0.565653
O         -2.231746     0.829196    -0.427680
H         -2.770376     0.788932    -1.214090
H         -2.790229     0.419292     0.320234
O          0.777575     1.636496    -1.467094
H          0.243066     2.358069    -1.870836
H          1.727867     1.770498    -1.676592

units ang
no_reorient
no_com
symmetry c1
}

set {
basis        aug-cc-pVTZ
scf_type     df
}

energy("mp2")
--------------------------------------------------------------------------

    Molecular point group: c1

    Geometry (in Angstrom), charge = 1, multiplicity = 1:

       Center              X                  Y                   Z               Mass
    ------------   -----------------  -----------------  -----------------  -----------------
         NA           0.000000000000     0.000000000000     0.000000000000    22.989769282000
         O           -1.453265000000    -0.927157000000     1.825285000000    15.994914619570
         H           -2.100322000000    -0.255926000000     1.972817000000     1.007825032230
         H           -1.935961000000    -1.746795000000     1.593913000000     1.007825032230
         O            0.533351000000     1.207339000000     2.078428000000    15.994914619570
         H            0.369434000000     2.123890000000     2.057849000000     1.007825032230
         H            1.328925000000     0.987573000000     2.532613000000     1.007825032230
         O            1.651761000000    -1.445261000000     0.090473000000    15.994914619570
         H            2.214791000000    -1.702771000000     0.905964000000     1.007825032230
         H            1.533721000000    -2.215695000000    -0.565653000000     1.007825032230
         O           -2.231746000000     0.829196000000    -0.427680000000    15.994914619570
         H           -2.770376000000     0.788932000000    -1.214090000000     1.007825032230
         H           -2.790229000000     0.419292000000     0.320234000000     1.007825032230
         O            0.777575000000     1.636496000000    -1.467094000000    15.994914619570
         H            0.243066000000     2.358069000000    -1.870836000000     1.007825032230
         H            1.727867000000     1.770498000000    -1.676592000000     1.007825032230

  Charge       = 1
  Multiplicity = 1
  Basis Set: AUG-CC-PVTZ
    Blend: AUG-CC-PVTZ
  Basis Set: (AUG-CC-PVTZ AUX)
    Blend: AUG-CC-PVTZ-JKFIT + DEF2-UNIVERSAL-JKFIT

    Orbital Energies [Eh]
    ---------------------

    Doubly Occupied:

       1A    -40.541775     2A    -20.731734     3A    -20.728436
       4A    -20.716063     5A    -20.715611     6A    -20.698187
       7A     -2.865405     8A     -1.591707     9A     -1.590095
      10A     -1.589528    11A     -1.505530    12A     -1.499206
      13A     -1.496693    14A     -1.487046    15A     -1.481503
      16A     -0.885592    17A     -0.880617    18A     -0.862071
      19A     -0.860073    20A     -0.858364    21A     -0.752366
      22A     -0.738845    23A     -0.736367    24A     -0.729026
      25A     -0.713292    26A     -0.678648    27A     -0.669072
      28A     -0.661308    29A     -0.656284    30A     -0.650533

  @DF-RHF Final Energy:  -542.07359012631809

   => Energetics <=

    Nuclear Repulsion Energy =            305.3653273001699517
    One-Electron Energy =               -1353.7358752043301138
    Two-Electron Energy =                 506.2969577778420103
    Total Energy =                       -542.0735901263180949
 Dipole X            :         14.6338775          -15.0378282           -0.4039507
 Dipole Y            :        -24.3903978           24.4378835            0.0474856
 Dipole Z            :        -39.3535979           39.4036527            0.0500548
 Magnitude           :                                                    0.4098006
  Basis Set: (AUG-CC-PVTZ AUX)
    Blend: AUG-CC-PVTZ-RI + DEF2-QZVPP-RI
	 Reference Energy          =    -542.0735901263180949 [Eh]
	 Singles Energy            =      -0.0000000000000000 [Eh]
	 Same-Spin Energy          =      -0.3519547702109619 [Eh]
	 Opposite-Spin Energy      =      -1.1009973885191267 [Eh]
	 Correlation Energy        =      -1.4529521587300886 [Eh]
	 Total Energy              =    -543.5265422850482082 [Eh]

	 ================> DF-SCS-MP2 Energies <==================
	-----------------------------------------------------------
	 SCS Same-Spin Scale       =       0.3333333333333333 [-]
	 SCS Opposite-Spin Scale   =       1.2000000000000000 [-]
	 SCS Same-Spin Energy      =      -0.1173182567369873 [Eh]
	 SCS Opposite-Spin Energy  =      -1.3211968662229518 [Eh]
	 SCS Correlation Energy    =      -1.4385151229599391 [Eh]
	 SCS Total Energy          =    -543.5121052492780791 [Eh]
	-----------------------------------------------------------

*** Psi4 exiting successfully. Buy a developer a beer!
