                               Psi4 1.8.2 release

  ==> Input File <==

--------------------------------------------------------------------------
MEMORY 60 GB

molecule dimer {
0 1
Gh(Na)     0.000000     0.000000     0.000000
Gh(O)      2.205971     0.635159     0.728373
Gh(H)      3.053339     0.255335     0.378257
Gh(H)      2.077247     0.411983     1.671787
Gh(O)     -2.285012    -0.545726    -1.025332
Gh(H)     -1.993376    -0.558243    -1.924281
Gh(H)     -2.614469    -1.469788    -0.906414
O          0.374764     0.481414    -2.151325
H         -0.097932    -0.007771    -2.837168
H          0.086886     1.404508    -2.205016
Gh(O)     -1.072663     0.652617     2.238731
Gh(H)     -0.201901     0.519877     2.729850
Gh(H)     -1.247442     1.590189     2.428781

units ang
no_reorient
no_com
symmetry c1
}

set {
basis        aug-cc-pVTZ
scf_type     df
}

energy("mp2")
--------------------------------------------------------------------------

    Molecular point group: c1

    Geometry (in Angstrom), charge = 0, multiplicity = 1:

       Center              X                  Y                   Z               Mass
    ------------   -----------------  -----------------  -----------------  -----------------
      Gh(NA)          0.000000000000     0.000000000000     0.000000000000    22.989769282000
      Gh(O)           2.205971000000     0.635159000000     0.728373000000    15.994914619570
      Gh(H)           3.053339000000     0.255335000000     0.378257000000     1.007825032230
      Gh(H)           2.077247000000     0.411983000000     1.671787000000     1.007825032230
      Gh(O)          -2.285012000000    -0.545726000000    -1.025332000000    15.994914619570
      Gh(H)          -1.993376000000    -0.558243000000    -1.924281000000     1.007825032230
      Gh(H)          -2.614469000000    -1.469788000000    -0.906414000000     1.007825032230
         O            0.374764000000     0.481414000000    -2.151325000000    15.994914619570
         H           -0.097932000000    -0.007771000000    -2.837168000000     1.007825032230
         H            0.086886000000     1.404508000000    -2.205016000000     1.007825032230
      Gh(O)          -1.072663000000     0.652617000000     2.238731000000    15.994914619570
      Gh(H)          -0.201901000000     0.519877000000     2.729850000000     1.007825032230
      Gh(H)          -1.247442000000     1.590189000000     2.428781000000     1.007825032230

  Charge       = 0
  Multiplicity = 1
  Basis Set: AUG-CC-PVTZ
    Blend: AUG-CC-PVTZ
  Basis Set: (AUG-CC-PVTZ AUX)
    Blend: AUG-CC-PVTZ-JKFIT + DEF2-UNIVERSAL-JKFIT

    Orbital Energies [Eh]
    ---------------------

    Doubly Occupied:

       1A    -20.567448     2A     -1.346411     3A     -0.717545
       4A     -0.577459     5A     -0.508649

  @DF-RHF Final Energy:   -76.05981174574663

   => Energetics <=

    Nuclear Repulsion Energy =              9.0934987125530817
    One-Electron Energy =                -122.8715937083770768
    Two-Electron Energy =                  37.7182832500773557
    Total Energy =                        -76.0598117457466287
 Dipole X            :         -6.1515716            5.6447367           -0.5068350
 Dipole Y            :         -9.6285250            9.9173753            0.2888503
 Dipole Z            :         41.5584137          -42.0516673           -0.4932536
 Magnitude           :                                                    0.7639472
  Basis Set: (AUG-CC-PVTZ AUX)
    Blend: AUG-CC-PVTZ-RI + DEF2-QZVPP-RI
	 Reference Energy          =     -76.0598117457466287 [Eh]
	 Singles Energy            =      -0.0000000000000000 [Eh]
	 Same-Spin Energy          =      -0.0685436084952629 [Eh]
	 Opposite-Spin Energy      =      -0.2162722192028732 [Eh]
	 Correlation Energy        =      -0.2848158276981360 [Eh]
	 Total Energy              =     -76.3446275734447681 [Eh]

	 ================> DF-SCS-MP2 Energies <==================
	-----------------------------------------------------------
	 SCS Same-Spin Scale       =       0.3333333333333333 [-]
	 SCS Opposite-Spin Scale   =       1.2000000000000000 [-]
	 SCS Same-Spin Energy      =      -0.0228478694984210 [Eh]
	 SCS Opposite-Spin Energy  =      -0.2595266630434478 [Eh]
	 SCS Correlation Energy    =      -0.2823745325418687 [Eh]
	 SCS Total Energy          =     -76.3421862782884943 [Eh]
	-----------------------------------------------------------

*** Psi4 exiting successfully. Buy a developer a beer!
