                               Psi4 1.9 release

  ==> Input File <==

--------------------------------------------------------------------------
MEMORY 60 GB

molecule dimer {
1 1
Na     0.000000     0.000000     0.000000
--
0 1
O      2.497786    -0.242273     0.422092
H      3.049045    -0.461710    -0.372715
H      2.916442     0.393536     1.013630
O     -0.170722     1.880488     1.566801
H     -0.585546     2.675444     1.117741
H     -0.725283     1.778538     2.397862
O     -0.123890    -2.509853    -0.843574
H     -0.312475    -3.220754    -0.195645
H     -0.767002    -2.582567    -1.518445
O     -2.372716     0.104252     0.086632
H     -3.016397     0.698396     0.520165
H     -2.302894    -0.639156     0.705936

units ang
no_reorient
no_com
symmetry c1
}

set {
basis        aug-cc-pVTZ
scf_type     df
}

energy("mp2", bsse_type="cp")
--------------------------------------------------------------------------

                               Psi4 1.9 release
    Molecular point group: c1
  Charge       = 0
  Multiplicity = 1
  Basis Set: AUG-CC-PVTZ
    Blend: AUG-CC-PVTZ
  Basis Set: (AUG-CC-PVTZ AUX)
    Blend: AUG-CC-PVTZ-JKFIT + DEF2-UNIVERSAL-JKFIT
  @DF-RHF Final Energy:  -304.21965279074163
    Total Energy =                       -304.2196527907416339
 Dipole X            :          4.9953682           -5.8589938           -0.8636256
 Dipole Y            :         14.2724288          -14.1679590            0.1044699
 Dipole Z            :        -24.8418081           25.5569150            0.7151069
 Magnitude           :                                                    1.1261177
  Basis Set: (AUG-CC-PVTZ AUX)
    Blend: AUG-CC-PVTZ-RI + DEF2-QZVPP-RI
	 Reference Energy          =    -304.2196527907416339 [Eh]
	 Singles Energy            =      -0.0000000000000000 [Eh]
	 Same-Spin Energy          =      -0.2763193928919289 [Eh]
	 Opposite-Spin Energy      =      -0.8687219232138814 [Eh]
	 Correlation Energy        =      -1.1450413161058104 [Eh]
	 Total Energy              =    -305.3646941068474234 [Eh]
	 SCS Total Energy          =    -305.3542255628955786 [Eh]
                               Psi4 1.9 release
    Molecular point group: c1
  Multiplicity = 1
  Basis Set: AUG-CC-PVTZ
    Blend: AUG-CC-PVTZ
  Basis Set: (AUG-CC-PVTZ AUX)
    Blend: AUG-CC-PVTZ-JKFIT + DEF2-UNIVERSAL-JKFIT
  @DF-RHF Final Energy:  -161.67607537772841
    Total Energy =                       -161.6760753777284094
  Basis Set: (AUG-CC-PVTZ AUX)
	 Singles Energy            =      -0.0000000000000000 [Eh]
	 Same-Spin Energy          =      -0.0047190327172577 [Eh]
	 Opposite-Spin Energy      =      -0.0153257884013614 [Eh]
	 Correlation Energy        =      -0.0200448211186191 [Eh]
	 Total Energy              =    -161.6961201988470407 [Eh]
	 SCS Total Energy          =    -161.6960393347158060 [Eh]
                               Psi4 1.9 release
    Molecular point group: c1

    Geometry (in Bohr), charge = 1, multiplicity = 1:

       Center              X                  Y                   Z               Mass
    ------------   -----------------  -----------------  -----------------  -----------------
         NA           0.000000000000     0.000000000000     0.000000000000    22.989769282000
         O            4.720131460003    -0.457829617593     0.797638279747    15.994914619570
         H            5.761859994197    -0.872505449385    -0.704329272850     1.007825032230
         H            5.511276640782     0.743675260508     1.915483092548     1.007825032230
         O           -0.322617823590     3.553607302210     2.960824783093    15.994914619570
         H           -1.106521573857     5.055856423999     2.112224369195     1.007825032230
         H           -1.370586233450     3.360949723720     4.531302466643     1.007825032230
         O           -0.234118169683    -4.742934785159    -1.594123826557    15.994914619570
         H           -0.590492171052    -6.086342977473    -0.369715467815     1.007825032230
         H           -1.449423717678    -4.880344330645    -2.869445186571     1.007825032230
         O           -4.483783413492     0.197007728031     0.163710753701    15.994914619570
         H           -5.700164215653     1.319777167115     0.982969390049     1.007825032230
         H           -4.351838955960    -1.207829791443     1.334025702101     1.007825032230

  Charge       = 1
  Multiplicity = 1
  Basis Set: AUG-CC-PVTZ
    Blend: AUG-CC-PVTZ
  Basis Set: (AUG-CC-PVTZ AUX)
    Blend: AUG-CC-PVTZ-JKFIT + DEF2-UNIVERSAL-JKFIT

    Orbital Energies [Eh]
    ---------------------

    Doubly Occupied:

       1A    -40.605770     2A    -20.745128     3A    -20.741959
       4A    -20.723797     5A    -20.716114     6A     -2.924491
       7A     -1.649819     8A     -1.647924     9A     -1.647425
      10A     -1.524540    11A     -1.510796    12A     -1.501793
      13A     -1.488566    14A     -0.885066    15A     -0.879038
      16A     -0.871433    17A     -0.858588    18A     -0.768614
      19A     -0.757030    20A     -0.746079    21A     -0.723898
      22A     -0.700511    23A     -0.672012    24A     -0.671064
      25A     -0.659784

  @DF-RHF Final Energy:  -466.00420334125261

   => Energetics <=

    Nuclear Repulsion Energy =            205.1580122113543894
    One-Electron Energy =               -1049.0819503178668128
    Two-Electron Energy =                 377.9197347652598182
    Total Energy =                       -466.0042033412526052
 Dipole X            :          4.9014712           -5.8589938           -0.9575226
 Dipole Y            :         14.2528201          -14.1679590            0.0848611
 Dipole Z            :        -24.6533483           25.5569150            0.9035667
 Magnitude           :                                                    1.3192740
  Basis Set: (AUG-CC-PVTZ AUX)
    Blend: AUG-CC-PVTZ-RI + DEF2-QZVPP-RI
	 Reference Energy          =    -466.0042033412526052 [Eh]
	 Singles Energy            =      -0.0000000000000000 [Eh]
	 Same-Spin Energy          =      -0.2803450408554014 [Eh]
	 Opposite-Spin Energy      =      -0.8799803445801013 [Eh]
	 Correlation Energy        =      -1.1603253854355027 [Eh]
	 Total Energy              =    -467.1645287266881041 [Eh]

	 ================> DF-SCS-MP2 Energies <==================
	-----------------------------------------------------------
	 SCS Same-Spin Scale       =       0.3333333333333333 [-]
	 SCS Opposite-Spin Scale   =       1.2000000000000000 [-]
	 SCS Same-Spin Energy      =      -0.0934483469518004 [Eh]
	 SCS Opposite-Spin Energy  =      -1.0559764134961216 [Eh]
	 SCS Correlation Energy    =      -1.1494247604479220 [Eh]
	 SCS Total Energy          =    -467.1536281017005194 [Eh]
	-----------------------------------------------------------

*** Psi4 exiting successfully. Buy a developer a beer!
