                               Psi4 1.8.2 release

  ==> Input File <==

--------------------------------------------------------------------------
MEMORY 60 GB

molecule dimer {
0 1
Gh(Na)     0.000000     0.000000     0.000000
O         -0.283701     1.578559     1.887976
H          0.085980     1.398434     2.801414
H          0.312072     2.205050     1.541846
Gh(O)     -1.725746    -1.417014     0.457220
Gh(H)     -2.523655    -1.143003     0.934820
Gh(H)     -1.900792    -2.355054     0.361742
Gh(O)      1.131277    -1.180347     1.903162
Gh(H)      1.903346    -1.656998     2.213950
Gh(H)      0.798789    -0.647920     2.640386
Gh(O)     -0.883525     1.834306    -1.288208
Gh(H)     -0.936557     2.764670    -0.982975
Gh(H)     -0.954930     2.069278    -2.199800

units ang
no_reorient
no_com
symmetry c1
}

set {
basis        aug-cc-pVTZ
scf_type     df
}

energy("mp2")
--------------------------------------------------------------------------

    Molecular point group: c1

    Geometry (in Angstrom), charge = 0, multiplicity = 1:

       Center              X                  Y                   Z               Mass
    ------------   -----------------  -----------------  -----------------  -----------------
      Gh(NA)          0.000000000000     0.000000000000     0.000000000000    22.989769282000
         O           -0.283701000000     1.578559000000     1.887976000000    15.994914619570
         H            0.085980000000     1.398434000000     2.801414000000     1.007825032230
         H            0.312072000000     2.205050000000     1.541846000000     1.007825032230
      Gh(O)          -1.725746000000    -1.417014000000     0.457220000000    15.994914619570
      Gh(H)          -2.523655000000    -1.143003000000     0.934820000000     1.007825032230
      Gh(H)          -1.900792000000    -2.355054000000     0.361742000000     1.007825032230
      Gh(O)           1.131277000000    -1.180347000000     1.903162000000    15.994914619570
      Gh(H)           1.903346000000    -1.656998000000     2.213950000000     1.007825032230
      Gh(H)           0.798789000000    -0.647920000000     2.640386000000     1.007825032230
      Gh(O)          -0.883525000000     1.834306000000    -1.288208000000    15.994914619570
      Gh(H)          -0.936557000000     2.764670000000    -0.982975000000     1.007825032230
      Gh(H)          -0.954930000000     2.069278000000    -2.199800000000     1.007825032230

  Charge       = 0
  Multiplicity = 1
  Basis Set: AUG-CC-PVTZ
    Blend: AUG-CC-PVTZ
  Basis Set: (AUG-CC-PVTZ AUX)
    Blend: AUG-CC-PVTZ-JKFIT + DEF2-UNIVERSAL-JKFIT

    Orbital Energies [Eh]
    ---------------------

    Doubly Occupied:

       1A    -20.569024     2A     -1.351039     3A     -0.710079
       4A     -0.585676     5A     -0.510144

  @DF-RHF Final Energy:   -76.05748130623215

   => Energetics <=

    Nuclear Repulsion Energy =              9.1218083486809167
    One-Electron Energy =                -122.9066518118244176
    Two-Electron Energy =                  37.7273621569113544
    Total Energy =                        -76.0574813062321482
 Dipole X            :          4.1741220           -3.5367283            0.6373937
 Dipole Y            :        -30.3730041           30.6739513            0.3009472
 Dipole Z            :        -36.3865849           36.7496325            0.3630475
 Magnitude           :                                                    0.7928704
  Basis Set: (AUG-CC-PVTZ AUX)
    Blend: AUG-CC-PVTZ-RI + DEF2-QZVPP-RI
	 Reference Energy          =     -76.0574813062321482 [Eh]
	 Singles Energy            =      -0.0000000000000000 [Eh]
	 Same-Spin Energy          =      -0.0685866270508642 [Eh]
	 Opposite-Spin Energy      =      -0.2163949371036387 [Eh]
	 Correlation Energy        =      -0.2849815641545028 [Eh]
	 Total Energy              =     -76.3424628703866546 [Eh]

	 ================> DF-SCS-MP2 Energies <==================
	-----------------------------------------------------------
	 SCS Same-Spin Scale       =       0.3333333333333333 [-]
	 SCS Opposite-Spin Scale   =       1.2000000000000000 [-]
	 SCS Same-Spin Energy      =      -0.0228622090169547 [Eh]
	 SCS Opposite-Spin Energy  =      -0.2596739245243664 [Eh]
	 SCS Correlation Energy    =      -0.2825361335413212 [Eh]
	 SCS Total Energy          =     -76.3400174397734759 [Eh]
	-----------------------------------------------------------

*** Psi4 exiting successfully. Buy a developer a beer!
