                               Psi4 1.8.2 release

  ==> Input File <==

--------------------------------------------------------------------------
MEMORY 60 GB

molecule dimer {
1 1
Na         0.000000     0.000000     0.000000
O         -1.339451    -1.201724     1.367541
H         -2.235805    -0.821142     1.302148
H         -1.569153    -2.182228     1.427508
O          1.319402     1.894139     0.435760
H          1.823232     2.262470    -0.335659
H          1.739025     2.258973     1.197774
O          1.589395    -1.392547     1.045193
H          1.704872    -2.231908     0.499963
H          2.479783    -0.955865     0.973167
O         -1.214799     0.904461    -1.992201
H         -0.703953     1.278966    -2.714790
H         -2.095167     1.261371    -2.013025

units ang
no_reorient
no_com
symmetry c1
}

set {
basis        aug-cc-pVTZ
scf_type     df
}

energy("mp2")
--------------------------------------------------------------------------

    Molecular point group: c1

    Geometry (in Angstrom), charge = 1, multiplicity = 1:

       Center              X                  Y                   Z               Mass
    ------------   -----------------  -----------------  -----------------  -----------------
         NA           0.000000000000     0.000000000000     0.000000000000    22.989769282000
         O           -1.339451000000    -1.201724000000     1.367541000000    15.994914619570
         H           -2.235805000000    -0.821142000000     1.302148000000     1.007825032230
         H           -1.569153000000    -2.182228000000     1.427508000000     1.007825032230
         O            1.319402000000     1.894139000000     0.435760000000    15.994914619570
         H            1.823232000000     2.262470000000    -0.335659000000     1.007825032230
         H            1.739025000000     2.258973000000     1.197774000000     1.007825032230
         O            1.589395000000    -1.392547000000     1.045193000000    15.994914619570
         H            1.704872000000    -2.231908000000     0.499963000000     1.007825032230
         H            2.479783000000    -0.955865000000     0.973167000000     1.007825032230
         O           -1.214799000000     0.904461000000    -1.992201000000    15.994914619570
         H           -0.703953000000     1.278966000000    -2.714790000000     1.007825032230
         H           -2.095167000000     1.261371000000    -2.013025000000     1.007825032230

  Charge       = 1
  Multiplicity = 1
  Basis Set: AUG-CC-PVTZ
    Blend: AUG-CC-PVTZ
  Basis Set: (AUG-CC-PVTZ AUX)
    Blend: AUG-CC-PVTZ-JKFIT + DEF2-UNIVERSAL-JKFIT

    Orbital Energies [Eh]
    ---------------------

    Doubly Occupied:

       1A    -40.575893     2A    -20.734869     3A    -20.731426
       4A    -20.729405     5A    -20.728288     6A     -2.897984
       7A     -1.623605     8A     -1.622512     9A     -1.621382
      10A     -1.517656    11A     -1.516150    12A     -1.500776
      13A     -1.491211    14A     -0.892155    15A     -0.881705
      16A     -0.852898    17A     -0.846623    18A     -0.768561
      19A     -0.762195    20A     -0.752932    21A     -0.734772
      22A     -0.683578    23A     -0.676267    24A     -0.674315
      25A     -0.667300

  @DF-RHF Final Energy:  -466.01254235122752

   => Energetics <=

    Nuclear Repulsion Energy =            212.1687856980524884
    One-Electron Energy =               -1063.3937373036694680
    Two-Electron Energy =                 385.2124092543894562
    Total Energy =                       -466.0125423512275233
 Dipole X            :         -7.2093959            7.5196171            0.3102212
 Dipole Y            :         -4.3563280            4.7342723            0.3779443
 Dipole Z            :        -14.3742027           13.5822742           -0.7919285
 Magnitude           :                                                    0.9307147
  Basis Set: (AUG-CC-PVTZ AUX)
    Blend: AUG-CC-PVTZ-RI + DEF2-QZVPP-RI
	 Reference Energy          =    -466.0125423512275233 [Eh]
	 Singles Energy            =      -0.0000000000000000 [Eh]
	 Same-Spin Energy          =      -0.2808329680051938 [Eh]
	 Opposite-Spin Energy      =      -0.8808264027077495 [Eh]
	 Correlation Energy        =      -1.1616593707129432 [Eh]
	 Total Energy              =    -467.1742017219404488 [Eh]

	 ================> DF-SCS-MP2 Energies <==================
	-----------------------------------------------------------
	 SCS Same-Spin Scale       =       0.3333333333333333 [-]
	 SCS Opposite-Spin Scale   =       1.2000000000000000 [-]
	 SCS Same-Spin Energy      =      -0.0936109893350646 [Eh]
	 SCS Opposite-Spin Energy  =      -1.0569916832492994 [Eh]
	 SCS Correlation Energy    =      -1.1506026725843639 [Eh]
	 SCS Total Energy          =    -467.1631450238118646 [Eh]
	-----------------------------------------------------------

*** Psi4 exiting successfully. Buy a developer a beer!
