                               Psi4 1.8.2 release

  ==> Input File <==

--------------------------------------------------------------------------
MEMORY 60 GB

molecule dimer {
0 1
Gh(Na)     0.000000     0.000000     0.000000
Gh(O)      0.985243     1.361756    -1.542488
Gh(H)      1.874246     1.350733    -1.934909
Gh(H)      0.414988     1.260066    -2.324670
O          0.823978     0.878247     2.115655
H          1.298081     1.751934     2.375790
H          0.257828     0.586640     2.820213
Gh(O)     -0.226418    -1.408438    -1.797917
Gh(H)     -0.917865    -2.089083    -1.585986
Gh(H)      0.448556    -1.874981    -2.327105
Gh(O)     -1.974562     0.901395    -0.277079
Gh(H)     -2.014013     1.682929     0.320102
Gh(H)     -2.637138     0.327502     0.068322

units ang
no_reorient
no_com
symmetry c1
}

set {
basis        aug-cc-pVTZ
scf_type     df
}

energy("mp2")
--------------------------------------------------------------------------

    Molecular point group: c1

    Geometry (in Angstrom), charge = 0, multiplicity = 1:

       Center              X                  Y                   Z               Mass
    ------------   -----------------  -----------------  -----------------  -----------------
      Gh(NA)          0.000000000000     0.000000000000     0.000000000000    22.989769282000
      Gh(O)           0.985243000000     1.361756000000    -1.542488000000    15.994914619570
      Gh(H)           1.874246000000     1.350733000000    -1.934909000000     1.007825032230
      Gh(H)           0.414988000000     1.260066000000    -2.324670000000     1.007825032230
         O            0.823978000000     0.878247000000     2.115655000000    15.994914619570
         H            1.298081000000     1.751934000000     2.375790000000     1.007825032230
         H            0.257828000000     0.586640000000     2.820213000000     1.007825032230
      Gh(O)          -0.226418000000    -1.408438000000    -1.797917000000    15.994914619570
      Gh(H)          -0.917865000000    -2.089083000000    -1.585986000000     1.007825032230
      Gh(H)           0.448556000000    -1.874981000000    -2.327105000000     1.007825032230
      Gh(O)          -1.974562000000     0.901395000000    -0.277079000000    15.994914619570
      Gh(H)          -2.014013000000     1.682929000000     0.320102000000     1.007825032230
      Gh(H)          -2.637138000000     0.327502000000     0.068322000000     1.007825032230

  Charge       = 0
  Multiplicity = 1
  Basis Set: AUG-CC-PVTZ
    Blend: AUG-CC-PVTZ
  Basis Set: (AUG-CC-PVTZ AUX)
    Blend: AUG-CC-PVTZ-JKFIT + DEF2-UNIVERSAL-JKFIT

    Orbital Energies [Eh]
    ---------------------

    Doubly Occupied:

       1A    -20.569276     2A     -1.335371     3A     -0.711594
       4A     -0.567205     5A     -0.506053

  @DF-RHF Final Energy:   -76.05354577568546

   => Energetics <=

    Nuclear Repulsion Energy =              8.9034764259024097
    One-Electron Energy =                -122.5350428437498067
    Two-Electron Energy =                  37.5780206421619312
    Total Energy =                        -76.0535457756854640
 Dipole X            :        -15.4649447           15.3969839           -0.0679608
 Dipole Y            :        -17.3176911           17.6964348            0.3787437
 Dipole Z            :        -41.1592709           41.8030908            0.6438199
 Magnitude           :                                                    0.7500463
  Basis Set: (AUG-CC-PVTZ AUX)
    Blend: AUG-CC-PVTZ-RI + DEF2-QZVPP-RI
	 Reference Energy          =     -76.0535457756854640 [Eh]
	 Singles Energy            =      -0.0000000000000000 [Eh]
	 Same-Spin Energy          =      -0.0688385997757724 [Eh]
	 Opposite-Spin Energy      =      -0.2171185075947233 [Eh]
	 Correlation Energy        =      -0.2859571073704958 [Eh]
	 Total Energy              =     -76.3395028830559568 [Eh]

	 ================> DF-SCS-MP2 Energies <==================
	-----------------------------------------------------------
	 SCS Same-Spin Scale       =       0.3333333333333333 [-]
	 SCS Opposite-Spin Scale   =       1.2000000000000000 [-]
	 SCS Same-Spin Energy      =      -0.0229461999252575 [Eh]
	 SCS Opposite-Spin Energy  =      -0.2605422091136680 [Eh]
	 SCS Correlation Energy    =      -0.2834884090389255 [Eh]
	 SCS Total Energy          =     -76.3370341847243878 [Eh]
	-----------------------------------------------------------

*** Psi4 exiting successfully. Buy a developer a beer!
