                               Psi4 1.9 release

  ==> Input File <==

--------------------------------------------------------------------------
MEMORY 60 GB

molecule dimer {
1 1
Na     0.000000     0.000000     0.000000
--
0 1
O      0.897942     0.232779    -2.242681
H      0.375770     0.945152    -2.637263
H      1.742548     0.701814    -2.136948
O     -0.526370    -2.247938    -0.113789
H     -0.067939    -2.929889     0.403156
H     -1.121253    -2.676460    -0.712395
O      0.965071     2.227927    -0.066810
H      1.977096     2.201242     0.110202
H      0.828364     2.723446    -0.874262
O     -0.282618     0.653366     2.269494
H     -1.091358     0.346471     2.688083
H      0.398640     0.607206     2.959686

units ang
no_reorient
no_com
symmetry c1
}

set {
basis        aug-cc-pVTZ
scf_type     df
}

energy("mp2", bsse_type="cp")
--------------------------------------------------------------------------

                               Psi4 1.9 release
    Molecular point group: c1
  Charge       = 0
  Multiplicity = 1
  Basis Set: AUG-CC-PVTZ
    Blend: AUG-CC-PVTZ
  Basis Set: (AUG-CC-PVTZ AUX)
    Blend: AUG-CC-PVTZ-JKFIT + DEF2-UNIVERSAL-JKFIT
  @DF-RHF Final Energy:  -304.21378489157138
    Total Energy =                       -304.2137848915713221
 Dipole X            :        -21.1561659           21.6828461            0.5266802
 Dipole Y            :        -16.6505702           16.7203988            0.0698286
 Dipole Z            :          2.8181663           -2.7023632            0.1158031
 Magnitude           :                                                    0.5437632
  Basis Set: (AUG-CC-PVTZ AUX)
    Blend: AUG-CC-PVTZ-RI + DEF2-QZVPP-RI
	 Reference Energy          =    -304.2137848915713789 [Eh]
	 Singles Energy            =      -0.0000000000000000 [Eh]
	 Same-Spin Energy          =      -0.2766311607985955 [Eh]
	 Opposite-Spin Energy      =      -0.8689214604689840 [Eh]
	 Correlation Energy        =      -1.1455526212675795 [Eh]
	 Total Energy              =    -305.3593375128389766 [Eh]
	 SCS Total Energy          =    -305.3487010310670371 [Eh]
                               Psi4 1.9 release
    Molecular point group: c1
  Multiplicity = 1
  Basis Set: AUG-CC-PVTZ
    Blend: AUG-CC-PVTZ
  Basis Set: (AUG-CC-PVTZ AUX)
    Blend: AUG-CC-PVTZ-JKFIT + DEF2-UNIVERSAL-JKFIT
  @DF-RHF Final Energy:  -161.67607920891132
    Total Energy =                       -161.6760792089112897
  Basis Set: (AUG-CC-PVTZ AUX)
	 Singles Energy            =      -0.0000000000000000 [Eh]
	 Same-Spin Energy          =      -0.0050154048316744 [Eh]
	 Opposite-Spin Energy      =      -0.0161480773615312 [Eh]
	 Correlation Energy        =      -0.0211634821932056 [Eh]
	 Total Energy              =    -161.6972426911045204 [Eh]
	 SCS Total Energy          =    -161.6971287033557019 [Eh]
                               Psi4 1.9 release
    Molecular point group: c1

    Geometry (in Bohr), charge = 1, multiplicity = 1:

       Center              X                  Y                   Z               Mass
    ------------   -----------------  -----------------  -----------------  -----------------
         NA           0.000000000000     0.000000000000     0.000000000000    22.989769282000
         O            1.696864456546     0.439888557758    -4.238052876768    15.994914619570
         H            0.710102386163     1.786078426929    -4.983704790803     1.007825032230
         H            3.292938480464     1.326236251012    -4.038246464345     1.007825032230
         O           -0.994695140657    -4.247987167009    -0.215030046090    15.994914619570
         H           -0.128386103237    -5.536687787992     0.761854425835     1.007825032230
         H           -2.118861087348    -5.057776385743    -1.346231443146     1.007825032230
         O            1.823719881622     4.210171857513    -0.126252602442    15.994914619570
         H            3.736169963738     4.159744515855     0.208251598478     1.007825032230
         H            1.565381092189     5.146567057474    -1.652115741895     1.007825032230
         O           -0.534070618125     1.234682799686     4.288722103370    15.994914619570
         H           -2.062367724827     0.654735300413     5.079740672499     1.007825032230
         H            0.753320422653     1.147453041735     5.592995957352     1.007825032230

  Charge       = 1
  Multiplicity = 1
  Basis Set: AUG-CC-PVTZ
    Blend: AUG-CC-PVTZ
  Basis Set: (AUG-CC-PVTZ AUX)
    Blend: AUG-CC-PVTZ-JKFIT + DEF2-UNIVERSAL-JKFIT

    Orbital Energies [Eh]
    ---------------------

    Doubly Occupied:

       1A    -40.583563     2A    -20.736992     3A    -20.734339
       4A    -20.730156     5A    -20.726113     6A     -2.904938
       7A     -1.630308     8A     -1.629203     9A     -1.628435
      10A     -1.519137    11A     -1.517473    12A     -1.509478
      13A     -1.504421    14A     -0.890971    15A     -0.876238
      16A     -0.872856    17A     -0.865020    18A     -0.768460
      19A     -0.760502    20A     -0.758847    21A     -0.739167
      22A     -0.700054    23A     -0.679492    24A     -0.672527
      25A     -0.662103

  @DF-RHF Final Energy:  -466.00846805838597

   => Energetics <=

    Nuclear Repulsion Energy =            213.6152744501766279
    One-Electron Energy =               -1066.0458938879510242
    Two-Electron Energy =                 386.4221513793883673
    Total Energy =                       -466.0084680583859722
 Dipole X            :        -21.0073233           21.6828461            0.6755227
 Dipole Y            :        -16.5842908           16.7203988            0.1361080
 Dipole Z            :          2.8250014           -2.7023632            0.1226382
 Magnitude           :                                                    0.6999261
  Basis Set: (AUG-CC-PVTZ AUX)
    Blend: AUG-CC-PVTZ-RI + DEF2-QZVPP-RI
	 Reference Energy          =    -466.0084680583859722 [Eh]
	 Singles Energy            =      -0.0000000000000000 [Eh]
	 Same-Spin Energy          =      -0.2805960365189563 [Eh]
	 Opposite-Spin Energy      =      -0.8798536727518328 [Eh]
	 Correlation Energy        =      -1.1604497092707891 [Eh]
	 Total Energy              =    -467.1689177676567510 [Eh]

	 ================> DF-SCS-MP2 Energies <==================
	-----------------------------------------------------------
	 SCS Same-Spin Scale       =       0.3333333333333333 [-]
	 SCS Opposite-Spin Scale   =       1.2000000000000000 [-]
	 SCS Same-Spin Energy      =      -0.0935320121729854 [Eh]
	 SCS Opposite-Spin Energy  =      -1.0558244073021994 [Eh]
	 SCS Correlation Energy    =      -1.1493564194751849 [Eh]
	 SCS Total Energy          =    -467.1578244778611406 [Eh]
	-----------------------------------------------------------

*** Psi4 exiting successfully. Buy a developer a beer!
