                               Psi4 1.9 release

  ==> Input File <==

--------------------------------------------------------------------------
MEMORY 60 GB

molecule dimer {
1 1
Na     0.000000     0.000000     0.000000
--
0 1
O      1.840093    -0.013228     1.168474
H      2.578854    -0.628590     1.402113
H      1.971143     0.638358     1.806956
O     -0.529791    -1.975169    -1.169996
H     -0.194422    -2.273058    -1.972985
H     -1.435025    -2.192187    -1.229504
O      0.234253     1.720156    -1.715639
H      0.688439     2.544420    -1.572514
H     -0.667981     1.888890    -2.029084
O     -2.243886     0.693704     0.273219
H     -3.037219     0.241933     0.599418
H     -2.426716     1.627144     0.193199

units ang
no_reorient
no_com
symmetry c1
}

set {
basis        aug-cc-pVTZ
scf_type     df
}

energy("mp2", bsse_type="cp")
--------------------------------------------------------------------------

                               Psi4 1.9 release
    Molecular point group: c1
  Charge       = 0
  Multiplicity = 1
  Basis Set: AUG-CC-PVTZ
    Blend: AUG-CC-PVTZ
  Basis Set: (AUG-CC-PVTZ AUX)
    Blend: AUG-CC-PVTZ-JKFIT + DEF2-UNIVERSAL-JKFIT
  @DF-RHF Final Energy:  -304.22494317299169
    Total Energy =                       -304.2249431729916864
 Dipole X            :         14.6058862          -15.3399936           -0.7341074
 Dipole Y            :         -9.2742053            9.9222225            0.6480171
 Dipole Z            :         27.1986785          -27.1250098            0.0736687
 Magnitude           :                                                    0.9819709
  Basis Set: (AUG-CC-PVTZ AUX)
    Blend: AUG-CC-PVTZ-RI + DEF2-QZVPP-RI
	 Reference Energy          =    -304.2249431729916864 [Eh]
	 Singles Energy            =      -0.0000000000000000 [Eh]
	 Same-Spin Energy          =      -0.2746397026334614 [Eh]
	 Opposite-Spin Energy      =      -0.8637986931982469 [Eh]
	 Correlation Energy        =      -1.1384383958317084 [Eh]
	 Total Energy              =    -305.3633815688233994 [Eh]
	 SCS Total Energy          =    -305.3530481723740877 [Eh]
                               Psi4 1.9 release
    Molecular point group: c1
  Multiplicity = 1
  Basis Set: AUG-CC-PVTZ
    Blend: AUG-CC-PVTZ
  Basis Set: (AUG-CC-PVTZ AUX)
    Blend: AUG-CC-PVTZ-JKFIT + DEF2-UNIVERSAL-JKFIT
  @DF-RHF Final Energy:  -161.67608620462306
    Total Energy =                       -161.6760862046230613
  Basis Set: (AUG-CC-PVTZ AUX)
	 Singles Energy            =      -0.0000000000000000 [Eh]
	 Same-Spin Energy          =      -0.0051835216462231 [Eh]
	 Opposite-Spin Energy      =      -0.0164579640025510 [Eh]
	 Correlation Energy        =      -0.0216414856487742 [Eh]
	 Total Energy              =    -161.6977276902718472 [Eh]
	 SCS Total Energy          =    -161.6975636019748777 [Eh]
                               Psi4 1.9 release
    Molecular point group: c1

    Geometry (in Bohr), charge = 1, multiplicity = 1:

       Center              X                  Y                   Z               Mass
    ------------   -----------------  -----------------  -----------------  -----------------
         NA           0.000000000000     0.000000000000     0.000000000000    22.989769282000
         O            3.477271815372    -0.024997297188     2.208095844718    15.994914619570
         H            4.873327777541    -1.187862945202     2.649609566944     1.007825032230
         H            3.724920424113     1.206321789995     3.414651960753     1.007825032230
         O           -1.001159893732    -3.732528461494    -2.210972007881    15.994914619570
         H           -0.367404332764    -4.295457087281    -3.728401299636     1.007825032230
         H           -2.711804233185    -4.142633045789    -2.323425830155     1.007825032230
         O            0.442674014067     3.250623733063    -3.242087840154    15.994914619570
         H            1.300961164084     4.808256948137    -2.971620788448     1.007825032230
         H           -1.262301147009     3.569484781116    -3.834413045548     1.007825032230
         O           -4.240329996749     1.310910572135     0.516309082271    15.994914619570
         H           -5.739512093037     0.457187110710     1.132735854670     1.007825032230
         H           -4.585828624267     3.074856526682     0.365093197712     1.007825032230

  Charge       = 1
  Multiplicity = 1
  Basis Set: AUG-CC-PVTZ
    Blend: AUG-CC-PVTZ
  Basis Set: (AUG-CC-PVTZ AUX)
    Blend: AUG-CC-PVTZ-JKFIT + DEF2-UNIVERSAL-JKFIT

    Orbital Energies [Eh]
    ---------------------

    Doubly Occupied:

       1A    -40.567059     2A    -20.737401     3A    -20.735597
       4A    -20.724002     5A    -20.719185     6A     -2.890265
       7A     -1.616728     8A     -1.614912     9A     -1.614265
      10A     -1.530982    11A     -1.529466    12A     -1.522090
      13A     -1.508674    14A     -0.898002    15A     -0.889956
      16A     -0.884860    17A     -0.880468    18A     -0.785004
      19A     -0.767902    20A     -0.761707    21A     -0.741987
      22A     -0.686977    23A     -0.685709    24A     -0.675619
      25A     -0.672248

  @DF-RHF Final Energy:  -466.02787203692765

   => Energetics <=

    Nuclear Repulsion Energy =            214.5516928410183652
    One-Electron Energy =               -1067.8769997642734779
    Two-Electron Energy =                 387.2974348863274372
    Total Energy =                       -466.0278720369276471
 Dipole X            :         14.5345702          -15.3399936           -0.8054234
 Dipole Y            :         -9.2180321            9.9222225            0.7041903
 Dipole Z            :         27.0755771          -27.1250098           -0.0494327
 Magnitude           :                                                    1.0709969
  Basis Set: (AUG-CC-PVTZ AUX)
    Blend: AUG-CC-PVTZ-RI + DEF2-QZVPP-RI
	 Reference Energy          =    -466.0278720369276471 [Eh]
	 Singles Energy            =      -0.0000000000000000 [Eh]
	 Same-Spin Energy          =      -0.2785088551937003 [Eh]
	 Opposite-Spin Energy      =      -0.8743280515578373 [Eh]
	 Correlation Energy        =      -1.1528369067515376 [Eh]
	 Total Energy              =    -467.1807089436791784 [Eh]

	 ================> DF-SCS-MP2 Energies <==================
	-----------------------------------------------------------
	 SCS Same-Spin Scale       =       0.3333333333333333 [-]
	 SCS Opposite-Spin Scale   =       1.2000000000000000 [-]
	 SCS Same-Spin Energy      =      -0.0928362850645668 [Eh]
	 SCS Opposite-Spin Energy  =      -1.0491936618694047 [Eh]
	 SCS Correlation Energy    =      -1.1420299469339714 [Eh]
	 SCS Total Energy          =    -467.1699019838616209 [Eh]
	-----------------------------------------------------------

*** Psi4 exiting successfully. Buy a developer a beer!
