                               Psi4 1.9 release

  ==> Input File <==

--------------------------------------------------------------------------
MEMORY 60 GB

molecule dimer {
1 1
Na     0.000000     0.000000     0.000000
--
0 1
O     -1.303188     1.664866     1.104595
H     -0.470288     2.199361     1.156535
H     -1.573108     1.918059     0.254875
O      0.729354    -2.356522     0.687908
H      1.312049    -1.877683     1.251734
H      0.115995    -2.750276     1.273369
O      0.100788    -0.239392    -2.295890
H     -0.074582     0.302705    -3.084869
H     -0.313292    -1.090884    -2.589965
O      2.035040     1.209218     0.044939
H      2.826981     0.709029     0.335038
H      2.348264     1.657480    -0.765905

units ang
no_reorient
no_com
symmetry c1
}

set {
basis        aug-cc-pVTZ
scf_type     df
}

energy("mp2", bsse_type="cp")
--------------------------------------------------------------------------

                               Psi4 1.9 release
    Molecular point group: c1
  Charge       = 0
  Multiplicity = 1
  Basis Set: AUG-CC-PVTZ
    Blend: AUG-CC-PVTZ
  Basis Set: (AUG-CC-PVTZ AUX)
    Blend: AUG-CC-PVTZ-JKFIT + DEF2-UNIVERSAL-JKFIT
  @DF-RHF Final Energy:  -304.23045029767962
    Total Energy =                       -304.2304502976796243
 Dipole X            :        -30.7973355           31.4979003            0.7005648
 Dipole Y            :         -5.9416231            6.2231535            0.2815304
 Dipole Z            :         10.2097595          -11.0299005           -0.8201410
 Magnitude           :                                                    1.1147563
  Basis Set: (AUG-CC-PVTZ AUX)
    Blend: AUG-CC-PVTZ-RI + DEF2-QZVPP-RI
	 Reference Energy          =    -304.2304502976796243 [Eh]
	 Singles Energy            =      -0.0000000000000000 [Eh]
	 Same-Spin Energy          =      -0.2755550570229366 [Eh]
	 Opposite-Spin Energy      =      -0.8666153768642588 [Eh]
	 Correlation Energy        =      -1.1421704338871954 [Eh]
	 Total Energy              =    -305.3726207315668262 [Eh]
	 SCS Total Energy          =    -305.3622404355910476 [Eh]
                               Psi4 1.9 release
    Molecular point group: c1
  Multiplicity = 1
  Basis Set: AUG-CC-PVTZ
    Blend: AUG-CC-PVTZ
  Basis Set: (AUG-CC-PVTZ AUX)
    Blend: AUG-CC-PVTZ-JKFIT + DEF2-UNIVERSAL-JKFIT
  @DF-RHF Final Energy:  -161.67608597621432
    Total Energy =                       -161.6760859762142957
  Basis Set: (AUG-CC-PVTZ AUX)
	 Singles Energy            =      -0.0000000000000000 [Eh]
	 Same-Spin Energy          =      -0.0048286673863027 [Eh]
	 Opposite-Spin Energy      =      -0.0155874735202156 [Eh]
	 Correlation Energy        =      -0.0204161409065183 [Eh]
	 Total Energy              =    -161.6965021171208434 [Eh]
	 SCS Total Energy          =    -161.6964005002340059 [Eh]
                               Psi4 1.9 release
    Molecular point group: c1

    Geometry (in Bohr), charge = 1, multiplicity = 1:

       Center              X                  Y                   Z               Mass
    ------------   -----------------  -----------------  -----------------  -----------------
         NA           0.000000000000     0.000000000000     0.000000000000    22.989769282000
         O           -2.462668409983     3.146140775586     2.087382029550    15.994914619570
         H           -0.888715520089     4.156189941013     2.185534404506     1.007825032230
         H           -2.972743285767     3.624606202470     0.481643946226     1.007825032230
         O            1.378279308507    -4.453181188616     1.299957719511    15.994914619570
         H            2.479413273181    -3.548306620428     2.365434441924     1.007825032230
         H            0.219198781922    -5.197268409420     2.406318666648     1.007825032230
         O            0.190461716733    -0.452385316626    -4.338603314177    15.994914619570
         H           -0.140939553889     0.572029546807    -5.829557542915     1.007825032230
         H           -0.592036077297    -2.061471994644    -4.894324524521     1.007825032230
         O            3.845668254352     2.285090845974     0.084922402352    15.994914619570
         H            5.342219851873     1.339870625007     0.633130061621     1.007825032230
         H            4.437575830272     3.132183258424    -1.447350688119     1.007825032230

  Charge       = 1
  Multiplicity = 1
  Basis Set: AUG-CC-PVTZ
    Blend: AUG-CC-PVTZ
  Basis Set: (AUG-CC-PVTZ AUX)
    Blend: AUG-CC-PVTZ-JKFIT + DEF2-UNIVERSAL-JKFIT

    Orbital Energies [Eh]
    ---------------------

    Doubly Occupied:

       1A    -40.605672     2A    -20.751348     3A    -20.749763
       4A    -20.741240     5A    -20.733106     6A     -2.927344
       7A     -1.652321     8A     -1.651764     9A     -1.651044
      10A     -1.534327    11A     -1.532778    12A     -1.526996
      13A     -1.524373    14A     -0.897076    15A     -0.884738
      16A     -0.877087    17A     -0.873562    18A     -0.785887
      19A     -0.779252    20A     -0.768145    21A     -0.760648
      22A     -0.697169    23A     -0.694005    24A     -0.690532
      25A     -0.685759

  @DF-RHF Final Energy:  -466.00139666467965

   => Energetics <=

    Nuclear Repulsion Energy =            211.8529984313634600
    One-Electron Energy =               -1061.7569174077100342
    Two-Electron Energy =                 383.9025223116669849
    Total Energy =                       -466.0013966646796462
 Dipole X            :        -30.6072506           31.4979003            0.8906496
 Dipole Y            :         -5.8732834            6.2231535            0.3498701
 Dipole Z            :         10.0846783          -11.0299005           -0.9452223
 Magnitude           :                                                    1.3450320
  Basis Set: (AUG-CC-PVTZ AUX)
    Blend: AUG-CC-PVTZ-RI + DEF2-QZVPP-RI
	 Reference Energy          =    -466.0013966646796462 [Eh]
	 Singles Energy            =      -0.0000000000000000 [Eh]
	 Same-Spin Energy          =      -0.2800145404825649 [Eh]
	 Opposite-Spin Energy      =      -0.8787306829494109 [Eh]
	 Correlation Energy        =      -1.1587452234319757 [Eh]
	 Total Energy              =    -467.1601418881116388 [Eh]

	 ================> DF-SCS-MP2 Energies <==================
	-----------------------------------------------------------
	 SCS Same-Spin Scale       =       0.3333333333333333 [-]
	 SCS Opposite-Spin Scale   =       1.2000000000000000 [-]
	 SCS Same-Spin Energy      =      -0.0933381801608550 [Eh]
	 SCS Opposite-Spin Energy  =      -1.0544768195392931 [Eh]
	 SCS Correlation Energy    =      -1.1478149997001481 [Eh]
	 SCS Total Energy          =    -467.1492116643797772 [Eh]
	-----------------------------------------------------------

*** Psi4 exiting successfully. Buy a developer a beer!
