                               Psi4 1.8.2 release

  ==> Input File <==

--------------------------------------------------------------------------
MEMORY 60 GB

molecule dimer {
0 1
Gh(Na)     0.000000     0.000000     0.000000
Gh(O)     -1.270703     1.958564     0.911769
Gh(H)     -2.124725     1.551684     0.575181
Gh(H)     -1.379974     2.228364     1.821269
O          0.587472    -2.201463     0.748927
H         -0.101641    -2.358357     1.431600
H          1.379076    -2.483852     1.213110
Gh(O)     -2.211830    -1.319853     0.286643
Gh(H)     -2.899654    -0.680785     0.484013
Gh(H)     -1.960837    -1.588265     1.197980
Gh(O)      1.514145     0.926826     1.650245
Gh(H)      1.294798     1.672359     2.220085
Gh(H)      2.399115     1.116522     1.261384
Gh(O)     -0.863562     0.600979    -1.935483
Gh(H)     -1.872318     0.424331    -1.975920
Gh(H)     -0.615829     1.523469    -1.858067

units ang
no_reorient
no_com
symmetry c1
}

set {
basis        aug-cc-pVTZ
scf_type     df
}

energy("mp2")
--------------------------------------------------------------------------

    Molecular point group: c1

    Geometry (in Angstrom), charge = 0, multiplicity = 1:

       Center              X                  Y                   Z               Mass
    ------------   -----------------  -----------------  -----------------  -----------------
      Gh(NA)          0.000000000000     0.000000000000     0.000000000000    22.989769282000
      Gh(O)          -1.270703000000     1.958564000000     0.911769000000    15.994914619570
      Gh(H)          -2.124725000000     1.551684000000     0.575181000000     1.007825032230
      Gh(H)          -1.379974000000     2.228364000000     1.821269000000     1.007825032230
         O            0.587472000000    -2.201463000000     0.748927000000    15.994914619570
         H           -0.101641000000    -2.358357000000     1.431600000000     1.007825032230
         H            1.379076000000    -2.483852000000     1.213110000000     1.007825032230
      Gh(O)          -2.211830000000    -1.319853000000     0.286643000000    15.994914619570
      Gh(H)          -2.899654000000    -0.680785000000     0.484013000000     1.007825032230
      Gh(H)          -1.960837000000    -1.588265000000     1.197980000000     1.007825032230
      Gh(O)           1.514145000000     0.926826000000     1.650245000000    15.994914619570
      Gh(H)           1.294798000000     1.672359000000     2.220085000000     1.007825032230
      Gh(H)           2.399115000000     1.116522000000     1.261384000000     1.007825032230
      Gh(O)          -0.863562000000     0.600979000000    -1.935483000000    15.994914619570
      Gh(H)          -1.872318000000     0.424331000000    -1.975920000000     1.007825032230
      Gh(H)          -0.615829000000     1.523469000000    -1.858067000000     1.007825032230

  Charge       = 0
  Multiplicity = 1
  Basis Set: AUG-CC-PVTZ
    Blend: AUG-CC-PVTZ
  Basis Set: (AUG-CC-PVTZ AUX)
    Blend: AUG-CC-PVTZ-JKFIT + DEF2-UNIVERSAL-JKFIT

    Orbital Energies [Eh]
    ---------------------

    Doubly Occupied:

       1A    -20.570829     2A     -1.348691     3A     -0.703797
       4A     -0.588401     5A     -0.510138

  @DF-RHF Final Energy:   -76.05881326648833

   => Energetics <=

    Nuclear Repulsion Energy =              9.0698474525542068
    One-Electron Energy =                -122.8136070343606434
    Two-Electron Energy =                  37.6849463153181219
    Total Energy =                        -76.0588132664883290
 Dipole X            :        -11.2242007           11.2952918            0.0710911
 Dipole Y            :         42.1442839          -42.4317460           -0.2874621
 Dipole Z            :        -15.5718090           16.3199129            0.7481039
 Magnitude           :                                                    0.8045793
  Basis Set: (AUG-CC-PVTZ AUX)
    Blend: AUG-CC-PVTZ-RI + DEF2-QZVPP-RI
	 Reference Energy          =     -76.0588132664883290 [Eh]
	 Singles Energy            =      -0.0000000000000000 [Eh]
	 Same-Spin Energy          =      -0.0687404837884137 [Eh]
	 Opposite-Spin Energy      =      -0.2169004049586429 [Eh]
	 Correlation Energy        =      -0.2856408887470566 [Eh]
	 Total Energy              =     -76.3444541552353826 [Eh]

	 ================> DF-SCS-MP2 Energies <==================
	-----------------------------------------------------------
	 SCS Same-Spin Scale       =       0.3333333333333333 [-]
	 SCS Opposite-Spin Scale   =       1.2000000000000000 [-]
	 SCS Same-Spin Energy      =      -0.0229134945961379 [Eh]
	 SCS Opposite-Spin Energy  =      -0.2602804859503715 [Eh]
	 SCS Correlation Energy    =      -0.2831939805465093 [Eh]
	 SCS Total Energy          =     -76.3420072470348430 [Eh]
	-----------------------------------------------------------

*** Psi4 exiting successfully. Buy a developer a beer!
