                               Psi4 1.8.2 release

  ==> Input File <==

--------------------------------------------------------------------------
MEMORY 60 GB

molecule dimer {
1 1
Na         0.000000     0.000000     0.000000
O         -0.763534     0.932846     2.231461
H         -0.733128     1.900005     2.285331
H         -0.178159     0.502091     2.866138
O          0.452399     2.241951    -0.962680
H          1.205593     2.615208    -0.515886
H          0.800151     2.215705    -1.892096
O          0.346113    -2.463872     0.347284
H          0.268206    -3.107115    -0.361290
H         -0.089641    -3.005871     1.016265
O          2.050775    -0.213605    -1.193701
H          2.004919    -1.173998    -1.292082
H          2.563798    -0.024846    -0.341802
O         -1.677611    -0.559730    -1.506099
H         -2.457862    -0.155870    -2.009591
H         -1.026711    -0.660387    -2.183118

units ang
no_reorient
no_com
symmetry c1
}

set {
basis        aug-cc-pVTZ
scf_type     df
}

energy("mp2")
--------------------------------------------------------------------------

    Molecular point group: c1

    Geometry (in Angstrom), charge = 1, multiplicity = 1:

       Center              X                  Y                   Z               Mass
    ------------   -----------------  -----------------  -----------------  -----------------
         NA           0.000000000000     0.000000000000     0.000000000000    22.989769282000
         O           -0.763534000000     0.932846000000     2.231461000000    15.994914619570
         H           -0.733128000000     1.900005000000     2.285331000000     1.007825032230
         H           -0.178159000000     0.502091000000     2.866138000000     1.007825032230
         O            0.452399000000     2.241951000000    -0.962680000000    15.994914619570
         H            1.205593000000     2.615208000000    -0.515886000000     1.007825032230
         H            0.800151000000     2.215705000000    -1.892096000000     1.007825032230
         O            0.346113000000    -2.463872000000     0.347284000000    15.994914619570
         H            0.268206000000    -3.107115000000    -0.361290000000     1.007825032230
         H           -0.089641000000    -3.005871000000     1.016265000000     1.007825032230
         O            2.050775000000    -0.213605000000    -1.193701000000    15.994914619570
         H            2.004919000000    -1.173998000000    -1.292082000000     1.007825032230
         H            2.563798000000    -0.024846000000    -0.341802000000     1.007825032230
         O           -1.677611000000    -0.559730000000    -1.506099000000    15.994914619570
         H           -2.457862000000    -0.155870000000    -2.009591000000     1.007825032230
         H           -1.026711000000    -0.660387000000    -2.183118000000     1.007825032230

  Charge       = 1
  Multiplicity = 1
  Basis Set: AUG-CC-PVTZ
    Blend: AUG-CC-PVTZ
  Basis Set: (AUG-CC-PVTZ AUX)
    Blend: AUG-CC-PVTZ-JKFIT + DEF2-UNIVERSAL-JKFIT

    Orbital Energies [Eh]
    ---------------------

    Doubly Occupied:

       1A    -40.573669     2A    -20.738429     3A    -20.735486
       4A    -20.725980     5A    -20.718860     6A    -20.718256
       7A     -2.895044     8A     -1.620661     9A     -1.619359
      10A     -1.618459    11A     -1.524260    12A     -1.508891
      13A     -1.504080    14A     -1.499282    15A     -1.498167
      16A     -0.881321    17A     -0.878012    18A     -0.863215
      19A     -0.860627    20A     -0.850405    21A     -0.781490
      22A     -0.751548    23A     -0.749746    24A     -0.745962
      25A     -0.727163    26A     -0.687235    27A     -0.682079
      28A     -0.670138    29A     -0.665855    30A     -0.659138

  @DF-RHF Final Energy:  -542.07200575033971

   => Energetics <=

    Nuclear Repulsion Energy =            298.5341682531300194
    One-Electron Energy =               -1339.3066964756210382
    Two-Electron Energy =                 498.7005224721513059
    Total Energy =                       -542.0720057503397129
 Dipole X            :         -9.6444212           10.6246110            0.9801897
 Dipole Y            :          2.0814637           -2.6349547           -0.5534910
 Dipole Z            :         20.7311198          -20.9722013           -0.2410816
 Magnitude           :                                                    1.1511927
  Basis Set: (AUG-CC-PVTZ AUX)
    Blend: AUG-CC-PVTZ-RI + DEF2-QZVPP-RI
	 Reference Energy          =    -542.0720057503397129 [Eh]
	 Singles Energy            =      -0.0000000000000000 [Eh]
	 Same-Spin Energy          =      -0.3512053012010268 [Eh]
	 Opposite-Spin Energy      =      -1.0997355936895821 [Eh]
	 Correlation Energy        =      -1.4509408948906088 [Eh]
	 Total Energy              =    -543.5229466452303768 [Eh]

	 ================> DF-SCS-MP2 Energies <==================
	-----------------------------------------------------------
	 SCS Same-Spin Scale       =       0.3333333333333333 [-]
	 SCS Opposite-Spin Scale   =       1.2000000000000000 [-]
	 SCS Same-Spin Energy      =      -0.1170684337336756 [Eh]
	 SCS Opposite-Spin Energy  =      -1.3196827124274984 [Eh]
	 SCS Correlation Energy    =      -1.4367511461611739 [Eh]
	 SCS Total Energy          =    -543.5087568965009268 [Eh]
	-----------------------------------------------------------

*** Psi4 exiting successfully. Buy a developer a beer!
