                               Psi4 1.9 release

  ==> Input File <==

--------------------------------------------------------------------------
MEMORY 60 GB

molecule dimer {
1 1
Na     0.000000     0.000000     0.000000
--
0 1
O      1.253579     0.063260    -2.196883
H      0.530569    -0.042832    -2.850777
H      1.564699     0.980568    -2.311182
O     -1.425901     1.291559    -1.588414
H     -2.039556     2.035442    -1.483596
H     -1.231776     1.193012    -2.572110
O      1.955432     0.647696     0.920318
H      2.748734     0.681493     0.364928
H      2.082270     1.398481     1.485384
O     -1.171308     1.996727     1.191900
H     -0.733170     1.943359     2.043845
H     -0.778785     2.688259     0.685134
O     -1.590268    -1.637366     0.582324
H     -1.565435    -2.598292     0.444562
H     -2.397617    -1.328886     0.147644
O      1.193429    -2.328553     0.401489
H      1.334662    -2.417231     1.342880
H      0.959023    -3.262843     0.115842

units ang
no_reorient
no_com
symmetry c1
}

set {
basis        aug-cc-pVTZ
scf_type     df
}

energy("mp2", bsse_type="cp")
--------------------------------------------------------------------------

                               Psi4 1.9 release
    Molecular point group: c1
  Charge       = 0
  Multiplicity = 1
  Basis Set: AUG-CC-PVTZ
    Blend: AUG-CC-PVTZ
  Basis Set: (AUG-CC-PVTZ AUX)
    Blend: AUG-CC-PVTZ-JKFIT + DEF2-UNIVERSAL-JKFIT
  @DF-RHF Final Energy:  -456.31932377665652
    Total Energy =                       -456.3193237766565176
 Dipole X            :         -4.0879617            4.1447779            0.0568162
 Dipole Y            :         -2.1077750            2.9047245            0.7969494
 Dipole Z            :         14.6053201          -15.3097560           -0.7044360
 Magnitude           :                                                    1.0651697
  Basis Set: (AUG-CC-PVTZ AUX)
    Blend: AUG-CC-PVTZ-RI + DEF2-QZVPP-RI
	 Reference Energy          =    -456.3193237766565176 [Eh]
	 Singles Energy            =      -0.0000000000000000 [Eh]
	 Same-Spin Energy          =      -0.4169271803863035 [Eh]
	 Opposite-Spin Energy      =      -1.3064891973946497 [Eh]
	 Correlation Energy        =      -1.7234163777809532 [Eh]
	 Total Energy              =    -458.0427401544374675 [Eh]
	 SCS Total Energy          =    -458.0260865403255366 [Eh]
                               Psi4 1.9 release
    Molecular point group: c1
  Multiplicity = 1
  Basis Set: AUG-CC-PVTZ
    Blend: AUG-CC-PVTZ
  Basis Set: (AUG-CC-PVTZ AUX)
    Blend: AUG-CC-PVTZ-JKFIT + DEF2-UNIVERSAL-JKFIT
  @DF-RHF Final Energy:  -161.67609472043026
    Total Energy =                       -161.6760947204302568
  Basis Set: (AUG-CC-PVTZ AUX)
	 Singles Energy            =      -0.0000000000000000 [Eh]
	 Same-Spin Energy          =      -0.0063821524809569 [Eh]
	 Opposite-Spin Energy      =      -0.0195339440512231 [Eh]
	 Correlation Energy        =      -0.0259160965321799 [Eh]
	 Total Energy              =    -161.7020108169624280 [Eh]
	 SCS Total Energy          =    -161.7016628374520337 [Eh]
                               Psi4 1.9 release
    Molecular point group: c1

    Geometry (in Bohr), charge = 1, multiplicity = 1:

       Center              X                  Y                   Z               Mass
    ------------   -----------------  -----------------  -----------------  -----------------
         NA           0.000000000000     0.000000000000     0.000000000000    22.989769282000
         O            2.368920986625     0.119544074696    -4.151507199674    15.994914619570
         H            1.002630100658    -0.080940749406    -5.387187774754     1.007825032230
         H            2.956852578778     1.853004967388    -4.367501006088     1.007825032230
         O           -2.694562372016     2.440692784870    -3.001667433843    15.994914619570
         H           -3.854202257534     3.846427924254    -2.803590120825     1.007825032230
         H           -2.327719287912     2.254465944385    -4.860583464551     1.007825032230
         O            3.695230936956     1.223968052555     1.739148968329    15.994914619570
         H            5.194354451734     1.287835126417     0.689613975511     1.007825032230
         H            3.934920019257     2.642746081656     2.806968951137     1.007825032230
         O           -2.213451328558     3.773267177307     2.252364568933    15.994914619570
         H           -1.385490503402     3.672416273444     3.862307292886     1.007825032230
         H           -1.471690360615     5.080073264297     1.294715619239     1.007825032230
         O           -3.005170986080    -3.094173307136     1.100432876281    15.994914619570
         H           -2.958243417206    -4.910060273968     0.840100425786     1.007825032230
         H           -4.530839483742    -2.511230591955     0.279006724067     1.007825032230
         O            2.255253960179    -4.400327438613     0.758704252384    15.994914619570
         H            2.522145650056    -4.567904571967     2.537675419355     1.007825032230
         H            1.812290818015    -6.165879660367     0.218909653825     1.007825032230

  Charge       = 1
  Multiplicity = 1
  Basis Set: AUG-CC-PVTZ
    Blend: AUG-CC-PVTZ
  Basis Set: (AUG-CC-PVTZ AUX)
    Blend: AUG-CC-PVTZ-JKFIT + DEF2-UNIVERSAL-JKFIT

    Orbital Energies [Eh]
    ---------------------

    Doubly Occupied:

       1A    -40.540269     2A    -20.728110     3A    -20.723391
       4A    -20.718470     5A    -20.707959     6A    -20.705877
       7A    -20.693643     8A     -2.862170     9A     -1.588571
      10A     -1.586779    11A     -1.585665    12A     -1.513507
      13A     -1.501525    14A     -1.496853    15A     -1.491806
      16A     -1.487717    17A     -1.468173    18A     -0.880064
      19A     -0.870210    20A     -0.866710    21A     -0.854521
      22A     -0.853454    23A     -0.827506    24A     -0.763067
      25A     -0.746758    26A     -0.733548    27A     -0.731353
      28A     -0.721404    29A     -0.711081    30A     -0.678227
      31A     -0.670850    32A     -0.659844    33A     -0.656542
      34A     -0.653647    35A     -0.630572

  @DF-RHF Final Energy:  -618.14708461291900

   => Energetics <=

    Nuclear Repulsion Energy =            400.5542463738572678
    One-Electron Energy =               -1647.5829710140576481
    Two-Electron Energy =                 628.8816400272813780
    Total Energy =                       -618.1470846129190022
 Dipole X            :         -4.0612078            4.1447779            0.0835701
 Dipole Y            :         -2.0785526            2.9047245            0.8261719
 Dipole Z            :         14.5055896          -15.3097560           -0.8041665
 Magnitude           :                                                    1.1559532
  Basis Set: (AUG-CC-PVTZ AUX)
    Blend: AUG-CC-PVTZ-RI + DEF2-QZVPP-RI
	 Reference Energy          =    -618.1470846129190022 [Eh]
	 Singles Energy            =      -0.0000000000000000 [Eh]
	 Same-Spin Energy          =      -0.4221435000822163 [Eh]
	 Opposite-Spin Energy      =      -1.3194753987150643 [Eh]
	 Correlation Energy        =      -1.7416188987972805 [Eh]
	 Total Energy              =    -619.8887035117162441 [Eh]

	 ================> DF-SCS-MP2 Energies <==================
	-----------------------------------------------------------
	 SCS Same-Spin Scale       =       0.3333333333333333 [-]
	 SCS Opposite-Spin Scale   =       1.2000000000000000 [-]
	 SCS Same-Spin Energy      =      -0.1407145000274054 [Eh]
	 SCS Opposite-Spin Energy  =      -1.5833704784580771 [Eh]
	 SCS Correlation Energy    =      -1.7240849784854826 [Eh]
	 SCS Total Energy          =    -619.8711695914045094 [Eh]
	-----------------------------------------------------------

*** Psi4 exiting successfully. Buy a developer a beer!
