                               Psi4 1.8.2 release

  ==> Input File <==

--------------------------------------------------------------------------
MEMORY 60 GB

molecule dimer {
0 1
Gh(Na)     0.000000     0.000000     0.000000
Gh(O)     -0.451034    -1.697463     1.269793
Gh(H)     -1.299480    -1.713730     1.650871
Gh(H)      0.116268    -2.326969     1.787042
Gh(O)      2.181291     0.802292     0.600639
Gh(H)      2.001660     1.202889    -0.254796
Gh(H)      1.826088     1.341891     1.245008
O         -2.020617     0.591528    -1.382805
H         -2.011262     0.924934    -2.259301
H         -2.600586     1.147604    -0.907925
Gh(O)      1.106793     1.662868    -1.598105
Gh(H)      0.664469     2.524075    -1.599745
Gh(H)      1.116358     1.388905    -2.523674
Gh(O)     -1.021770     1.888638     1.155341
Gh(H)     -1.838470     1.688382     1.662850
Gh(H)     -1.163799     2.645063     0.665315

units ang
no_reorient
no_com
symmetry c1
}

set {
basis        aug-cc-pVTZ
scf_type     df
}

energy("mp2")
--------------------------------------------------------------------------

    Molecular point group: c1

    Geometry (in Angstrom), charge = 0, multiplicity = 1:

       Center              X                  Y                   Z               Mass
    ------------   -----------------  -----------------  -----------------  -----------------
      Gh(NA)          0.000000000000     0.000000000000     0.000000000000    22.989769282000
      Gh(O)          -0.451034000000    -1.697463000000     1.269793000000    15.994914619570
      Gh(H)          -1.299480000000    -1.713730000000     1.650871000000     1.007825032230
      Gh(H)           0.116268000000    -2.326969000000     1.787042000000     1.007825032230
      Gh(O)           2.181291000000     0.802292000000     0.600639000000    15.994914619570
      Gh(H)           2.001660000000     1.202889000000    -0.254796000000     1.007825032230
      Gh(H)           1.826088000000     1.341891000000     1.245008000000     1.007825032230
         O           -2.020617000000     0.591528000000    -1.382805000000    15.994914619570
         H           -2.011262000000     0.924934000000    -2.259301000000     1.007825032230
         H           -2.600586000000     1.147604000000    -0.907925000000     1.007825032230
      Gh(O)           1.106793000000     1.662868000000    -1.598105000000    15.994914619570
      Gh(H)           0.664469000000     2.524075000000    -1.599745000000     1.007825032230
      Gh(H)           1.116358000000     1.388905000000    -2.523674000000     1.007825032230
      Gh(O)          -1.021770000000     1.888638000000     1.155341000000    15.994914619570
      Gh(H)          -1.838470000000     1.688382000000     1.662850000000     1.007825032230
      Gh(H)          -1.163799000000     2.645063000000     0.665315000000     1.007825032230

  Charge       = 0
  Multiplicity = 1
  Basis Set: AUG-CC-PVTZ
    Blend: AUG-CC-PVTZ
  Basis Set: (AUG-CC-PVTZ AUX)
    Blend: AUG-CC-PVTZ-JKFIT + DEF2-UNIVERSAL-JKFIT

    Orbital Energies [Eh]
    ---------------------

    Doubly Occupied:

       1A    -20.562576     2A     -1.364151     3A     -0.732131
       4A     -0.586716     5A     -0.511869

  @DF-RHF Final Energy:   -76.06123351028373

   => Energetics <=

    Nuclear Repulsion Energy =              9.4048984896663992
    One-Electron Energy =                -123.4173762388226265
    Two-Electron Energy =                  37.9512442388724907
    Total Energy =                        -76.0612335102837420
 Dipole X            :         38.8759523          -39.2624315           -0.3864792
 Dipole Y            :        -12.2573395           12.8591365            0.6017970
 Dipole Z            :         26.6191088          -26.8901716           -0.2710628
 Magnitude           :                                                    0.7648535
  Basis Set: (AUG-CC-PVTZ AUX)
    Blend: AUG-CC-PVTZ-RI + DEF2-QZVPP-RI
	 Reference Energy          =     -76.0612335102837278 [Eh]
	 Singles Energy            =      -0.0000000000000000 [Eh]
	 Same-Spin Energy          =      -0.0680137040098831 [Eh]
	 Opposite-Spin Energy      =      -0.2146486856013273 [Eh]
	 Correlation Energy        =      -0.2826623896112104 [Eh]
	 Total Energy              =     -76.3438958998949317 [Eh]

	 ================> DF-SCS-MP2 Energies <==================
	-----------------------------------------------------------
	 SCS Same-Spin Scale       =       0.3333333333333333 [-]
	 SCS Opposite-Spin Scale   =       1.2000000000000000 [-]
	 SCS Same-Spin Energy      =      -0.0226712346699610 [Eh]
	 SCS Opposite-Spin Energy  =      -0.2575784227215927 [Eh]
	 SCS Correlation Energy    =      -0.2802496573915537 [Eh]
	 SCS Total Energy          =     -76.3414831676752783 [Eh]
	-----------------------------------------------------------

*** Psi4 exiting successfully. Buy a developer a beer!
