                               Psi4 1.8.2 release

  ==> Input File <==

--------------------------------------------------------------------------
MEMORY 60 GB

molecule dimer {
0 1
Gh(Na)     0.000000     0.000000     0.000000
Gh(O)     -1.116986    -1.262600     1.452823
Gh(H)     -1.933314    -0.949816     1.831289
Gh(H)     -1.388892    -2.089831     1.067611
Gh(O)     -2.064765    -0.369848    -1.354204
Gh(H)     -2.208321     0.074992    -2.228213
Gh(H)     -2.865148    -0.793867    -1.087041
Gh(O)     -0.752363     1.854057     1.354572
Gh(H)     -1.096528     1.642435     2.231559
Gh(H)     -1.447594     2.380144     0.877744
Gh(O)      2.350808     0.315241     0.892599
Gh(H)      3.010726     0.173134     0.141394
Gh(H)      2.495966     1.172138     1.167830
O          1.084462     1.438589    -1.573635
H          1.544269     0.800080    -2.144693
H          1.595583     2.266747    -1.520243

units ang
no_reorient
no_com
symmetry c1
}

set {
basis        aug-cc-pVTZ
scf_type     df
}

energy("mp2")
--------------------------------------------------------------------------

    Molecular point group: c1

    Geometry (in Angstrom), charge = 0, multiplicity = 1:

       Center              X                  Y                   Z               Mass
    ------------   -----------------  -----------------  -----------------  -----------------
      Gh(NA)          0.000000000000     0.000000000000     0.000000000000    22.989769282000
      Gh(O)          -1.116986000000    -1.262600000000     1.452823000000    15.994914619570
      Gh(H)          -1.933314000000    -0.949816000000     1.831289000000     1.007825032230
      Gh(H)          -1.388892000000    -2.089831000000     1.067611000000     1.007825032230
      Gh(O)          -2.064765000000    -0.369848000000    -1.354204000000    15.994914619570
      Gh(H)          -2.208321000000     0.074992000000    -2.228213000000     1.007825032230
      Gh(H)          -2.865148000000    -0.793867000000    -1.087041000000     1.007825032230
      Gh(O)          -0.752363000000     1.854057000000     1.354572000000    15.994914619570
      Gh(H)          -1.096528000000     1.642435000000     2.231559000000     1.007825032230
      Gh(H)          -1.447594000000     2.380144000000     0.877744000000     1.007825032230
      Gh(O)           2.350808000000     0.315241000000     0.892599000000    15.994914619570
      Gh(H)           3.010726000000     0.173134000000     0.141394000000     1.007825032230
      Gh(H)           2.495966000000     1.172138000000     1.167830000000     1.007825032230
         O            1.084462000000     1.438589000000    -1.573635000000    15.994914619570
         H            1.544269000000     0.800080000000    -2.144693000000     1.007825032230
         H            1.595583000000     2.266747000000    -1.520243000000     1.007825032230

  Charge       = 0
  Multiplicity = 1
  Basis Set: AUG-CC-PVTZ
    Blend: AUG-CC-PVTZ
  Basis Set: (AUG-CC-PVTZ AUX)
    Blend: AUG-CC-PVTZ-JKFIT + DEF2-UNIVERSAL-JKFIT

    Orbital Energies [Eh]
    ---------------------

    Doubly Occupied:

       1A    -20.567220     2A     -1.341505     3A     -0.718849
       4A     -0.571144     5A     -0.507290

  @DF-RHF Final Energy:   -76.05860817734116

   => Energetics <=

    Nuclear Repulsion Energy =              9.0296799095126428
    One-Electron Energy =                -122.7645562100263987
    Two-Electron Energy =                  37.6762681231725978
    Total Energy =                        -76.0586081773411706
 Dipole X            :        -21.6782830           22.3281497            0.6498667
 Dipole Y            :        -27.4170583           27.5437768            0.1267186
 Dipole Z            :         30.3688586          -30.7156387           -0.3467801
 Magnitude           :                                                    0.7474228
  Basis Set: (AUG-CC-PVTZ AUX)
    Blend: AUG-CC-PVTZ-RI + DEF2-QZVPP-RI
	 Reference Energy          =     -76.0586081773411564 [Eh]
	 Singles Energy            =      -0.0000000000000000 [Eh]
	 Same-Spin Energy          =      -0.0686230597097883 [Eh]
	 Opposite-Spin Energy      =      -0.2164870764105075 [Eh]
	 Correlation Energy        =      -0.2851101361202959 [Eh]
	 Total Energy              =     -76.3437183134614514 [Eh]

	 ================> DF-SCS-MP2 Energies <==================
	-----------------------------------------------------------
	 SCS Same-Spin Scale       =       0.3333333333333333 [-]
	 SCS Opposite-Spin Scale   =       1.2000000000000000 [-]
	 SCS Same-Spin Energy      =      -0.0228743532365961 [Eh]
	 SCS Opposite-Spin Energy  =      -0.2597844916926090 [Eh]
	 SCS Correlation Energy    =      -0.2826588449292051 [Eh]
	 SCS Total Energy          =     -76.3412670222703582 [Eh]
	-----------------------------------------------------------

*** Psi4 exiting successfully. Buy a developer a beer!
