                               Psi4 1.8.2 release

  ==> Input File <==

--------------------------------------------------------------------------
MEMORY 60 GB

molecule dimer {
0 1
Gh(Na)     0.000000     0.000000     0.000000
Gh(O)     -0.835240     0.473484     2.119495
Gh(H)     -0.454693     1.245275     2.586267
Gh(H)     -1.132360    -0.183285     2.785897
Gh(O)      0.033539    -2.290098    -0.664363
Gh(H)     -0.004054    -2.576443     0.261397
Gh(H)      0.855844    -2.546782    -1.166561
O          1.583864     1.928752    -0.019939
H          1.499354     1.829133    -1.014737
H          1.387146     2.888641     0.263931

units ang
no_reorient
no_com
symmetry c1
}

set {
basis        aug-cc-pVTZ
scf_type     df
}

energy("mp2")
--------------------------------------------------------------------------

    Molecular point group: c1

    Geometry (in Angstrom), charge = 0, multiplicity = 1:

       Center              X                  Y                   Z               Mass
    ------------   -----------------  -----------------  -----------------  -----------------
      Gh(NA)          0.000000000000     0.000000000000     0.000000000000    22.989769282000
      Gh(O)          -0.835240000000     0.473484000000     2.119495000000    15.994914619570
      Gh(H)          -0.454693000000     1.245275000000     2.586267000000     1.007825032230
      Gh(H)          -1.132360000000    -0.183285000000     2.785897000000     1.007825032230
      Gh(O)           0.033539000000    -2.290098000000    -0.664363000000    15.994914619570
      Gh(H)          -0.004054000000    -2.576443000000     0.261397000000     1.007825032230
      Gh(H)           0.855844000000    -2.546782000000    -1.166561000000     1.007825032230
         O            1.583864000000     1.928752000000    -0.019939000000    15.994914619570
         H            1.499354000000     1.829133000000    -1.014737000000     1.007825032230
         H            1.387146000000     2.888641000000     0.263931000000     1.007825032230

  Charge       = 0
  Multiplicity = 1
  Basis Set: AUG-CC-PVTZ
    Blend: AUG-CC-PVTZ
  Basis Set: (AUG-CC-PVTZ AUX)
    Blend: AUG-CC-PVTZ-JKFIT + DEF2-UNIVERSAL-JKFIT

    Orbital Energies [Eh]
    ---------------------

    Doubly Occupied:

       1A    -20.573117     2A     -1.323318     3A     -0.699153
       4A     -0.562770     5A     -0.504107

  @DF-RHF Final Energy:   -76.05070663741364

   => Energetics <=

    Nuclear Repulsion Energy =              8.6871504764424206
    One-Electron Energy =                -122.1507777461639250
    Two-Electron Energy =                  37.4129206323078449
    Total Energy =                        -76.0507066374136542
 Dipole X            :        -29.5830397           29.3992479           -0.1837918
 Dipole Y            :        -37.5119110           38.0738051            0.5618942
 Dipole Z            :          1.2528672           -1.7202517           -0.4673845
 Magnitude           :                                                    0.7536264
  Basis Set: (AUG-CC-PVTZ AUX)
    Blend: AUG-CC-PVTZ-RI + DEF2-QZVPP-RI
	 Reference Energy          =     -76.0507066374136400 [Eh]
	 Singles Energy            =      -0.0000000000000000 [Eh]
	 Same-Spin Energy          =      -0.0692539287079154 [Eh]
	 Opposite-Spin Energy      =      -0.2182690817258278 [Eh]
	 Correlation Energy        =      -0.2875230104337432 [Eh]
	 Total Energy              =     -76.3382296478473847 [Eh]

	 ================> DF-SCS-MP2 Energies <==================
	-----------------------------------------------------------
	 SCS Same-Spin Scale       =       0.3333333333333333 [-]
	 SCS Opposite-Spin Scale   =       1.2000000000000000 [-]
	 SCS Same-Spin Energy      =      -0.0230846429026385 [Eh]
	 SCS Opposite-Spin Energy  =      -0.2619228980709933 [Eh]
	 SCS Correlation Energy    =      -0.2850075409736317 [Eh]
	 SCS Total Energy          =     -76.3357141783872777 [Eh]
	-----------------------------------------------------------

*** Psi4 exiting successfully. Buy a developer a beer!
