                               Psi4 1.8.2 release

  ==> Input File <==

--------------------------------------------------------------------------
MEMORY 60 GB

molecule dimer {
1 1
Na         0.000000     0.000000     0.000000
O         -1.280774    -0.759773     2.066537
H         -1.536429    -0.091676     2.765012
H         -1.901665    -1.511168     1.950498
O         -0.717471     2.091250    -0.901495
H          0.059317     2.629287    -1.164866
H         -1.476620     2.438268    -1.368779
O         -1.822223    -1.577676    -0.958332
H         -1.691050    -2.150752    -1.657492
H         -2.466734    -0.986478    -1.244925
O          1.591137     0.542267     1.515629
H          1.976809    -0.291838     1.794945
H          2.435743     1.172111     1.550722
O          0.916176    -2.475189     0.174402
H          1.088176    -2.332722     1.102282
H          0.002816    -2.742338     0.107943
O          1.503194     0.599374    -1.995198
H          1.887717    -0.218723    -2.491432
H          1.765947     1.338805    -2.568431

units ang
no_reorient
no_com
symmetry c1
}

set {
basis        aug-cc-pVTZ
scf_type     df
}

energy("mp2")
--------------------------------------------------------------------------

    Molecular point group: c1

    Geometry (in Angstrom), charge = 1, multiplicity = 1:

       Center              X                  Y                   Z               Mass
    ------------   -----------------  -----------------  -----------------  -----------------
         NA           0.000000000000     0.000000000000     0.000000000000    22.989769282000
         O           -1.280774000000    -0.759773000000     2.066537000000    15.994914619570
         H           -1.536429000000    -0.091676000000     2.765012000000     1.007825032230
         H           -1.901665000000    -1.511168000000     1.950498000000     1.007825032230
         O           -0.717471000000     2.091250000000    -0.901495000000    15.994914619570
         H            0.059317000000     2.629287000000    -1.164866000000     1.007825032230
         H           -1.476620000000     2.438268000000    -1.368779000000     1.007825032230
         O           -1.822223000000    -1.577676000000    -0.958332000000    15.994914619570
         H           -1.691050000000    -2.150752000000    -1.657492000000     1.007825032230
         H           -2.466734000000    -0.986478000000    -1.244925000000     1.007825032230
         O            1.591137000000     0.542267000000     1.515629000000    15.994914619570
         H            1.976809000000    -0.291838000000     1.794945000000     1.007825032230
         H            2.435743000000     1.172111000000     1.550722000000     1.007825032230
         O            0.916176000000    -2.475189000000     0.174402000000    15.994914619570
         H            1.088176000000    -2.332722000000     1.102282000000     1.007825032230
         H            0.002816000000    -2.742338000000     0.107943000000     1.007825032230
         O            1.503194000000     0.599374000000    -1.995198000000    15.994914619570
         H            1.887717000000    -0.218723000000    -2.491432000000     1.007825032230
         H            1.765947000000     1.338805000000    -2.568431000000     1.007825032230

  Charge       = 1
  Multiplicity = 1
  Basis Set: AUG-CC-PVTZ
    Blend: AUG-CC-PVTZ
  Basis Set: (AUG-CC-PVTZ AUX)
    Blend: AUG-CC-PVTZ-JKFIT + DEF2-UNIVERSAL-JKFIT

    Orbital Energies [Eh]
    ---------------------

    Doubly Occupied:

       1A    -40.544936     2A    -20.721297     3A    -20.714871
       4A    -20.713731     5A    -20.711647     6A    -20.706563
       7A    -20.700063     8A     -2.865927     9A     -1.591502
      10A     -1.590418    11A     -1.589517    12A     -1.532351
      13A     -1.493576    14A     -1.490986    15A     -1.483046
      16A     -1.475600    17A     -1.471608    18A     -0.900509
      19A     -0.865340    20A     -0.861905    21A     -0.858086
      22A     -0.833695    23A     -0.832612    24A     -0.757760
      25A     -0.745281    26A     -0.737549    27A     -0.728512
      28A     -0.719843    29A     -0.705702    30A     -0.675492
      31A     -0.664498    32A     -0.659129    33A     -0.649141
      34A     -0.646188    35A     -0.643702

  @DF-RHF Final Energy:  -618.14050089116745

   => Energetics <=

    Nuclear Repulsion Energy =            397.7190905855629239
    One-Electron Energy =               -1641.9540044918708190
    Two-Electron Energy =                 626.0944130151403897
    Total Energy =                       -618.1405008911674486
 Dipole X            :         -3.3876105            3.1451449           -0.2424656
 Dipole Y            :         29.3566101          -29.0738144            0.2827957
 Dipole Z            :          3.0742969           -3.8024672           -0.7281703
 Magnitude           :                                                    0.8179212
  Basis Set: (AUG-CC-PVTZ AUX)
    Blend: AUG-CC-PVTZ-RI + DEF2-QZVPP-RI
	 Reference Energy          =    -618.1405008911674486 [Eh]
	 Singles Energy            =      -0.0000000000000000 [Eh]
	 Same-Spin Energy          =      -0.4224499819706205 [Eh]
	 Opposite-Spin Energy      =      -1.3205196042799048 [Eh]
	 Correlation Energy        =      -1.7429695862505252 [Eh]
	 Total Energy              =    -619.8834704774179727 [Eh]

	 ================> DF-SCS-MP2 Energies <==================
	-----------------------------------------------------------
	 SCS Same-Spin Scale       =       0.3333333333333333 [-]
	 SCS Opposite-Spin Scale   =       1.2000000000000000 [-]
	 SCS Same-Spin Energy      =      -0.1408166606568735 [Eh]
	 SCS Opposite-Spin Energy  =      -1.5846235251358858 [Eh]
	 SCS Correlation Energy    =      -1.7254401857927593 [Eh]
	 SCS Total Energy          =    -619.8659410769602118 [Eh]
	-----------------------------------------------------------

*** Psi4 exiting successfully. Buy a developer a beer!
