                               Psi4 1.8.2 release

  ==> Input File <==

--------------------------------------------------------------------------
MEMORY 60 GB

molecule dimer {
0 1
Gh(Na)     0.000000     0.000000     0.000000
Gh(O)      1.277477    -1.767812    -0.575450
Gh(H)      0.780188    -2.469714    -0.998624
Gh(H)      2.217875    -1.661537    -0.908748
Gh(O)     -1.969258     1.692991    -0.479796
Gh(H)     -2.121142     1.504376    -1.395083
Gh(H)     -1.578749     2.546515    -0.346354
Gh(O)      2.202998     0.822357    -0.111544
Gh(H)      3.092868     0.791390     0.244148
Gh(H)      2.456428     0.648289    -1.002973
O         -1.745283    -1.493277     0.287650
H         -1.790260    -1.500231     1.250476
H         -1.310641    -2.335748     0.072603

units ang
no_reorient
no_com
symmetry c1
}

set {
basis        aug-cc-pVTZ
scf_type     df
}

energy("mp2")
--------------------------------------------------------------------------

    Molecular point group: c1

    Geometry (in Angstrom), charge = 0, multiplicity = 1:

       Center              X                  Y                   Z               Mass
    ------------   -----------------  -----------------  -----------------  -----------------
      Gh(NA)          0.000000000000     0.000000000000     0.000000000000    22.989769282000
      Gh(O)           1.277477000000    -1.767812000000    -0.575450000000    15.994914619570
      Gh(H)           0.780188000000    -2.469714000000    -0.998624000000     1.007825032230
      Gh(H)           2.217875000000    -1.661537000000    -0.908748000000     1.007825032230
      Gh(O)          -1.969258000000     1.692991000000    -0.479796000000    15.994914619570
      Gh(H)          -2.121142000000     1.504376000000    -1.395083000000     1.007825032230
      Gh(H)          -1.578749000000     2.546515000000    -0.346354000000     1.007825032230
      Gh(O)           2.202998000000     0.822357000000    -0.111544000000    15.994914619570
      Gh(H)           3.092868000000     0.791390000000     0.244148000000     1.007825032230
      Gh(H)           2.456428000000     0.648289000000    -1.002973000000     1.007825032230
         O           -1.745283000000    -1.493277000000     0.287650000000    15.994914619570
         H           -1.790260000000    -1.500231000000     1.250476000000     1.007825032230
         H           -1.310641000000    -2.335748000000     0.072603000000     1.007825032230

  Charge       = 0
  Multiplicity = 1
  Basis Set: AUG-CC-PVTZ
    Blend: AUG-CC-PVTZ
  Basis Set: (AUG-CC-PVTZ AUX)
    Blend: AUG-CC-PVTZ-JKFIT + DEF2-UNIVERSAL-JKFIT

    Orbital Energies [Eh]
    ---------------------

    Doubly Occupied:

       1A    -20.569239     2A     -1.348621     3A     -0.710164
       4A     -0.584492     5A     -0.509716

  @DF-RHF Final Energy:   -76.05972026545705

   => Energetics <=

    Nuclear Repulsion Energy =              9.0947848825187680
    One-Electron Energy =                -122.8645414824421920
    Two-Electron Energy =                  37.7100363344663805
    Total Energy =                        -76.0597202654570452
 Dipole X            :         32.5007582          -32.2447087            0.2560495
 Dipole Y            :         29.2650538          -29.8240262           -0.5589724
 Dipole Z            :         -6.3551641            6.8488947            0.4937306
 Magnitude           :                                                    0.7885312
  Basis Set: (AUG-CC-PVTZ AUX)
    Blend: AUG-CC-PVTZ-RI + DEF2-QZVPP-RI
	 Reference Energy          =     -76.0597202654570452 [Eh]
	 Singles Energy            =      -0.0000000000000000 [Eh]
	 Same-Spin Energy          =      -0.0686251377754539 [Eh]
	 Opposite-Spin Energy      =      -0.2164735170141791 [Eh]
	 Correlation Energy        =      -0.2850986547896330 [Eh]
	 Total Energy              =     -76.3448189202466807 [Eh]

	 ================> DF-SCS-MP2 Energies <==================
	-----------------------------------------------------------
	 SCS Same-Spin Scale       =       0.3333333333333333 [-]
	 SCS Opposite-Spin Scale   =       1.2000000000000000 [-]
	 SCS Same-Spin Energy      =      -0.0228750459251513 [Eh]
	 SCS Opposite-Spin Energy  =      -0.2597682204170149 [Eh]
	 SCS Correlation Energy    =      -0.2826432663421662 [Eh]
	 SCS Total Energy          =     -76.3423635317992080 [Eh]
	-----------------------------------------------------------

*** Psi4 exiting successfully. Buy a developer a beer!
