                               Psi4 1.9 release

  ==> Input File <==

--------------------------------------------------------------------------
MEMORY 60 GB

molecule dimer {
1 1
Na     0.000000     0.000000     0.000000
--
0 1
O     -1.339451    -1.201724     1.367541
H     -2.235805    -0.821142     1.302148
H     -1.569153    -2.182228     1.427508
O      1.319402     1.894139     0.435760
H      1.823232     2.262470    -0.335659
H      1.739025     2.258973     1.197774
O      1.589395    -1.392547     1.045193
H      1.704872    -2.231908     0.499963
H      2.479783    -0.955865     0.973167
O     -1.214799     0.904461    -1.992201
H     -0.703953     1.278966    -2.714790
H     -2.095167     1.261371    -2.013025

units ang
no_reorient
no_com
symmetry c1
}

set {
basis        aug-cc-pVTZ
scf_type     df
}

energy("mp2", bsse_type="cp")
--------------------------------------------------------------------------

                               Psi4 1.9 release
    Molecular point group: c1
  Charge       = 0
  Multiplicity = 1
  Basis Set: AUG-CC-PVTZ
    Blend: AUG-CC-PVTZ
  Basis Set: (AUG-CC-PVTZ AUX)
    Blend: AUG-CC-PVTZ-JKFIT + DEF2-UNIVERSAL-JKFIT
  @DF-RHF Final Energy:  -304.21394578563735
    Total Energy =                       -304.2139457856374065
 Dipole X            :         -7.2710400            7.5196171            0.2485771
 Dipole Y            :         -4.3488264            4.7342723            0.3854459
 Dipole Z            :        -14.4588634           13.5822742           -0.8765891
 Magnitude           :                                                    0.9893268
  Basis Set: (AUG-CC-PVTZ AUX)
    Blend: AUG-CC-PVTZ-RI + DEF2-QZVPP-RI
	 Reference Energy          =    -304.2139457856373497 [Eh]
	 Singles Energy            =      -0.0000000000000000 [Eh]
	 Same-Spin Energy          =      -0.2769444711630542 [Eh]
	 Opposite-Spin Energy      =      -0.8705033230273407 [Eh]
	 Correlation Energy        =      -1.1474477941903949 [Eh]
	 Total Energy              =    -305.3613935798277339 [Eh]
	 SCS Total Energy          =    -305.3508645969911868 [Eh]
                               Psi4 1.9 release
    Molecular point group: c1
  Multiplicity = 1
  Basis Set: AUG-CC-PVTZ
    Blend: AUG-CC-PVTZ
  Basis Set: (AUG-CC-PVTZ AUX)
    Blend: AUG-CC-PVTZ-JKFIT + DEF2-UNIVERSAL-JKFIT
  @DF-RHF Final Energy:  -161.67608412734771
    Total Energy =                       -161.6760841273477070
  Basis Set: (AUG-CC-PVTZ AUX)
	 Singles Energy            =      -0.0000000000000000 [Eh]
	 Same-Spin Energy          =      -0.0050154916679109 [Eh]
	 Opposite-Spin Energy      =      -0.0160092839854972 [Eh]
	 Correlation Energy        =      -0.0210247756534081 [Eh]
	 Total Energy              =    -161.6971089030011228 [Eh]
	 SCS Total Energy          =    -161.6969670986862866 [Eh]
                               Psi4 1.9 release
    Molecular point group: c1

    Geometry (in Bohr), charge = 1, multiplicity = 1:

       Center              X                  Y                   Z               Mass
    ------------   -----------------  -----------------  -----------------  -----------------
         NA           0.000000000000     0.000000000000     0.000000000000    22.989769282000
         O           -2.531195548471    -2.270929238390     2.584277955335    15.994914619570
         H           -4.225059119929    -1.551733490111     2.460703094813     1.007825032230
         H           -2.965269418941    -4.123813263306     2.697599161900     1.007825032230
         O            2.493308429381     3.579403953549     0.823467056430    15.994914619570
         H            3.445409143171     4.275448667065    -0.634303581545     1.007825032230
         H            3.286280975324     4.268840294804     2.263464820194     1.007825032230
         O            3.003521255172    -2.631532446828     1.975128518246    15.994914619570
         H            3.221741158962    -4.217694857218     0.944793142862     1.007825032230
         H            4.686110720566    -1.806323062911     1.839019104333     1.007825032230
         O           -2.295637407480     1.709183581158    -3.764714276863    15.994914619570
         H           -1.330278375194     2.416895463772    -5.130209588132     1.007825032230
         H           -3.959291817097     2.383645732595    -3.804065933700     1.007825032230

  Charge       = 1
  Multiplicity = 1
  Basis Set: AUG-CC-PVTZ
    Blend: AUG-CC-PVTZ
  Basis Set: (AUG-CC-PVTZ AUX)
    Blend: AUG-CC-PVTZ-JKFIT + DEF2-UNIVERSAL-JKFIT

    Orbital Energies [Eh]
    ---------------------

    Doubly Occupied:

       1A    -40.575893     2A    -20.734869     3A    -20.731426
       4A    -20.729405     5A    -20.728288     6A     -2.897984
       7A     -1.623605     8A     -1.622512     9A     -1.621382
      10A     -1.517656    11A     -1.516150    12A     -1.500776
      13A     -1.491211    14A     -0.892155    15A     -0.881705
      16A     -0.852898    17A     -0.846623    18A     -0.768561
      19A     -0.762195    20A     -0.752932    21A     -0.734772
      22A     -0.683578    23A     -0.676267    24A     -0.674315
      25A     -0.667300

  @DF-RHF Final Energy:  -466.01254235118574

   => Energetics <=

    Nuclear Repulsion Energy =            212.1687856980524884
    One-Electron Energy =               -1063.3937373036008012
    Two-Electron Energy =                 385.2124092543625693
    Total Energy =                       -466.0125423511857434
 Dipole X            :         -7.2093959            7.5196171            0.3102212
 Dipole Y            :         -4.3563280            4.7342723            0.3779443
 Dipole Z            :        -14.3742027           13.5822742           -0.7919285
 Magnitude           :                                                    0.9307147
  Basis Set: (AUG-CC-PVTZ AUX)
    Blend: AUG-CC-PVTZ-RI + DEF2-QZVPP-RI
	 Reference Energy          =    -466.0125423511857434 [Eh]
	 Singles Energy            =      -0.0000000000000000 [Eh]
	 Same-Spin Energy          =      -0.2808329680057866 [Eh]
	 Opposite-Spin Energy      =      -0.8808264027093800 [Eh]
	 Correlation Energy        =      -1.1616593707151666 [Eh]
	 Total Energy              =    -467.1742017219008858 [Eh]

	 ================> DF-SCS-MP2 Energies <==================
	-----------------------------------------------------------
	 SCS Same-Spin Scale       =       0.3333333333333333 [-]
	 SCS Opposite-Spin Scale   =       1.2000000000000000 [-]
	 SCS Same-Spin Energy      =      -0.0936109893352622 [Eh]
	 SCS Opposite-Spin Energy  =      -1.0569916832512558 [Eh]
	 SCS Correlation Energy    =      -1.1506026725865179 [Eh]
	 SCS Total Energy          =    -467.1631450237722447 [Eh]
	-----------------------------------------------------------

*** Psi4 exiting successfully. Buy a developer a beer!
