                               Psi4 1.9 release

  ==> Input File <==

--------------------------------------------------------------------------
MEMORY 60 GB

molecule dimer {
1 1
Na     0.000000     0.000000     0.000000
--
0 1
O     -0.193331     2.133012     0.051126
H      0.653992     2.486181    -0.227094
H     -0.472516     2.846712     0.650011
O      0.288803    -2.322357    -0.174914
H     -0.642727    -2.354494    -0.182470
H      0.543217    -2.550000    -1.066325
O     -0.773660    -0.489796     2.272680
H     -0.543862     0.115681     2.979151
H     -0.362466    -1.237847     2.655977
O     -1.896119    -0.066378    -1.470424
H     -2.170950     0.762265    -1.877462
H     -2.621122    -0.681651    -1.551543
O      1.464272     0.251391    -1.866281
H      2.258159     0.208517    -1.354089
H      1.592895    -0.381460    -2.532995

units ang
no_reorient
no_com
symmetry c1
}

set {
basis        aug-cc-pVTZ
scf_type     df
}

energy("mp2", bsse_type="cp")
--------------------------------------------------------------------------

                               Psi4 1.9 release
    Molecular point group: c1
  Charge       = 0
  Multiplicity = 1
  Basis Set: AUG-CC-PVTZ
    Blend: AUG-CC-PVTZ
  Basis Set: (AUG-CC-PVTZ AUX)
    Blend: AUG-CC-PVTZ-JKFIT + DEF2-UNIVERSAL-JKFIT
  @DF-RHF Final Energy:  -380.28375686091920
    Total Energy =                       -380.2837568609191976
 Dipole X            :         20.3895256          -20.1173818            0.2721437
 Dipole Y            :          9.1282668           -8.9556389            0.1726279
 Dipole Z            :         22.5810223          -22.6943692           -0.1133469
 Magnitude           :                                                    0.3416286
  Basis Set: (AUG-CC-PVTZ AUX)
    Blend: AUG-CC-PVTZ-RI + DEF2-QZVPP-RI
	 Reference Energy          =    -380.2837568609191976 [Eh]
	 Singles Energy            =      -0.0000000000000000 [Eh]
	 Same-Spin Energy          =      -0.3448656039773993 [Eh]
	 Opposite-Spin Energy      =      -1.0822534006253557 [Eh]
	 Correlation Energy        =      -1.4271190046027551 [Eh]
	 Total Energy              =    -381.7108758655219276 [Eh]
	 SCS Total Energy          =    -381.6974161429954506 [Eh]
                               Psi4 1.9 release
    Molecular point group: c1
  Multiplicity = 1
  Basis Set: AUG-CC-PVTZ
    Blend: AUG-CC-PVTZ
  Basis Set: (AUG-CC-PVTZ AUX)
    Blend: AUG-CC-PVTZ-JKFIT + DEF2-UNIVERSAL-JKFIT
  @DF-RHF Final Energy:  -161.67609349257907
    Total Energy =                       -161.6760934925790707
  Basis Set: (AUG-CC-PVTZ AUX)
	 Singles Energy            =      -0.0000000000000000 [Eh]
	 Same-Spin Energy          =      -0.0064644893932798 [Eh]
	 Opposite-Spin Energy      =      -0.0198218306274416 [Eh]
	 Correlation Energy        =      -0.0262863200207214 [Eh]
	 Total Energy              =    -161.7023798125997871 [Eh]
	 SCS Total Energy          =    -161.7020345191297679 [Eh]
                               Psi4 1.9 release
    Molecular point group: c1

    Geometry (in Bohr), charge = 1, multiplicity = 1:

       Center              X                  Y                   Z               Mass
    ------------   -----------------  -----------------  -----------------  -----------------
         NA           0.000000000000     0.000000000000     0.000000000000    22.989769282000
         O           -0.365342641561     4.030808502315     0.096614137890    15.994914619570
         H            1.235865768240     4.698201188317    -0.429145464735     1.007825032230
         H           -0.892925829897     5.379506038054     1.228342768535     1.007825032230
         O            0.545758574211    -4.388618695540    -0.330539555508    15.994914619570
         H           -1.214578003437    -4.449348824034    -0.344818326112     1.007825032230
         H            1.026531356693    -4.818801619917    -2.015062210729     1.007825032230
         O           -1.462005514222    -0.925580297345     4.294742770805    15.994914619570
         H           -1.027750230044     0.218605407919     5.629779476384     1.007825032230
         H           -0.684961469790    -2.339191815220     5.019069125515     1.007825032230
         O           -3.583145611277    -0.125436240756    -2.778698648300    15.994914619570
         H           -4.102500932063     1.440472085022    -3.547888990954     1.007825032230
         H           -4.953202721412    -1.288133703144    -2.931991341871     1.007825032230
         O            2.767073053176     0.475060140405    -3.526759963146    15.994914619570
         H            4.267302057738     0.394040022502    -2.558857359495     1.007825032230
         H            3.010135296611    -0.720854927817    -4.786666827154     1.007825032230

  Charge       = 1
  Multiplicity = 1
  Basis Set: AUG-CC-PVTZ
    Blend: AUG-CC-PVTZ
  Basis Set: (AUG-CC-PVTZ AUX)
    Blend: AUG-CC-PVTZ-JKFIT + DEF2-UNIVERSAL-JKFIT

    Orbital Energies [Eh]
    ---------------------

    Doubly Occupied:

       1A    -40.550672     2A    -20.733170     3A    -20.726294
       4A    -20.722731     5A    -20.719969     6A    -20.714721
       7A     -2.875883     8A     -1.604508     9A     -1.600752
      10A     -1.599828    11A     -1.530729    12A     -1.523593
      13A     -1.518983    14A     -1.518782    15A     -1.501999
      16A     -0.894505    17A     -0.887330    18A     -0.873538
      19A     -0.870146    20A     -0.856776    21A     -0.778508
      22A     -0.765599    23A     -0.760383    24A     -0.752994
      25A     -0.741332    26A     -0.690675    27A     -0.683678
      28A     -0.672124    29A     -0.669292    30A     -0.662543

  @DF-RHF Final Energy:  -542.08945709001898

   => Energetics <=

    Nuclear Repulsion Energy =            309.7220585474178733
    One-Electron Energy =               -1361.6189554243760540
    Two-Electron Energy =                 509.8074397869391987
    Total Energy =                       -542.0894570900189819
 Dipole X            :         20.2829233          -20.1173818            0.1655415
 Dipole Y            :          9.1335204           -8.9556389            0.1778816
 Dipole Z            :         22.4496535          -22.6943692           -0.2447157
 Magnitude           :                                                    0.3448646
  Basis Set: (AUG-CC-PVTZ AUX)
    Blend: AUG-CC-PVTZ-RI + DEF2-QZVPP-RI
	 Reference Energy          =    -542.0894570900189819 [Eh]
	 Singles Energy            =      -0.0000000000000000 [Eh]
	 Same-Spin Energy          =      -0.3502001009799518 [Eh]
	 Opposite-Spin Energy      =      -1.0959298873623247 [Eh]
	 Correlation Energy        =      -1.4461299883422765 [Eh]
	 Total Energy              =    -543.5355870783612318 [Eh]

	 ================> DF-SCS-MP2 Energies <==================
	-----------------------------------------------------------
	 SCS Same-Spin Scale       =       0.3333333333333333 [-]
	 SCS Opposite-Spin Scale   =       1.2000000000000000 [-]
	 SCS Same-Spin Energy      =      -0.1167333669933173 [Eh]
	 SCS Opposite-Spin Energy  =      -1.3151158648347896 [Eh]
	 SCS Correlation Energy    =      -1.4318492318281069 [Eh]
	 SCS Total Energy          =    -543.5213063218470779 [Eh]
	-----------------------------------------------------------

*** Psi4 exiting successfully. Buy a developer a beer!
