                               Psi4 1.9 release

  ==> Input File <==

--------------------------------------------------------------------------
MEMORY 60 GB

molecule dimer {
1 1
Na     0.000000     0.000000     0.000000
--
0 1
O     -1.599330     1.629936    -0.826504
H     -2.060317     0.981063    -1.364915
H     -1.486177     2.393893    -1.396625
O     -0.042840    -0.395400    -2.442957
H      0.550503     0.190653    -2.874800
H     -0.913132    -0.259864    -2.869914
O     -0.515091    -0.239782     2.281892
H     -1.087173    -1.040340     2.258925
H     -0.899990     0.406767     2.844373
O      1.517695     1.592560     0.966864
H      2.451653     1.871029     1.146830
H      0.876999     1.867977     1.656428

units ang
no_reorient
no_com
symmetry c1
}

set {
basis        aug-cc-pVTZ
scf_type     df
}

energy("mp2", bsse_type="cp")
--------------------------------------------------------------------------

                               Psi4 1.9 release
    Molecular point group: c1
  Charge       = 0
  Multiplicity = 1
  Basis Set: AUG-CC-PVTZ
    Blend: AUG-CC-PVTZ
  Basis Set: (AUG-CC-PVTZ AUX)
    Blend: AUG-CC-PVTZ-JKFIT + DEF2-UNIVERSAL-JKFIT
  @DF-RHF Final Energy:  -304.21944983903677
    Total Energy =                       -304.2194498390367698
 Dipole X            :         13.7285334          -14.5209617           -0.7924283
 Dipole Y            :        -50.4888239           51.2298894            0.7410656
 Dipole Z            :          1.1137704           -1.4462792           -0.3325088
 Magnitude           :                                                    1.1347612
  Basis Set: (AUG-CC-PVTZ AUX)
    Blend: AUG-CC-PVTZ-RI + DEF2-QZVPP-RI
	 Reference Energy          =    -304.2194498390367698 [Eh]
	 Singles Energy            =      -0.0000000000000000 [Eh]
	 Same-Spin Energy          =      -0.2760415703375859 [Eh]
	 Opposite-Spin Energy      =      -0.8668272434732177 [Eh]
	 Correlation Energy        =      -1.1428688138108036 [Eh]
	 Total Energy              =    -305.3623186528475912 [Eh]
	 SCS Total Energy          =    -305.3516563879838372 [Eh]
                               Psi4 1.9 release
    Molecular point group: c1
  Multiplicity = 1
  Basis Set: AUG-CC-PVTZ
    Blend: AUG-CC-PVTZ
  Basis Set: (AUG-CC-PVTZ AUX)
    Blend: AUG-CC-PVTZ-JKFIT + DEF2-UNIVERSAL-JKFIT
  @DF-RHF Final Energy:  -161.67608321901827
    Total Energy =                       -161.6760832190182668
  Basis Set: (AUG-CC-PVTZ AUX)
	 Singles Energy            =      -0.0000000000000000 [Eh]
	 Same-Spin Energy          =      -0.0050573640280664 [Eh]
	 Opposite-Spin Energy      =      -0.0161896154537606 [Eh]
	 Correlation Energy        =      -0.0212469794818270 [Eh]
	 Total Energy              =    -161.6973301985000830 [Eh]
	 SCS Total Energy          =    -161.6971965455721261 [Eh]
                               Psi4 1.9 release
    Molecular point group: c1

    Geometry (in Bohr), charge = 1, multiplicity = 1:

       Center              X                  Y                   Z               Mass
    ------------   -----------------  -----------------  -----------------  -----------------
         NA           0.000000000000     0.000000000000     0.000000000000    22.989769282000
         O           -3.022295684228     3.080132642024    -1.561866201595    15.994914619570
         H           -3.893434861625     1.853940381820    -2.579315534529     1.007825032230
         H           -2.808467503955     4.523802143651    -2.639238749968     1.007825032230
         O           -0.080955867215    -0.747197710006    -4.616519666270    15.994914619570
         H            1.040299901243     0.360281954997    -5.432584665466     1.007825032230
         H           -1.725569396392    -0.491071789866    -5.423351463617     1.007825032230
         O           -0.973380919688    -0.453122309815     4.312150927873    15.994914619570
         H           -2.054459220992    -1.965957677359     4.268749587950     1.007825032230
         H           -1.700734615651     0.768678226874     5.375085968647     1.007825032230
         O            2.868027891977     3.009502238359     1.827108160565    15.994914619570
         H            4.632952724657     3.535732382789     2.167194612459     1.007825032230
         H            1.657287922300     3.529964938654     3.130195266540     1.007825032230

  Charge       = 1
  Multiplicity = 1
  Basis Set: AUG-CC-PVTZ
    Blend: AUG-CC-PVTZ
  Basis Set: (AUG-CC-PVTZ AUX)
    Blend: AUG-CC-PVTZ-JKFIT + DEF2-UNIVERSAL-JKFIT

    Orbital Energies [Eh]
    ---------------------

    Doubly Occupied:

       1A    -40.597956     2A    -20.739406     3A    -20.738343
       4A    -20.736616     5A    -20.721224     6A     -2.918375
       7A     -1.642926     8A     -1.642528     9A     -1.642178
      10A     -1.528602    11A     -1.525694    12A     -1.522460
      13A     -1.490228    14A     -0.903211    15A     -0.897687
      16A     -0.885702    17A     -0.875639    18A     -0.767205
      19A     -0.760875    20A     -0.759877    21A     -0.729371
      22A     -0.703259    23A     -0.689501    24A     -0.670968
      25A     -0.662612

  @DF-RHF Final Energy:  -466.00424746691061

   => Energetics <=

    Nuclear Repulsion Energy =            214.3168842916313963
    One-Electron Energy =               -1067.1373690052828351
    Two-Electron Energy =                 386.8162372467408545
    Total Energy =                       -466.0042474669106127
 Dipole X            :         13.6452179          -14.5209617           -0.8757438
 Dipole Y            :        -50.1512334           51.2298894            1.0786560
 Dipole Z            :          1.1264527           -1.4462792           -0.3198265
 Magnitude           :                                                    1.4257331
  Basis Set: (AUG-CC-PVTZ AUX)
    Blend: AUG-CC-PVTZ-RI + DEF2-QZVPP-RI
	 Reference Energy          =    -466.0042474669106127 [Eh]
	 Singles Energy            =      -0.0000000000000000 [Eh]
	 Same-Spin Energy          =      -0.2802394187651968 [Eh]
	 Opposite-Spin Energy      =      -0.8784483040771398 [Eh]
	 Correlation Energy        =      -1.1586877228423367 [Eh]
	 Total Energy              =    -467.1629351897529432 [Eh]

	 ================> DF-SCS-MP2 Energies <==================
	-----------------------------------------------------------
	 SCS Same-Spin Scale       =       0.3333333333333333 [-]
	 SCS Opposite-Spin Scale   =       1.2000000000000000 [-]
	 SCS Same-Spin Energy      =      -0.0934131395883989 [Eh]
	 SCS Opposite-Spin Energy  =      -1.0541379648925677 [Eh]
	 SCS Correlation Energy    =      -1.1475511044809665 [Eh]
	 SCS Total Energy          =    -467.1517985713915664 [Eh]
	-----------------------------------------------------------

*** Psi4 exiting successfully. Buy a developer a beer!
