                               Psi4 1.8.2 release

  ==> Input File <==

--------------------------------------------------------------------------
MEMORY 60 GB

molecule dimer {
0 1
Gh(Na)     0.000000     0.000000     0.000000
Gh(O)     -2.517737    -0.044737    -0.085663
Gh(H)     -3.125824    -0.331550     0.584585
Gh(H)     -3.129699     0.377416    -0.724333
Gh(O)      2.465683     0.516957    -0.150294
Gh(H)      2.739106     0.958987    -0.927177
Gh(H)      2.451782     1.135025     0.576683
O         -0.121149    -0.310658    -2.292460
H         -0.296325    -1.265691    -2.370924
H          0.649829    -0.216062    -2.847853
Gh(O)      0.358147     0.856708     2.301374
Gh(H)      0.939411     1.103103     2.980068
Gh(H)     -0.519149     1.038533     2.680292
Gh(O)      0.057029    -2.251503     0.686124
Gh(H)      0.872420    -2.539387     0.293641
Gh(H)     -0.333279    -3.125313     0.756646

units ang
no_reorient
no_com
symmetry c1
}

set {
basis        aug-cc-pVTZ
scf_type     df
}

energy("mp2")
--------------------------------------------------------------------------

    Molecular point group: c1

    Geometry (in Angstrom), charge = 0, multiplicity = 1:

       Center              X                  Y                   Z               Mass
    ------------   -----------------  -----------------  -----------------  -----------------
      Gh(NA)          0.000000000000     0.000000000000     0.000000000000    22.989769282000
      Gh(O)          -2.517737000000    -0.044737000000    -0.085663000000    15.994914619570
      Gh(H)          -3.125824000000    -0.331550000000     0.584585000000     1.007825032230
      Gh(H)          -3.129699000000     0.377416000000    -0.724333000000     1.007825032230
      Gh(O)           2.465683000000     0.516957000000    -0.150294000000    15.994914619570
      Gh(H)           2.739106000000     0.958987000000    -0.927177000000     1.007825032230
      Gh(H)           2.451782000000     1.135025000000     0.576683000000     1.007825032230
         O           -0.121149000000    -0.310658000000    -2.292460000000    15.994914619570
         H           -0.296325000000    -1.265691000000    -2.370924000000     1.007825032230
         H            0.649829000000    -0.216062000000    -2.847853000000     1.007825032230
      Gh(O)           0.358147000000     0.856708000000     2.301374000000    15.994914619570
      Gh(H)           0.939411000000     1.103103000000     2.980068000000     1.007825032230
      Gh(H)          -0.519149000000     1.038533000000     2.680292000000     1.007825032230
      Gh(O)           0.057029000000    -2.251503000000     0.686124000000    15.994914619570
      Gh(H)           0.872420000000    -2.539387000000     0.293641000000     1.007825032230
      Gh(H)          -0.333279000000    -3.125313000000     0.756646000000     1.007825032230

  Charge       = 0
  Multiplicity = 1
  Basis Set: AUG-CC-PVTZ
    Blend: AUG-CC-PVTZ
  Basis Set: (AUG-CC-PVTZ AUX)
    Blend: AUG-CC-PVTZ-JKFIT + DEF2-UNIVERSAL-JKFIT

    Orbital Energies [Eh]
    ---------------------

    Doubly Occupied:

       1A    -20.569620     2A     -1.352164     3A     -0.707423
       4A     -0.589758     5A     -0.510681

  @DF-RHF Final Energy:   -76.05954202111721

   => Energetics <=

    Nuclear Repulsion Energy =              9.1340539782815302
    One-Electron Energy =                -122.9278989863443741
    Two-Electron Energy =                  37.7343029869456430
    Total Energy =                        -76.0595420211172097
 Dipole X            :          1.5564600           -1.1634817            0.3929783
 Dipole Y            :          6.9348484           -7.4965757           -0.5617273
 Dipole Z            :         44.1019096          -44.5190317           -0.4171220
 Magnitude           :                                                    0.8024714
  Basis Set: (AUG-CC-PVTZ AUX)
    Blend: AUG-CC-PVTZ-RI + DEF2-QZVPP-RI
	 Reference Energy          =     -76.0595420211172097 [Eh]
	 Singles Energy            =      -0.0000000000000000 [Eh]
	 Same-Spin Energy          =      -0.0686159634685155 [Eh]
	 Opposite-Spin Energy      =      -0.2164330292165154 [Eh]
	 Correlation Energy        =      -0.2850489926850309 [Eh]
	 Total Energy              =     -76.3445910138022441 [Eh]

	 ================> DF-SCS-MP2 Energies <==================
	-----------------------------------------------------------
	 SCS Same-Spin Scale       =       0.3333333333333333 [-]
	 SCS Opposite-Spin Scale   =       1.2000000000000000 [-]
	 SCS Same-Spin Energy      =      -0.0228719878228385 [Eh]
	 SCS Opposite-Spin Energy  =      -0.2597196350598184 [Eh]
	 SCS Correlation Energy    =      -0.2825916228826569 [Eh]
	 SCS Total Energy          =     -76.3421336439998726 [Eh]
	-----------------------------------------------------------

*** Psi4 exiting successfully. Buy a developer a beer!
