                               Psi4 1.8.2 release

  ==> Input File <==

--------------------------------------------------------------------------
MEMORY 60 GB

molecule dimer {
0 1
Gh(Na)     0.000000     0.000000     0.000000
Gh(O)     -1.035469    -1.877733    -1.037852
Gh(H)     -1.914073    -1.912738    -1.481150
Gh(H)     -1.270202    -2.328220    -0.196405
Gh(O)     -0.623731    -1.237449     2.063589
Gh(H)      0.123574    -1.772288     1.889788
Gh(H)     -0.388852    -0.873164     2.865156
O          0.653367     1.518737     1.808040
H          0.766860     2.445606     1.720125
H          0.812468     1.282621     2.725264
Gh(O)      2.312222    -0.475036    -0.468273
Gh(H)      2.269566    -1.391884    -0.857949
Gh(H)      2.939618    -0.534606     0.294558
Gh(O)     -0.258050     2.061129    -1.410113
Gh(H)     -0.293113     2.841031    -0.763467
Gh(H)      0.138236     2.436837    -2.226861

units ang
no_reorient
no_com
symmetry c1
}

set {
basis        aug-cc-pVTZ
scf_type     df
}

energy("mp2")
--------------------------------------------------------------------------

    Molecular point group: c1

    Geometry (in Angstrom), charge = 0, multiplicity = 1:

       Center              X                  Y                   Z               Mass
    ------------   -----------------  -----------------  -----------------  -----------------
      Gh(NA)          0.000000000000     0.000000000000     0.000000000000    22.989769282000
      Gh(O)          -1.035469000000    -1.877733000000    -1.037852000000    15.994914619570
      Gh(H)          -1.914073000000    -1.912738000000    -1.481150000000     1.007825032230
      Gh(H)          -1.270202000000    -2.328220000000    -0.196405000000     1.007825032230
      Gh(O)          -0.623731000000    -1.237449000000     2.063589000000    15.994914619570
      Gh(H)           0.123574000000    -1.772288000000     1.889788000000     1.007825032230
      Gh(H)          -0.388852000000    -0.873164000000     2.865156000000     1.007825032230
         O            0.653367000000     1.518737000000     1.808040000000    15.994914619570
         H            0.766860000000     2.445606000000     1.720125000000     1.007825032230
         H            0.812468000000     1.282621000000     2.725264000000     1.007825032230
      Gh(O)           2.312222000000    -0.475036000000    -0.468273000000    15.994914619570
      Gh(H)           2.269566000000    -1.391884000000    -0.857949000000     1.007825032230
      Gh(H)           2.939618000000    -0.534606000000     0.294558000000     1.007825032230
      Gh(O)          -0.258050000000     2.061129000000    -1.410113000000    15.994914619570
      Gh(H)          -0.293113000000     2.841031000000    -0.763467000000     1.007825032230
      Gh(H)           0.138236000000     2.436837000000    -2.226861000000     1.007825032230

  Charge       = 0
  Multiplicity = 1
  Basis Set: AUG-CC-PVTZ
    Blend: AUG-CC-PVTZ
  Basis Set: (AUG-CC-PVTZ AUX)
    Blend: AUG-CC-PVTZ-JKFIT + DEF2-UNIVERSAL-JKFIT

    Orbital Energies [Eh]
    ---------------------

    Doubly Occupied:

       1A    -20.563921     2A     -1.355183     3A     -0.729363
       4A     -0.579156     5A     -0.509908

  @DF-RHF Final Energy:   -76.06077997138391

   => Energetics <=

    Nuclear Repulsion Energy =              9.2657090611672199
    One-Electron Energy =                -123.1779137691051318
    Two-Electron Energy =                  37.8514247365540086
    Total Energy =                        -76.0607799713839086
 Dipole X            :        -12.6779090           12.8619749            0.1840659
 Dipole Y            :        -29.5356300           30.0053039            0.4696739
 Dipole Z            :        -35.1757785           35.7341711            0.5583926
 Magnitude           :                                                    0.7525132
  Basis Set: (AUG-CC-PVTZ AUX)
    Blend: AUG-CC-PVTZ-RI + DEF2-QZVPP-RI
	 Reference Energy          =     -76.0607799713839086 [Eh]
	 Singles Energy            =      -0.0000000000000000 [Eh]
	 Same-Spin Energy          =      -0.0682042759587945 [Eh]
	 Opposite-Spin Energy      =      -0.2151610192434578 [Eh]
	 Correlation Energy        =      -0.2833652952022523 [Eh]
	 Total Energy              =     -76.3441452665861675 [Eh]

	 ================> DF-SCS-MP2 Energies <==================
	-----------------------------------------------------------
	 SCS Same-Spin Scale       =       0.3333333333333333 [-]
	 SCS Opposite-Spin Scale   =       1.2000000000000000 [-]
	 SCS Same-Spin Energy      =      -0.0227347586529315 [Eh]
	 SCS Opposite-Spin Energy  =      -0.2581932230921493 [Eh]
	 SCS Correlation Energy    =      -0.2809279817450808 [Eh]
	 SCS Total Energy          =     -76.3417079531289886 [Eh]
	-----------------------------------------------------------

*** Psi4 exiting successfully. Buy a developer a beer!
