                               Psi4 1.9 release

  ==> Input File <==

--------------------------------------------------------------------------
MEMORY 60 GB

molecule dimer {
1 1
Na     0.000000     0.000000     0.000000
--
0 1
O     -0.873183    -0.042255    -2.202229
H     -1.560372     0.663997    -2.132574
H     -0.159520     0.419195    -2.658009
O      1.774585    -1.111243    -0.868120
H      2.668034    -0.822498    -1.023053
H      1.823483    -1.922315    -0.332354
O      0.464055     2.270172    -0.774407
H      0.794773     2.768432     0.018710
H      0.991671     2.713961    -1.495196
O     -0.152636     0.078280     2.536654
H     -0.531478     0.659236     3.209083
H     -0.606956    -0.844174     2.462228
O     -2.312711     0.767096     0.299708
H     -2.650719     0.461772     1.137174
H     -2.063417     1.711685     0.481131

units ang
no_reorient
no_com
symmetry c1
}

set {
basis        aug-cc-pVTZ
scf_type     df
}

energy("mp2", bsse_type="cp")
--------------------------------------------------------------------------

                               Psi4 1.9 release
    Molecular point group: c1
  Charge       = 0
  Multiplicity = 1
  Basis Set: AUG-CC-PVTZ
    Blend: AUG-CC-PVTZ
  Basis Set: (AUG-CC-PVTZ AUX)
    Blend: AUG-CC-PVTZ-JKFIT + DEF2-UNIVERSAL-JKFIT
  @DF-RHF Final Energy:  -380.26602794462485
    Total Energy =                       -380.2660279446248524
 Dipole X            :         19.7259102          -19.0741793            0.6517309
 Dipole Y            :        -39.4964670           40.6398661            1.1433991
 Dipole Z            :         17.0807332          -15.8737221            1.2070111
 Magnitude           :                                                    1.7857745
  Basis Set: (AUG-CC-PVTZ AUX)
    Blend: AUG-CC-PVTZ-RI + DEF2-QZVPP-RI
	 Reference Energy          =    -380.2660279446248524 [Eh]
	 Singles Energy            =      -0.0000000000000000 [Eh]
	 Same-Spin Energy          =      -0.3476167930881651 [Eh]
	 Opposite-Spin Energy      =      -1.0898486503466276 [Eh]
	 Correlation Energy        =      -1.4374654434347927 [Eh]
	 Total Energy              =    -381.7034933880596554 [Eh]
	 SCS Total Energy          =    -381.6897185894035260 [Eh]
                               Psi4 1.9 release
    Molecular point group: c1
  Multiplicity = 1
  Basis Set: AUG-CC-PVTZ
    Blend: AUG-CC-PVTZ
  Basis Set: (AUG-CC-PVTZ AUX)
    Blend: AUG-CC-PVTZ-JKFIT + DEF2-UNIVERSAL-JKFIT
  @DF-RHF Final Energy:  -161.67609130569622
    Total Energy =                       -161.6760913056962181
  Basis Set: (AUG-CC-PVTZ AUX)
	 Singles Energy            =      -0.0000000000000000 [Eh]
	 Same-Spin Energy          =      -0.0062136072585003 [Eh]
	 Opposite-Spin Energy      =      -0.0191819977156570 [Eh]
	 Correlation Energy        =      -0.0253956049741573 [Eh]
	 Total Energy              =    -161.7014869106703827 [Eh]
	 SCS Total Energy          =    -161.7011809053745139 [Eh]
                               Psi4 1.9 release
    Molecular point group: c1

    Geometry (in Bohr), charge = 1, multiplicity = 1:

       Center              X                  Y                   Z               Mass
    ------------   -----------------  -----------------  -----------------  -----------------
         NA           0.000000000000     0.000000000000     0.000000000000    22.989769282000
         O           -1.650076727406    -0.079850377431    -4.161609675541    15.994914619570
         H           -2.948675733833     1.254772478126    -4.029980802272     1.007825032230
         H           -0.301449111533     0.792163743161    -5.022909049002     1.007825032230
         O            3.353479636346    -2.099944928832    -1.640509044032    15.994914619570
         H            5.041853553410    -1.554295958737    -1.933289981828     1.007825032230
         H            3.445883464428    -3.632648876859    -0.628058036700     1.007825032230
         O            0.876936857149     4.290003337683    -1.463417139637    15.994914619570
         H            1.501903301908     5.231578276953     0.035356775807     1.007825032230
         H            1.873986596559     5.128643005174    -2.825510943880     1.007825032230
         O           -0.288440236885     0.147927761101     4.793581335047    15.994914619570
         H           -1.004347861706     1.245775492042     6.064287983863     1.007825032230
         H           -1.146980610203    -1.595257662232     4.652936578434     1.007825032230
         O           -4.370390397334     1.449601351934     0.566366037609    15.994914619570
         H           -5.009132945547     0.872622612405     2.148947416991     1.007825032230
         H           -3.899293012614     3.234615863054     0.909205820468     1.007825032230

  Charge       = 1
  Multiplicity = 1
  Basis Set: AUG-CC-PVTZ
    Blend: AUG-CC-PVTZ
  Basis Set: (AUG-CC-PVTZ AUX)
    Blend: AUG-CC-PVTZ-JKFIT + DEF2-UNIVERSAL-JKFIT

    Orbital Energies [Eh]
    ---------------------

    Doubly Occupied:

       1A    -40.569766     2A    -20.744252     3A    -20.739702
       4A    -20.730032     5A    -20.726339     6A    -20.698487
       7A     -2.892295     8A     -1.617898     9A     -1.616950
      10A     -1.615883    11A     -1.516328    12A     -1.510923
      13A     -1.506861    14A     -1.500882    15A     -1.477468
      16A     -0.887294    17A     -0.886324    18A     -0.868160
      19A     -0.861398    20A     -0.833510    21A     -0.770570
      22A     -0.757602    23A     -0.746076    24A     -0.736769
      25A     -0.719273    26A     -0.690301    27A     -0.685393
      28A     -0.678839    29A     -0.663724    30A     -0.644395

  @DF-RHF Final Energy:  -542.06509696796593

   => Energetics <=

    Nuclear Repulsion Energy =            304.9101692539547912
    One-Electron Energy =               -1352.1631371117148319
    Two-Electron Energy =                 505.1878708897941124
    Total Energy =                       -542.0650969679659283
 Dipole X            :         19.6805930          -19.0741793            0.6064137
 Dipole Y            :        -39.2386161           40.6398661            1.4012500
 Dipole Z            :         16.9815583          -15.8737221            1.1078362
 Magnitude           :                                                    1.8864094
  Basis Set: (AUG-CC-PVTZ AUX)
    Blend: AUG-CC-PVTZ-RI + DEF2-QZVPP-RI
	 Reference Energy          =    -542.0650969679659283 [Eh]
	 Singles Energy            =      -0.0000000000000000 [Eh]
	 Same-Spin Energy          =      -0.3529897842762539 [Eh]
	 Opposite-Spin Energy      =      -1.1036828634478506 [Eh]
	 Correlation Energy        =      -1.4566726477241045 [Eh]
	 Total Energy              =    -543.5217696156900047 [Eh]

	 ================> DF-SCS-MP2 Energies <==================
	-----------------------------------------------------------
	 SCS Same-Spin Scale       =       0.3333333333333333 [-]
	 SCS Opposite-Spin Scale   =       1.2000000000000000 [-]
	 SCS Same-Spin Energy      =      -0.1176632614254180 [Eh]
	 SCS Opposite-Spin Energy  =      -1.3244194361374206 [Eh]
	 SCS Correlation Energy    =      -1.4420826975628387 [Eh]
	 SCS Total Energy          =    -543.5071796655287244 [Eh]
	-----------------------------------------------------------

*** Psi4 exiting successfully. Buy a developer a beer!
