                               Psi4 1.8.2 release

  ==> Input File <==

--------------------------------------------------------------------------
MEMORY 60 GB

molecule dimer {
0 1
Gh(Na)     0.000000     0.000000     0.000000
Gh(O)     -0.373908    -0.320673     2.484518
Gh(H)     -1.075171     0.267965     2.781766
Gh(H)      0.357161    -0.112230     3.132774
Gh(O)      0.260806     2.188773     0.689234
Gh(H)      1.017755     2.399399     1.221425
Gh(H)     -0.370081     2.837143     1.057611
Gh(O)      2.323825    -0.799730    -0.920658
Gh(H)      3.073215    -0.195934    -0.764671
Gh(H)      2.715529    -1.654161    -1.127599
O         -0.099702    -2.132529    -0.499752
H         -0.685269    -2.335558    -1.251089
H          0.749660    -2.501080    -0.828822
Gh(O)     -1.009062     0.489742    -2.280169
Gh(H)     -1.671643    -0.043495    -2.783804
Gh(H)     -1.520087     1.285755    -2.004546
Gh(O)     -2.549908    -0.286113    -0.075637
Gh(H)     -2.716610     0.677349    -0.098151
Gh(H)     -3.230088    -0.649298    -0.683917

units ang
no_reorient
no_com
symmetry c1
}

set {
basis        aug-cc-pVTZ
scf_type     df
}

energy("mp2")
--------------------------------------------------------------------------

    Molecular point group: c1

    Geometry (in Angstrom), charge = 0, multiplicity = 1:

       Center              X                  Y                   Z               Mass
    ------------   -----------------  -----------------  -----------------  -----------------
      Gh(NA)          0.000000000000     0.000000000000     0.000000000000    22.989769282000
      Gh(O)          -0.373908000000    -0.320673000000     2.484518000000    15.994914619570
      Gh(H)          -1.075171000000     0.267965000000     2.781766000000     1.007825032230
      Gh(H)           0.357161000000    -0.112230000000     3.132774000000     1.007825032230
      Gh(O)           0.260806000000     2.188773000000     0.689234000000    15.994914619570
      Gh(H)           1.017755000000     2.399399000000     1.221425000000     1.007825032230
      Gh(H)          -0.370081000000     2.837143000000     1.057611000000     1.007825032230
      Gh(O)           2.323825000000    -0.799730000000    -0.920658000000    15.994914619570
      Gh(H)           3.073215000000    -0.195934000000    -0.764671000000     1.007825032230
      Gh(H)           2.715529000000    -1.654161000000    -1.127599000000     1.007825032230
         O           -0.099702000000    -2.132529000000    -0.499752000000    15.994914619570
         H           -0.685269000000    -2.335558000000    -1.251089000000     1.007825032230
         H            0.749660000000    -2.501080000000    -0.828822000000     1.007825032230
      Gh(O)          -1.009062000000     0.489742000000    -2.280169000000    15.994914619570
      Gh(H)          -1.671643000000    -0.043495000000    -2.783804000000     1.007825032230
      Gh(H)          -1.520087000000     1.285755000000    -2.004546000000     1.007825032230
      Gh(O)          -2.549908000000    -0.286113000000    -0.075637000000    15.994914619570
      Gh(H)          -2.716610000000     0.677349000000    -0.098151000000     1.007825032230
      Gh(H)          -3.230088000000    -0.649298000000    -0.683917000000     1.007825032230

  Charge       = 0
  Multiplicity = 1
  Basis Set: AUG-CC-PVTZ
    Blend: AUG-CC-PVTZ
  Basis Set: (AUG-CC-PVTZ AUX)
    Blend: AUG-CC-PVTZ-JKFIT + DEF2-UNIVERSAL-JKFIT

    Orbital Energies [Eh]
    ---------------------

    Doubly Occupied:

       1A    -20.572342     2A     -1.345622     3A     -0.698730
       4A     -0.588475     5A     -0.509797

  @DF-RHF Final Energy:   -76.05801795830082

   => Energetics <=

    Nuclear Repulsion Energy =              9.0065129478578072
    One-Electron Energy =                -122.6991277052880065
    Two-Electron Energy =                  37.6345967991293691
    Total Energy =                        -76.0580179583008231
 Dipole X            :          1.5552072           -1.3855944            0.1696128
 Dipole Y            :         41.0081432          -41.3790873           -0.3709441
 Dipole Z            :         10.7840170          -11.4856174           -0.7016004
 Magnitude           :                                                    0.8115486
  Basis Set: (AUG-CC-PVTZ AUX)
    Blend: AUG-CC-PVTZ-RI + DEF2-QZVPP-RI
	 Reference Energy          =     -76.0580179583008231 [Eh]
	 Singles Energy            =      -0.0000000000000000 [Eh]
	 Same-Spin Energy          =      -0.0689146542062740 [Eh]
	 Opposite-Spin Energy      =      -0.2175750683712891 [Eh]
	 Correlation Energy        =      -0.2864897225775631 [Eh]
	 Total Energy              =     -76.3445076808783796 [Eh]

	 ================> DF-SCS-MP2 Energies <==================
	-----------------------------------------------------------
	 SCS Same-Spin Scale       =       0.3333333333333333 [-]
	 SCS Opposite-Spin Scale   =       1.2000000000000000 [-]
	 SCS Same-Spin Energy      =      -0.0229715514020913 [Eh]
	 SCS Opposite-Spin Energy  =      -0.2610900820455469 [Eh]
	 SCS Correlation Energy    =      -0.2840616334476382 [Eh]
	 SCS Total Energy          =     -76.3420795917484583 [Eh]
	-----------------------------------------------------------

*** Psi4 exiting successfully. Buy a developer a beer!
