                               Psi4 1.8.2 release

  ==> Input File <==

--------------------------------------------------------------------------
MEMORY 60 GB

molecule dimer {
0 1
Gh(Na)     0.000000     0.000000     0.000000
Gh(O)      0.659986    -2.040507     0.606036
Gh(H)      0.158925    -2.823573     0.524427
Gh(H)      1.510866    -2.288362     0.337845
Gh(O)      2.115452     0.634802     0.818018
Gh(H)      2.351575     1.571131     0.886082
Gh(H)      2.064804     0.316408     1.680790
O         -2.136022     0.705726    -0.204914
H         -2.636726     0.821809    -1.022408
H         -2.660104     0.011381     0.299743

units ang
no_reorient
no_com
symmetry c1
}

set {
basis        aug-cc-pVTZ
scf_type     df
}

energy("mp2")
--------------------------------------------------------------------------

    Molecular point group: c1

    Geometry (in Angstrom), charge = 0, multiplicity = 1:

       Center              X                  Y                   Z               Mass
    ------------   -----------------  -----------------  -----------------  -----------------
      Gh(NA)          0.000000000000     0.000000000000     0.000000000000    22.989769282000
      Gh(O)           0.659986000000    -2.040507000000     0.606036000000    15.994914619570
      Gh(H)           0.158925000000    -2.823573000000     0.524427000000     1.007825032230
      Gh(H)           1.510866000000    -2.288362000000     0.337845000000     1.007825032230
      Gh(O)           2.115452000000     0.634802000000     0.818018000000    15.994914619570
      Gh(H)           2.351575000000     1.571131000000     0.886082000000     1.007825032230
      Gh(H)           2.064804000000     0.316408000000     1.680790000000     1.007825032230
         O           -2.136022000000     0.705726000000    -0.204914000000    15.994914619570
         H           -2.636726000000     0.821809000000    -1.022408000000     1.007825032230
         H           -2.660104000000     0.011381000000     0.299743000000     1.007825032230

  Charge       = 0
  Multiplicity = 1
  Basis Set: AUG-CC-PVTZ
    Blend: AUG-CC-PVTZ
  Basis Set: (AUG-CC-PVTZ AUX)
    Blend: AUG-CC-PVTZ-JKFIT + DEF2-UNIVERSAL-JKFIT

    Orbital Energies [Eh]
    ---------------------

    Doubly Occupied:

       1A    -20.572185     2A     -1.340155     3A     -0.701154
       4A     -0.580712     5A     -0.508326

  @DF-RHF Final Energy:   -76.05667234429687

   => Energetics <=

    Nuclear Repulsion Energy =              8.9345901192229142
    One-Electron Energy =                -122.5774586571698137
    Two-Electron Energy =                  37.5861961936500180
    Total Energy =                        -76.0566723442968851
 Dipole X            :         41.6333671          -42.3015307           -0.6681636
 Dipole Y            :        -12.6166330           12.2435318           -0.3731012
 Dipole Z            :          4.2535684           -4.4634896           -0.2099212
 Magnitude           :                                                    0.7935452
  Basis Set: (AUG-CC-PVTZ AUX)
    Blend: AUG-CC-PVTZ-RI + DEF2-QZVPP-RI
	 Reference Energy          =     -76.0566723442968708 [Eh]
	 Singles Energy            =      -0.0000000000000000 [Eh]
	 Same-Spin Energy          =      -0.0689061586816057 [Eh]
	 Opposite-Spin Energy      =      -0.2173060976930392 [Eh]
	 Correlation Energy        =      -0.2862122563746449 [Eh]
	 Total Energy              =     -76.3428846006715105 [Eh]

	 ================> DF-SCS-MP2 Energies <==================
	-----------------------------------------------------------
	 SCS Same-Spin Scale       =       0.3333333333333333 [-]
	 SCS Opposite-Spin Scale   =       1.2000000000000000 [-]
	 SCS Same-Spin Energy      =      -0.0229687195605352 [Eh]
	 SCS Opposite-Spin Energy  =      -0.2607673172316470 [Eh]
	 SCS Correlation Energy    =      -0.2837360367921822 [Eh]
	 SCS Total Energy          =     -76.3404083810890484 [Eh]
	-----------------------------------------------------------

*** Psi4 exiting successfully. Buy a developer a beer!
