                               Psi4 1.9 release

  ==> Input File <==

--------------------------------------------------------------------------
MEMORY 60 GB

molecule dimer {
1 1
Na     0.000000     0.000000     0.000000
--
0 1
O     -1.724880    -1.271601     1.213900
H     -2.325128    -0.571095     1.379831
H     -2.168723    -1.746989     0.502293
O     -0.039054    -1.936295    -1.391128
H      0.391505    -2.720753    -1.100880
H      0.371378    -1.668308    -2.222008
O     -1.221731     2.060268    -0.618102
H     -2.197672     1.923654    -0.578974
H     -1.034113     2.478922     0.254269
O      2.170696    -1.419467     0.263194
H      2.386052    -0.539926    -0.129718
H      2.614810    -1.412889     1.118737
O      1.577504     0.614945    -1.358706
H      1.342517     0.541305    -2.293175
H      1.634371     1.604489    -1.284154
O      0.804081     0.832483     2.115286
H      0.484562     0.652400     2.977864
H      1.717967     0.859279     2.323688

units ang
no_reorient
no_com
symmetry c1
}

set {
basis        aug-cc-pVTZ
scf_type     df
}

energy("mp2", bsse_type="cp")
--------------------------------------------------------------------------

                               Psi4 1.9 release
    Molecular point group: c1
  Charge       = 0
  Multiplicity = 1
  Basis Set: AUG-CC-PVTZ
    Blend: AUG-CC-PVTZ
  Basis Set: (AUG-CC-PVTZ AUX)
    Blend: AUG-CC-PVTZ-JKFIT + DEF2-UNIVERSAL-JKFIT
  @DF-RHF Final Energy:  -456.33403505217711
    Total Energy =                       -456.3340350521771143
 Dipole X            :        -29.7676116           29.7640444           -0.0035672
 Dipole Y            :         19.2197291          -18.0605793            1.1591497
 Dipole Z            :         -4.9154326            5.1841329            0.2687003
 Magnitude           :                                                    1.1898910
  Basis Set: (AUG-CC-PVTZ AUX)
    Blend: AUG-CC-PVTZ-RI + DEF2-QZVPP-RI
	 Reference Energy          =    -456.3340350521771143 [Eh]
	 Singles Energy            =      -0.0000000000000000 [Eh]
	 Same-Spin Energy          =      -0.4176183174984122 [Eh]
	 Opposite-Spin Energy      =      -1.3053817897141802 [Eh]
	 Correlation Energy        =      -1.7230001072125924 [Eh]
	 Total Energy              =    -458.0570351593897271 [Eh]
	 SCS Total Energy          =    -458.0396993056669430 [Eh]
                               Psi4 1.9 release
    Molecular point group: c1
  Multiplicity = 1
  Basis Set: AUG-CC-PVTZ
    Blend: AUG-CC-PVTZ
  Basis Set: (AUG-CC-PVTZ AUX)
    Blend: AUG-CC-PVTZ-JKFIT + DEF2-UNIVERSAL-JKFIT
  @DF-RHF Final Energy:  -161.67609831460530
    Total Energy =                       -161.6760983146053263
  Basis Set: (AUG-CC-PVTZ AUX)
	 Singles Energy            =      -0.0000000000000000 [Eh]
	 Same-Spin Energy          =      -0.0070673781495000 [Eh]
	 Opposite-Spin Energy      =      -0.0213487484854111 [Eh]
	 Correlation Energy        =      -0.0284161266349111 [Eh]
	 Total Energy              =    -161.7045144412402067 [Eh]
	 SCS Total Energy          =    -161.7040726055042796 [Eh]
                               Psi4 1.9 release
    Molecular point group: c1

    Geometry (in Bohr), charge = 1, multiplicity = 1:

       Center              X                  Y                   Z               Mass
    ------------   -----------------  -----------------  -----------------  -----------------
         NA           0.000000000000     0.000000000000     0.000000000000    22.989769282000
         O           -3.259550799280    -2.402977630858     2.293938543693    15.994914619570
         H           -4.393855126634    -1.079213141618     2.607502689417     1.007825032230
         H           -4.098292511981    -3.301330754187     0.949196204735     1.007825032230
         O           -0.073801364104    -3.659067248093    -2.628850925456    15.994914619570
         H            0.739837226747    -5.141478025018    -2.080361696994     1.007825032230
         H            0.701802709020    -3.152645212910    -4.198986568576     1.007825032230
         O           -2.308736988982     3.893342265045    -1.168043497598    15.994914619570
         H           -4.152998193587     3.635179220141    -1.094102293761     1.007825032230
         H           -1.954190352776     4.684483666372     0.480498772194     1.007825032230
         O            4.102020941627    -2.682403874125     0.497364577864    15.994914619570
         H            4.508984801101    -1.020312268014    -0.245131493542     1.007825032230
         H            4.941274770108    -2.669973255672     2.114106536416     1.007825032230
         O            2.981050521814     1.162077632220    -2.567582225016    15.994914619570
         H            2.536989448771     1.022918200341    -4.333472707747     1.007825032230
         H            3.088513577391     3.032044781310    -2.426699362911     1.007825032230
         O            1.519492872684     1.573164874100     3.997311217015    15.994914619570
         H            0.915689470804     1.232857324249     5.627347398860     1.007825032230
         H            3.246487122574     1.623801975357     4.391133921013     1.007825032230

  Charge       = 1
  Multiplicity = 1
  Basis Set: AUG-CC-PVTZ
    Blend: AUG-CC-PVTZ
  Basis Set: (AUG-CC-PVTZ AUX)
    Blend: AUG-CC-PVTZ-JKFIT + DEF2-UNIVERSAL-JKFIT

    Orbital Energies [Eh]
    ---------------------

    Doubly Occupied:

       1A    -40.547097     2A    -20.751116     3A    -20.737813
       4A    -20.729044     5A    -20.712763     6A    -20.700330
       7A    -20.687280     8A     -2.871689     9A     -1.600379
      10A     -1.596650    11A     -1.595572    12A     -1.535022
      13A     -1.532660    14A     -1.508615    15A     -1.507377
      16A     -1.494038    17A     -1.468039    18A     -0.885647
      19A     -0.879509    20A     -0.866121    21A     -0.864439
      22A     -0.861355    23A     -0.854190    24A     -0.781493
      25A     -0.771025    26A     -0.756924    27A     -0.742171
      28A     -0.730212    29A     -0.717104    30A     -0.698031
      31A     -0.684414    32A     -0.681100    33A     -0.662738
      34A     -0.649381    35A     -0.630760

  @DF-RHF Final Energy:  -618.14240020248928

   => Energetics <=

    Nuclear Repulsion Energy =            413.4903039599839758
    One-Electron Energy =               -1672.6812048939268607
    Two-Electron Energy =                 641.0485007314536006
    Total Energy =                       -618.1424002024892843
 Dipole X            :        -29.6228460           29.7640444            0.1411984
 Dipole Y            :         19.1517840          -18.0605793            1.0912047
 Dipole Z            :         -4.9004037            5.1841329            0.2837293
 Magnitude           :                                                    1.1362953
  Basis Set: (AUG-CC-PVTZ AUX)
    Blend: AUG-CC-PVTZ-RI + DEF2-QZVPP-RI
	 Reference Energy          =    -618.1424002024892843 [Eh]
	 Singles Energy            =      -0.0000000000000000 [Eh]
	 Same-Spin Energy          =      -0.4239299357737443 [Eh]
	 Opposite-Spin Energy      =      -1.3210871011585839 [Eh]
	 Correlation Energy        =      -1.7450170369323281 [Eh]
	 Total Energy              =    -619.8874172394216657 [Eh]

	 ================> DF-SCS-MP2 Energies <==================
	-----------------------------------------------------------
	 SCS Same-Spin Scale       =       0.3333333333333333 [-]
	 SCS Opposite-Spin Scale   =       1.2000000000000000 [-]
	 SCS Same-Spin Energy      =      -0.1413099785912481 [Eh]
	 SCS Opposite-Spin Energy  =      -1.5853045213903005 [Eh]
	 SCS Correlation Energy    =      -1.7266144999815487 [Eh]
	 SCS Total Energy          =    -619.8690147024708494 [Eh]
	-----------------------------------------------------------

*** Psi4 exiting successfully. Buy a developer a beer!
