                               Psi4 1.8.2 release

  ==> Input File <==

--------------------------------------------------------------------------
MEMORY 60 GB

molecule dimer {
0 1
Gh(Na)     0.000000     0.000000     0.000000
Gh(O)     -0.763534     0.932846     2.231461
Gh(H)     -0.733128     1.900005     2.285331
Gh(H)     -0.178159     0.502091     2.866138
Gh(O)      0.452399     2.241951    -0.962680
Gh(H)      1.205593     2.615208    -0.515886
Gh(H)      0.800151     2.215705    -1.892096
Gh(O)      0.346113    -2.463872     0.347284
Gh(H)      0.268206    -3.107115    -0.361290
Gh(H)     -0.089641    -3.005871     1.016265
O          2.050775    -0.213605    -1.193701
H          2.004919    -1.173998    -1.292082
H          2.563798    -0.024846    -0.341802
Gh(O)     -1.677611    -0.559730    -1.506099
Gh(H)     -2.457862    -0.155870    -2.009591
Gh(H)     -1.026711    -0.660387    -2.183118

units ang
no_reorient
no_com
symmetry c1
}

set {
basis        aug-cc-pVTZ
scf_type     df
}

energy("mp2")
--------------------------------------------------------------------------

    Molecular point group: c1

    Geometry (in Angstrom), charge = 0, multiplicity = 1:

       Center              X                  Y                   Z               Mass
    ------------   -----------------  -----------------  -----------------  -----------------
      Gh(NA)          0.000000000000     0.000000000000     0.000000000000    22.989769282000
      Gh(O)          -0.763534000000     0.932846000000     2.231461000000    15.994914619570
      Gh(H)          -0.733128000000     1.900005000000     2.285331000000     1.007825032230
      Gh(H)          -0.178159000000     0.502091000000     2.866138000000     1.007825032230
      Gh(O)           0.452399000000     2.241951000000    -0.962680000000    15.994914619570
      Gh(H)           1.205593000000     2.615208000000    -0.515886000000     1.007825032230
      Gh(H)           0.800151000000     2.215705000000    -1.892096000000     1.007825032230
      Gh(O)           0.346113000000    -2.463872000000     0.347284000000    15.994914619570
      Gh(H)           0.268206000000    -3.107115000000    -0.361290000000     1.007825032230
      Gh(H)          -0.089641000000    -3.005871000000     1.016265000000     1.007825032230
         O            2.050775000000    -0.213605000000    -1.193701000000    15.994914619570
         H            2.004919000000    -1.173998000000    -1.292082000000     1.007825032230
         H            2.563798000000    -0.024846000000    -0.341802000000     1.007825032230
      Gh(O)          -1.677611000000    -0.559730000000    -1.506099000000    15.994914619570
      Gh(H)          -2.457862000000    -0.155870000000    -2.009591000000     1.007825032230
      Gh(H)          -1.026711000000    -0.660387000000    -2.183118000000     1.007825032230

  Charge       = 0
  Multiplicity = 1
  Basis Set: AUG-CC-PVTZ
    Blend: AUG-CC-PVTZ
  Basis Set: (AUG-CC-PVTZ AUX)
    Blend: AUG-CC-PVTZ-JKFIT + DEF2-UNIVERSAL-JKFIT

    Orbital Energies [Eh]
    ---------------------

    Doubly Occupied:

       1A    -20.571135     2A     -1.336190     3A     -0.705361
       4A     -0.573403     5A     -0.506987

  @DF-RHF Final Energy:   -76.05575333729915

   => Energetics <=

    Nuclear Repulsion Energy =              8.8948026362526722
    One-Electron Energy =                -122.5149572900825774
    Two-Electron Energy =                  37.5644013165307342
    Total Energy =                        -76.0557533372991657
 Dipole X            :        -39.3322441           39.6368486            0.3046046
 Dipole Y            :          4.9824856           -5.4947264           -0.5122408
 Dipole Z            :         21.6243578          -21.1337370            0.4906208
 Magnitude           :                                                    0.7719348
  Basis Set: (AUG-CC-PVTZ AUX)
    Blend: AUG-CC-PVTZ-RI + DEF2-QZVPP-RI
	 Reference Energy          =     -76.0557533372991514 [Eh]
	 Singles Energy            =      -0.0000000000000000 [Eh]
	 Same-Spin Energy          =      -0.0689387925469368 [Eh]
	 Opposite-Spin Energy      =      -0.2175964317659550 [Eh]
	 Correlation Energy        =      -0.2865352243128918 [Eh]
	 Total Energy              =     -76.3422885616120368 [Eh]

	 ================> DF-SCS-MP2 Energies <==================
	-----------------------------------------------------------
	 SCS Same-Spin Scale       =       0.3333333333333333 [-]
	 SCS Opposite-Spin Scale   =       1.2000000000000000 [-]
	 SCS Same-Spin Energy      =      -0.0229795975156456 [Eh]
	 SCS Opposite-Spin Energy  =      -0.2611157181191460 [Eh]
	 SCS Correlation Energy    =      -0.2840953156347916 [Eh]
	 SCS Total Energy          =     -76.3398486529339380 [Eh]
	-----------------------------------------------------------

*** Psi4 exiting successfully. Buy a developer a beer!
