                               Psi4 1.8.2 release

  ==> Input File <==

--------------------------------------------------------------------------
MEMORY 60 GB

molecule dimer {
0 1
Gh(Na)     0.000000     0.000000     0.000000
Gh(O)     -1.371627    -0.910990    -1.738968
Gh(H)     -2.225004    -0.362023    -1.723958
Gh(H)     -1.583777    -1.810688    -1.348074
Gh(O)     -1.627495     1.776149     0.403766
Gh(H)     -1.295572     2.668369     0.129330
Gh(H)     -2.180298     1.827238     1.131582
O          1.777113    -1.842919    -0.309474
H          1.036427    -2.184772     0.244859
H          2.605022    -1.908448     0.154364
Gh(O)     -0.746949    -1.450897     1.784131
Gh(H)     -1.396092    -2.132055     1.814768
Gh(H)     -0.857192    -1.089903     2.632736

units ang
no_reorient
no_com
symmetry c1
}

set {
basis        aug-cc-pVTZ
scf_type     df
}

energy("mp2")
--------------------------------------------------------------------------

    Molecular point group: c1

    Geometry (in Angstrom), charge = 0, multiplicity = 1:

       Center              X                  Y                   Z               Mass
    ------------   -----------------  -----------------  -----------------  -----------------
      Gh(NA)          0.000000000000     0.000000000000     0.000000000000    22.989769282000
      Gh(O)          -1.371627000000    -0.910990000000    -1.738968000000    15.994914619570
      Gh(H)          -2.225004000000    -0.362023000000    -1.723958000000     1.007825032230
      Gh(H)          -1.583777000000    -1.810688000000    -1.348074000000     1.007825032230
      Gh(O)          -1.627495000000     1.776149000000     0.403766000000    15.994914619570
      Gh(H)          -1.295572000000     2.668369000000     0.129330000000     1.007825032230
      Gh(H)          -2.180298000000     1.827238000000     1.131582000000     1.007825032230
         O            1.777113000000    -1.842919000000    -0.309474000000    15.994914619570
         H            1.036427000000    -2.184772000000     0.244859000000     1.007825032230
         H            2.605022000000    -1.908448000000     0.154364000000     1.007825032230
      Gh(O)          -0.746949000000    -1.450897000000     1.784131000000    15.994914619570
      Gh(H)          -1.396092000000    -2.132055000000     1.814768000000     1.007825032230
      Gh(H)          -0.857192000000    -1.089903000000     2.632736000000     1.007825032230

  Charge       = 0
  Multiplicity = 1
  Basis Set: AUG-CC-PVTZ
    Blend: AUG-CC-PVTZ
  Basis Set: (AUG-CC-PVTZ AUX)
    Blend: AUG-CC-PVTZ-JKFIT + DEF2-UNIVERSAL-JKFIT

    Orbital Energies [Eh]
    ---------------------

    Doubly Occupied:

       1A    -20.566009     2A     -1.343568     3A     -0.723003
       4A     -0.570352     5A     -0.507463

  @DF-RHF Final Energy:   -76.05838243104894

   => Energetics <=

    Nuclear Repulsion Energy =              9.0743614742063343
    One-Electron Energy =                -122.8446944089365900
    Two-Electron Energy =                  37.7119505036813010
    Total Energy =                        -76.0583824310489547
 Dipole X            :        -33.6839707           33.7473962            0.0634255
 Dipole Y            :         35.3221739          -35.5959622           -0.2737883
 Dipole Z            :          4.6094691           -3.9241467            0.6853224
 Magnitude           :                                                    0.7407089
  Basis Set: (AUG-CC-PVTZ AUX)
    Blend: AUG-CC-PVTZ-RI + DEF2-QZVPP-RI
	 Reference Energy          =     -76.0583824310489405 [Eh]
	 Singles Energy            =      -0.0000000000000000 [Eh]
	 Same-Spin Energy          =      -0.0685230237491256 [Eh]
	 Opposite-Spin Energy      =      -0.2160712567268969 [Eh]
	 Correlation Energy        =      -0.2845942804760225 [Eh]
	 Total Energy              =     -76.3429767115249689 [Eh]

	 ================> DF-SCS-MP2 Energies <==================
	-----------------------------------------------------------
	 SCS Same-Spin Scale       =       0.3333333333333333 [-]
	 SCS Opposite-Spin Scale   =       1.2000000000000000 [-]
	 SCS Same-Spin Energy      =      -0.0228410079163752 [Eh]
	 SCS Opposite-Spin Energy  =      -0.2592855080722763 [Eh]
	 SCS Correlation Energy    =      -0.2821265159886516 [Eh]
	 SCS Total Energy          =     -76.3405089470375913 [Eh]
	-----------------------------------------------------------

*** Psi4 exiting successfully. Buy a developer a beer!
