                               Psi4 1.8.2 release

  ==> Input File <==

--------------------------------------------------------------------------
MEMORY 60 GB

molecule dimer {
1 1
Na         0.000000     0.000000     0.000000
O          0.209842    -0.922257     1.980819
H         -0.293424    -1.759493     2.013630
H          1.137281    -1.096220     2.303432
O         -0.913097     1.589898    -1.328350
H         -0.417774     2.414856    -1.349717
H         -1.803269     1.800960    -0.984765

units ang
no_reorient
no_com
symmetry c1
}

set {
basis        aug-cc-pVTZ
scf_type     df
}

energy("mp2")
--------------------------------------------------------------------------

    Molecular point group: c1

    Geometry (in Angstrom), charge = 1, multiplicity = 1:

       Center              X                  Y                   Z               Mass
    ------------   -----------------  -----------------  -----------------  -----------------
         NA           0.000000000000     0.000000000000     0.000000000000    22.989769282000
         O            0.209842000000    -0.922257000000     1.980819000000    15.994914619570
         H           -0.293424000000    -1.759493000000     2.013630000000     1.007825032230
         H            1.137281000000    -1.096220000000     2.303432000000     1.007825032230
         O           -0.913097000000     1.589898000000    -1.328350000000    15.994914619570
         H           -0.417774000000     2.414856000000    -1.349717000000     1.007825032230
         H           -1.803269000000     1.800960000000    -0.984765000000     1.007825032230

  Charge       = 1
  Multiplicity = 1
  Basis Set: AUG-CC-PVTZ
    Blend: AUG-CC-PVTZ
  Basis Set: (AUG-CC-PVTZ AUX)
    Blend: AUG-CC-PVTZ-JKFIT + DEF2-UNIVERSAL-JKFIT

    Orbital Energies [Eh]
    ---------------------

    Doubly Occupied:

       1A    -40.646506     2A    -20.771378     3A    -20.763688
       4A     -2.968295     5A     -1.692942     6A     -1.692644
       7A     -1.692099     8A     -1.545128     9A     -1.541830
      10A     -0.912942    11A     -0.912681    12A     -0.791049
      13A     -0.786752    14A     -0.718636    15A     -0.713283

  @DF-RHF Final Energy:  -313.85495441931766

   => Energetics <=

    Nuclear Repulsion Energy =             80.0654838322139852
    One-Electron Energy =                -591.5411686912780169
    Two-Electron Energy =                 197.6207304397463247
    Total Energy =                       -313.8549544193176644
 Dipole X            :         13.1756372          -13.2341791           -0.0585420
 Dipole Y            :        -12.5698035           12.6634913            0.0936878
 Dipole Z            :        -13.0376803           13.6104349            0.5727546
 Magnitude           :                                                    0.5833116
  Basis Set: (AUG-CC-PVTZ AUX)
    Blend: AUG-CC-PVTZ-RI + DEF2-QZVPP-RI
	 Reference Energy          =    -313.8549544193176644 [Eh]
	 Singles Energy            =      -0.0000000000000000 [Eh]
	 Same-Spin Energy          =      -0.1407231973405702 [Eh]
	 Opposite-Spin Energy      =      -0.4433270793199937 [Eh]
	 Correlation Energy        =      -0.5840502766605639 [Eh]
	 Total Energy              =    -314.4390046959782126 [Eh]

	 ================> DF-SCS-MP2 Energies <==================
	-----------------------------------------------------------
	 SCS Same-Spin Scale       =       0.3333333333333333 [-]
	 SCS Opposite-Spin Scale   =       1.2000000000000000 [-]
	 SCS Same-Spin Energy      =      -0.0469077324468567 [Eh]
	 SCS Opposite-Spin Energy  =      -0.5319924951839924 [Eh]
	 SCS Correlation Energy    =      -0.5789002276308491 [Eh]
	 SCS Total Energy          =    -314.4338546469485323 [Eh]
	-----------------------------------------------------------

*** Psi4 exiting successfully. Buy a developer a beer!
