                               Psi4 1.8.2 release

  ==> Input File <==

--------------------------------------------------------------------------
MEMORY 60 GB

molecule dimer {
0 1
Gh(Na)     0.000000     0.000000     0.000000
O         -0.016634     2.345683    -0.609321
H          0.441678     2.450256    -1.409300
H          0.733689     2.265644     0.005770
Gh(O)      0.406428    -1.097493    -2.293116
Gh(H)      0.899427    -0.937944    -3.106605
Gh(H)      0.661938    -1.992354    -2.078615
Gh(O)      2.069479     1.034300     0.451098
Gh(H)      2.747916     1.000797    -0.192622
Gh(H)      2.391647     0.698374     1.298185
Gh(O)     -1.213915     0.523942     1.927405
Gh(H)     -1.110685     1.402355     2.320522
Gh(H)     -2.137289     0.311989     1.834560
Gh(O)      1.342782    -1.704267     1.482592
Gh(H)      0.507916    -2.003377     1.175612
Gh(H)      1.850860    -2.539289     1.574754
Gh(O)     -1.325409    -1.920437     0.348480
Gh(H)     -1.929786    -1.973954     1.095278
Gh(H)     -1.800531    -2.290450    -0.440086

units ang
no_reorient
no_com
symmetry c1
}

set {
basis        aug-cc-pVTZ
scf_type     df
}

energy("mp2")
--------------------------------------------------------------------------

    Molecular point group: c1

    Geometry (in Angstrom), charge = 0, multiplicity = 1:

       Center              X                  Y                   Z               Mass
    ------------   -----------------  -----------------  -----------------  -----------------
      Gh(NA)          0.000000000000     0.000000000000     0.000000000000    22.989769282000
         O           -0.016634000000     2.345683000000    -0.609321000000    15.994914619570
         H            0.441678000000     2.450256000000    -1.409300000000     1.007825032230
         H            0.733689000000     2.265644000000     0.005770000000     1.007825032230
      Gh(O)           0.406428000000    -1.097493000000    -2.293116000000    15.994914619570
      Gh(H)           0.899427000000    -0.937944000000    -3.106605000000     1.007825032230
      Gh(H)           0.661938000000    -1.992354000000    -2.078615000000     1.007825032230
      Gh(O)           2.069479000000     1.034300000000     0.451098000000    15.994914619570
      Gh(H)           2.747916000000     1.000797000000    -0.192622000000     1.007825032230
      Gh(H)           2.391647000000     0.698374000000     1.298185000000     1.007825032230
      Gh(O)          -1.213915000000     0.523942000000     1.927405000000    15.994914619570
      Gh(H)          -1.110685000000     1.402355000000     2.320522000000     1.007825032230
      Gh(H)          -2.137289000000     0.311989000000     1.834560000000     1.007825032230
      Gh(O)           1.342782000000    -1.704267000000     1.482592000000    15.994914619570
      Gh(H)           0.507916000000    -2.003377000000     1.175612000000     1.007825032230
      Gh(H)           1.850860000000    -2.539289000000     1.574754000000     1.007825032230
      Gh(O)          -1.325409000000    -1.920437000000     0.348480000000    15.994914619570
      Gh(H)          -1.929786000000    -1.973954000000     1.095278000000     1.007825032230
      Gh(H)          -1.800531000000    -2.290450000000    -0.440086000000     1.007825032230

  Charge       = 0
  Multiplicity = 1
  Basis Set: AUG-CC-PVTZ
    Blend: AUG-CC-PVTZ
  Basis Set: (AUG-CC-PVTZ AUX)
    Blend: AUG-CC-PVTZ-JKFIT + DEF2-UNIVERSAL-JKFIT

    Orbital Energies [Eh]
    ---------------------

    Doubly Occupied:

       1A    -20.567564     2A     -1.360804     3A     -0.712309
       4A     -0.594841     5A     -0.512208

  @DF-RHF Final Energy:   -76.05909400657276

   => Energetics <=

    Nuclear Repulsion Energy =              9.2743744847984004
    One-Electron Energy =                -123.1714843570210434
    Two-Electron Energy =                  37.8380158656498793
    Total Energy =                        -76.0590940065727636
 Dipole X            :         -1.1744573            1.9696521            0.7951948
 Dipole Y            :        -44.3558064           44.3733470            0.0175406
 Dipole Z            :         11.7334030          -11.8638858           -0.1304828
 Magnitude           :                                                    0.8060200
  Basis Set: (AUG-CC-PVTZ AUX)
    Blend: AUG-CC-PVTZ-RI + DEF2-QZVPP-RI
	 Reference Energy          =     -76.0590940065727636 [Eh]
	 Singles Energy            =      -0.0000000000000000 [Eh]
	 Same-Spin Energy          =      -0.0684334494289715 [Eh]
	 Opposite-Spin Energy      =      -0.2161318055872872 [Eh]
	 Correlation Energy        =      -0.2845652550162587 [Eh]
	 Total Energy              =     -76.3436592615890248 [Eh]

	 ================> DF-SCS-MP2 Energies <==================
	-----------------------------------------------------------
	 SCS Same-Spin Scale       =       0.3333333333333333 [-]
	 SCS Opposite-Spin Scale   =       1.2000000000000000 [-]
	 SCS Same-Spin Energy      =      -0.0228111498096572 [Eh]
	 SCS Opposite-Spin Energy  =      -0.2593581667047447 [Eh]
	 SCS Correlation Energy    =      -0.2821693165144018 [Eh]
	 SCS Total Energy          =     -76.3412633230871620 [Eh]
	-----------------------------------------------------------

*** Psi4 exiting successfully. Buy a developer a beer!
