                               Psi4 1.9 release

  ==> Input File <==

--------------------------------------------------------------------------
MEMORY 60 GB

molecule dimer {
1 1
Na     0.000000     0.000000     0.000000
--
0 1
O      2.286825     0.018738     1.162364
H      2.422507    -0.937629     1.320021
H      3.154241     0.354742     0.916157
O     -1.940000    -0.872605    -1.363045
H     -1.549085    -0.576304    -2.160318
H     -1.845344    -1.858086    -1.342483
O     -0.655173     1.813118     1.423743
H     -0.115660     2.337774     1.998990
H     -1.523922     1.648894     1.868316
O      0.732611    -2.100991    -1.445357
H      1.373649    -1.504174    -1.763716
H      1.227791    -2.880539    -1.203486
O      0.580925     2.071104    -1.522124
H      1.295984     2.707142    -1.331350
H      0.539691     1.997408    -2.447503
O     -0.668604    -1.590147     1.552221
H     -1.165794    -0.844968     2.001000
H     -1.282074    -2.299719     1.373430

units ang
no_reorient
no_com
symmetry c1
}

set {
basis        aug-cc-pVTZ
scf_type     df
}

energy("mp2", bsse_type="cp")
--------------------------------------------------------------------------

                               Psi4 1.9 release
    Molecular point group: c1
  Charge       = 0
  Multiplicity = 1
  Basis Set: AUG-CC-PVTZ
    Blend: AUG-CC-PVTZ
  Basis Set: (AUG-CC-PVTZ AUX)
    Blend: AUG-CC-PVTZ-JKFIT + DEF2-UNIVERSAL-JKFIT
  @DF-RHF Final Energy:  -456.33472522383931
    Total Energy =                       -456.3347252238393139
 Dipole X            :         -8.5879633            9.8731689            1.2852056
 Dipole Y            :         13.2378274          -13.4959005           -0.2580731
 Dipole Z            :          4.1019419           -4.3624819           -0.2605400
 Magnitude           :                                                    1.3365015
  Basis Set: (AUG-CC-PVTZ AUX)
    Blend: AUG-CC-PVTZ-RI + DEF2-QZVPP-RI
	 Reference Energy          =    -456.3347252238393139 [Eh]
	 Singles Energy            =      -0.0000000000000000 [Eh]
	 Same-Spin Energy          =      -0.4147696086556673 [Eh]
	 Opposite-Spin Energy      =      -1.3012263553699615 [Eh]
	 Correlation Energy        =      -1.7159959640256288 [Eh]
	 Total Energy              =    -458.0507211878649514 [Eh]
	 SCS Total Energy          =    -458.0344533865018093 [Eh]
                               Psi4 1.9 release
    Molecular point group: c1
  Multiplicity = 1
  Basis Set: AUG-CC-PVTZ
    Blend: AUG-CC-PVTZ
  Basis Set: (AUG-CC-PVTZ AUX)
    Blend: AUG-CC-PVTZ-JKFIT + DEF2-UNIVERSAL-JKFIT
  @DF-RHF Final Energy:  -161.67609316738393
    Total Energy =                       -161.6760931673839252
  Basis Set: (AUG-CC-PVTZ AUX)
	 Singles Energy            =      -0.0000000000000000 [Eh]
	 Same-Spin Energy          =      -0.0066741045563690 [Eh]
	 Opposite-Spin Energy      =      -0.0203374482882238 [Eh]
	 Correlation Energy        =      -0.0270115528445928 [Eh]
	 Total Energy              =    -161.7031047202285094 [Eh]
	 SCS Total Energy          =    -161.7027228068485840 [Eh]
                               Psi4 1.9 release
    Molecular point group: c1

    Geometry (in Bohr), charge = 1, multiplicity = 1:

       Center              X                  Y                   Z               Mass
    ------------   -----------------  -----------------  -----------------  -----------------
         NA           0.000000000000     0.000000000000     0.000000000000    22.989769282000
         O            4.321472946850     0.035409688139     2.196549618092    15.994914619570
         H            4.577874767004    -1.771862017287     2.494478169853     1.007825032230
         H            5.960651623690     0.670365225197     1.731285817921     1.007825032230
         O           -3.666068683388    -1.648984465705    -2.575781746675    15.994914619570
         H           -2.927346395055    -1.089056725006    -4.082409363897     1.007825032230
         H           -3.487194767257    -3.511273657547    -2.536925198083     1.007825032230
         O           -1.238097534795     3.426296453138     2.690484343038    15.994914619570
         H           -0.218565723670     4.417752603216     3.777543627529     1.007825032230
         H           -2.879795216560     3.115958069911     3.530605555811     1.007825032230
         O            1.384434146498    -3.970297582052    -2.731328883513    15.994914619570
         H            2.595820402509    -2.842476905034    -3.332940203088     1.007825032230
         H            2.320188729302    -5.443429803700    -2.274258935823     1.007825032230
         O            1.097789149432     3.913819337340    -2.876397488986    15.994914619570
         H            2.449054822975     5.115756962724    -2.515886877128     1.007825032230
         H            1.019868182374     3.774554080798    -4.625110361236     1.007825032230
         O           -1.263478446386    -3.004942329218     2.933272576184    15.994914619570
         H           -2.203031378702    -1.596758104776     3.781341977041     1.007825032230
         H           -2.422768732570    -4.345839075512     2.595406552488     1.007825032230

  Charge       = 1
  Multiplicity = 1
  Basis Set: AUG-CC-PVTZ
    Blend: AUG-CC-PVTZ
  Basis Set: (AUG-CC-PVTZ AUX)
    Blend: AUG-CC-PVTZ-JKFIT + DEF2-UNIVERSAL-JKFIT

    Orbital Energies [Eh]
    ---------------------

    Doubly Occupied:

       1A    -40.556948     2A    -20.719127     3A    -20.718686
       4A    -20.715676     5A    -20.714429     6A    -20.709632
       7A    -20.699613     8A     -2.877656     9A     -1.603580
      10A     -1.601645    11A     -1.600968    12A     -1.518311
      13A     -1.500959    14A     -1.496644    15A     -1.494688
      16A     -1.494309    17A     -1.485354    18A     -0.882996
      19A     -0.873246    20A     -0.868611    21A     -0.865085
      22A     -0.858558    23A     -0.854577    24A     -0.755050
      25A     -0.745785    26A     -0.736397    27A     -0.731352
      28A     -0.726420    29A     -0.715431    30A     -0.675093
      31A     -0.666487    32A     -0.660955    33A     -0.659493
      34A     -0.654902    35A     -0.645177

  @DF-RHF Final Energy:  -618.15095050191962

   => Energetics <=

    Nuclear Repulsion Energy =            395.9006700481979237
    One-Electron Energy =               -1637.9355549509036791
    Two-Electron Energy =                 623.8839344007860745
    Total Energy =                       -618.1509505019196240
 Dipole X            :         -8.5560973            9.8731689            1.3170716
 Dipole Y            :         13.1397716          -13.4959005           -0.3561290
 Dipole Z            :          4.1542791           -4.3624819           -0.2082028
 Magnitude           :                                                    1.3801645
  Basis Set: (AUG-CC-PVTZ AUX)
    Blend: AUG-CC-PVTZ-RI + DEF2-QZVPP-RI
	 Reference Energy          =    -618.1509505019196240 [Eh]
	 Singles Energy            =      -0.0000000000000000 [Eh]
	 Same-Spin Energy          =      -0.4205802743225191 [Eh]
	 Opposite-Spin Energy      =      -1.3161621863742514 [Eh]
	 Correlation Energy        =      -1.7367424606967705 [Eh]
	 Total Energy              =    -619.8876929626163701 [Eh]

	 ================> DF-SCS-MP2 Energies <==================
	-----------------------------------------------------------
	 SCS Same-Spin Scale       =       0.3333333333333333 [-]
	 SCS Opposite-Spin Scale   =       1.2000000000000000 [-]
	 SCS Same-Spin Energy      =      -0.1401934247741730 [Eh]
	 SCS Opposite-Spin Energy  =      -1.5793946236491017 [Eh]
	 SCS Correlation Energy    =      -1.7195880484232746 [Eh]
	 SCS Total Energy          =    -619.8705385503428715 [Eh]
	-----------------------------------------------------------

*** Psi4 exiting successfully. Buy a developer a beer!
