                               Psi4 1.8.2 release

  ==> Input File <==

--------------------------------------------------------------------------
MEMORY 60 GB

molecule dimer {
0 1
Gh(Na)     0.000000     0.000000     0.000000
O          2.442818    -0.818335    -0.280039
H          2.662756    -1.105563    -1.187076
H          3.208163    -0.351618     0.190231
Gh(O)     -0.058577    -2.340401    -0.318056
Gh(H)     -0.112691    -2.261522    -1.308213
Gh(H)      0.766812    -2.877198    -0.136880
Gh(O)      0.863805     0.451918     1.955806
Gh(H)      0.128582     0.541557     2.595334
Gh(H)      1.459083    -0.217450     2.287615
Gh(O)     -0.118006     0.999042    -2.213928
Gh(H)     -0.295160     0.203419    -2.715433
Gh(H)     -0.977633     1.399250    -1.948543
Gh(O)     -2.250881    -0.512047    -0.293423
Gh(H)     -2.775036    -0.153755     0.439369
Gh(H)     -2.575489    -1.386135    -0.545203

units ang
no_reorient
no_com
symmetry c1
}

set {
basis        aug-cc-pVTZ
scf_type     df
}

energy("mp2")
--------------------------------------------------------------------------

    Molecular point group: c1

    Geometry (in Angstrom), charge = 0, multiplicity = 1:

       Center              X                  Y                   Z               Mass
    ------------   -----------------  -----------------  -----------------  -----------------
      Gh(NA)          0.000000000000     0.000000000000     0.000000000000    22.989769282000
         O            2.442818000000    -0.818335000000    -0.280039000000    15.994914619570
         H            2.662756000000    -1.105563000000    -1.187076000000     1.007825032230
         H            3.208163000000    -0.351618000000     0.190231000000     1.007825032230
      Gh(O)          -0.058577000000    -2.340401000000    -0.318056000000    15.994914619570
      Gh(H)          -0.112691000000    -2.261522000000    -1.308213000000     1.007825032230
      Gh(H)           0.766812000000    -2.877198000000    -0.136880000000     1.007825032230
      Gh(O)           0.863805000000     0.451918000000     1.955806000000    15.994914619570
      Gh(H)           0.128582000000     0.541557000000     2.595334000000     1.007825032230
      Gh(H)           1.459083000000    -0.217450000000     2.287615000000     1.007825032230
      Gh(O)          -0.118006000000     0.999042000000    -2.213928000000    15.994914619570
      Gh(H)          -0.295160000000     0.203419000000    -2.715433000000     1.007825032230
      Gh(H)          -0.977633000000     1.399250000000    -1.948543000000     1.007825032230
      Gh(O)          -2.250881000000    -0.512047000000    -0.293423000000    15.994914619570
      Gh(H)          -2.775036000000    -0.153755000000     0.439369000000     1.007825032230
      Gh(H)          -2.575489000000    -1.386135000000    -0.545203000000     1.007825032230

  Charge       = 0
  Multiplicity = 1
  Basis Set: AUG-CC-PVTZ
    Blend: AUG-CC-PVTZ
  Basis Set: (AUG-CC-PVTZ AUX)
    Blend: AUG-CC-PVTZ-JKFIT + DEF2-UNIVERSAL-JKFIT

    Orbital Energies [Eh]
    ---------------------

    Doubly Occupied:

       1A    -20.568881     2A     -1.329667     3A     -0.712859
       4A     -0.560870     5A     -0.504476

  @DF-RHF Final Energy:   -76.05332580123508

   => Energetics <=

    Nuclear Repulsion Energy =              8.8355950733636970
    One-Electron Energy =                -122.4243320493934419
    Two-Electron Energy =                  37.5354111747946746
    Total Energy =                        -76.0533258012350757
 Dipole X            :        -47.3678863           48.0244850            0.6565987
 Dipole Y            :         15.2428586          -15.1251052            0.1177534
 Dipole Z            :          5.8221822           -6.1173402           -0.2951580
 Magnitude           :                                                    0.7294559
  Basis Set: (AUG-CC-PVTZ AUX)
    Blend: AUG-CC-PVTZ-RI + DEF2-QZVPP-RI
	 Reference Energy          =     -76.0533258012350757 [Eh]
	 Singles Energy            =      -0.0000000000000000 [Eh]
	 Same-Spin Energy          =      -0.0689593037683041 [Eh]
	 Opposite-Spin Energy      =      -0.2173933194412241 [Eh]
	 Correlation Energy        =      -0.2863526232095282 [Eh]
	 Total Energy              =     -76.3396784244445996 [Eh]

	 ================> DF-SCS-MP2 Energies <==================
	-----------------------------------------------------------
	 SCS Same-Spin Scale       =       0.3333333333333333 [-]
	 SCS Opposite-Spin Scale   =       1.2000000000000000 [-]
	 SCS Same-Spin Energy      =      -0.0229864345894347 [Eh]
	 SCS Opposite-Spin Energy  =      -0.2608719833294689 [Eh]
	 SCS Correlation Energy    =      -0.2838584179189036 [Eh]
	 SCS Total Energy          =     -76.3371842191539827 [Eh]
	-----------------------------------------------------------

*** Psi4 exiting successfully. Buy a developer a beer!
