                               Psi4 1.8.2 release

  ==> Input File <==

--------------------------------------------------------------------------
MEMORY 60 GB

molecule dimer {
0 1
Gh(Na)     0.000000     0.000000     0.000000
Gh(O)     -1.280774    -0.759773     2.066537
Gh(H)     -1.536429    -0.091676     2.765012
Gh(H)     -1.901665    -1.511168     1.950498
O         -0.717471     2.091250    -0.901495
H          0.059317     2.629287    -1.164866
H         -1.476620     2.438268    -1.368779
Gh(O)     -1.822223    -1.577676    -0.958332
Gh(H)     -1.691050    -2.150752    -1.657492
Gh(H)     -2.466734    -0.986478    -1.244925
Gh(O)      1.591137     0.542267     1.515629
Gh(H)      1.976809    -0.291838     1.794945
Gh(H)      2.435743     1.172111     1.550722
Gh(O)      0.916176    -2.475189     0.174402
Gh(H)      1.088176    -2.332722     1.102282
Gh(H)      0.002816    -2.742338     0.107943
Gh(O)      1.503194     0.599374    -1.995198
Gh(H)      1.887717    -0.218723    -2.491432
Gh(H)      1.765947     1.338805    -2.568431

units ang
no_reorient
no_com
symmetry c1
}

set {
basis        aug-cc-pVTZ
scf_type     df
}

energy("mp2")
--------------------------------------------------------------------------

    Molecular point group: c1

    Geometry (in Angstrom), charge = 0, multiplicity = 1:

       Center              X                  Y                   Z               Mass
    ------------   -----------------  -----------------  -----------------  -----------------
      Gh(NA)          0.000000000000     0.000000000000     0.000000000000    22.989769282000
      Gh(O)          -1.280774000000    -0.759773000000     2.066537000000    15.994914619570
      Gh(H)          -1.536429000000    -0.091676000000     2.765012000000     1.007825032230
      Gh(H)          -1.901665000000    -1.511168000000     1.950498000000     1.007825032230
         O           -0.717471000000     2.091250000000    -0.901495000000    15.994914619570
         H            0.059317000000     2.629287000000    -1.164866000000     1.007825032230
         H           -1.476620000000     2.438268000000    -1.368779000000     1.007825032230
      Gh(O)          -1.822223000000    -1.577676000000    -0.958332000000    15.994914619570
      Gh(H)          -1.691050000000    -2.150752000000    -1.657492000000     1.007825032230
      Gh(H)          -2.466734000000    -0.986478000000    -1.244925000000     1.007825032230
      Gh(O)           1.591137000000     0.542267000000     1.515629000000    15.994914619570
      Gh(H)           1.976809000000    -0.291838000000     1.794945000000     1.007825032230
      Gh(H)           2.435743000000     1.172111000000     1.550722000000     1.007825032230
      Gh(O)           0.916176000000    -2.475189000000     0.174402000000    15.994914619570
      Gh(H)           1.088176000000    -2.332722000000     1.102282000000     1.007825032230
      Gh(H)           0.002816000000    -2.742338000000     0.107943000000     1.007825032230
      Gh(O)           1.503194000000     0.599374000000    -1.995198000000    15.994914619570
      Gh(H)           1.887717000000    -0.218723000000    -2.491432000000     1.007825032230
      Gh(H)           1.765947000000     1.338805000000    -2.568431000000     1.007825032230

  Charge       = 0
  Multiplicity = 1
  Basis Set: AUG-CC-PVTZ
    Blend: AUG-CC-PVTZ
  Basis Set: (AUG-CC-PVTZ AUX)
    Blend: AUG-CC-PVTZ-JKFIT + DEF2-UNIVERSAL-JKFIT

    Orbital Energies [Eh]
    ---------------------

    Doubly Occupied:

       1A    -20.567682     2A     -1.345748     3A     -0.716772
       4A     -0.577078     5A     -0.508503

  @DF-RHF Final Energy:   -76.05936779058150

   => Energetics <=

    Nuclear Repulsion Energy =              9.0801170401166207
    One-Electron Energy =                -122.8474008997698377
    Two-Electron Energy =                  37.7079160690717217
    Total Energy =                        -76.0593677905814900
 Dipole X            :         13.5328479          -13.5249041            0.0079439
 Dipole Y            :        -40.6024140           41.1914092            0.5889951
 Dipole Z            :         17.9295307          -18.4165244           -0.4869936
 Magnitude           :                                                    0.7642913
  Basis Set: (AUG-CC-PVTZ AUX)
    Blend: AUG-CC-PVTZ-RI + DEF2-QZVPP-RI
	 Reference Energy          =     -76.0593677905815042 [Eh]
	 Singles Energy            =      -0.0000000000000000 [Eh]
	 Same-Spin Energy          =      -0.0685651176506672 [Eh]
	 Opposite-Spin Energy      =      -0.2163434596290976 [Eh]
	 Correlation Energy        =      -0.2849085772797648 [Eh]
	 Total Energy              =     -76.3442763678612693 [Eh]

	 ================> DF-SCS-MP2 Energies <==================
	-----------------------------------------------------------
	 SCS Same-Spin Scale       =       0.3333333333333333 [-]
	 SCS Opposite-Spin Scale   =       1.2000000000000000 [-]
	 SCS Same-Spin Energy      =      -0.0228550392168890 [Eh]
	 SCS Opposite-Spin Energy  =      -0.2596121515549171 [Eh]
	 SCS Correlation Energy    =      -0.2824671907718062 [Eh]
	 SCS Total Energy          =     -76.3418349813533155 [Eh]
	-----------------------------------------------------------

*** Psi4 exiting successfully. Buy a developer a beer!
