                               Psi4 1.8.2 release

  ==> Input File <==

--------------------------------------------------------------------------
MEMORY 60 GB

molecule dimer {
1 1
Na         0.000000     0.000000     0.000000
Gh(O)     -1.339451    -1.201724     1.367541
Gh(H)     -2.235805    -0.821142     1.302148
Gh(H)     -1.569153    -2.182228     1.427508
Gh(O)      1.319402     1.894139     0.435760
Gh(H)      1.823232     2.262470    -0.335659
Gh(H)      1.739025     2.258973     1.197774
Gh(O)      1.589395    -1.392547     1.045193
Gh(H)      1.704872    -2.231908     0.499963
Gh(H)      2.479783    -0.955865     0.973167
Gh(O)     -1.214799     0.904461    -1.992201
Gh(H)     -0.703953     1.278966    -2.714790
Gh(H)     -2.095167     1.261371    -2.013025

units ang
no_reorient
no_com
symmetry c1
}

set {
basis        aug-cc-pVTZ
scf_type     df
}

energy("mp2")
--------------------------------------------------------------------------

    Molecular point group: c1

    Geometry (in Angstrom), charge = 1, multiplicity = 1:

       Center              X                  Y                   Z               Mass
    ------------   -----------------  -----------------  -----------------  -----------------
         NA           0.000000000000     0.000000000000     0.000000000000    22.989769282000
      Gh(O)          -1.339451000000    -1.201724000000     1.367541000000    15.994914619570
      Gh(H)          -2.235805000000    -0.821142000000     1.302148000000     1.007825032230
      Gh(H)          -1.569153000000    -2.182228000000     1.427508000000     1.007825032230
      Gh(O)           1.319402000000     1.894139000000     0.435760000000    15.994914619570
      Gh(H)           1.823232000000     2.262470000000    -0.335659000000     1.007825032230
      Gh(H)           1.739025000000     2.258973000000     1.197774000000     1.007825032230
      Gh(O)           1.589395000000    -1.392547000000     1.045193000000    15.994914619570
      Gh(H)           1.704872000000    -2.231908000000     0.499963000000     1.007825032230
      Gh(H)           2.479783000000    -0.955865000000     0.973167000000     1.007825032230
      Gh(O)          -1.214799000000     0.904461000000    -1.992201000000    15.994914619570
      Gh(H)          -0.703953000000     1.278966000000    -2.714790000000     1.007825032230
      Gh(H)          -2.095167000000     1.261371000000    -2.013025000000     1.007825032230

  Charge       = 1
  Multiplicity = 1
  Basis Set: AUG-CC-PVTZ
    Blend: AUG-CC-PVTZ
  Basis Set: (AUG-CC-PVTZ AUX)
    Blend: AUG-CC-PVTZ-JKFIT + DEF2-UNIVERSAL-JKFIT

    Orbital Energies [Eh]
    ---------------------

    Doubly Occupied:

       1A    -40.760703     2A     -3.073920     3A     -1.797282
       4A     -1.797252     5A     -1.797197

  @DF-RHF Final Energy:  -161.67608412736982

   => Energetics <=

    Nuclear Repulsion Energy =              0.0000000000000000
    One-Electron Energy =                -224.8994608624169018
    Two-Electron Energy =                  63.2233767350470970
    Total Energy =                       -161.6760841273697906
 Dipole X            :          0.0000655            0.0000000            0.0000655
 Dipole Y            :         -0.0000334            0.0000000           -0.0000334
 Dipole Z            :          0.0000626            0.0000000            0.0000626
 Magnitude           :                                                    0.0000965
  Basis Set: (AUG-CC-PVTZ AUX)
    Blend: AUG-CC-PVTZ-RI + DEF2-QZVPP-RI
	 Reference Energy          =    -161.6760841273698190 [Eh]
	 Singles Energy            =      -0.0000000000000000 [Eh]
	 Same-Spin Energy          =      -0.0050154916678222 [Eh]
	 Opposite-Spin Energy      =      -0.0160092839852597 [Eh]
	 Correlation Energy        =      -0.0210247756530819 [Eh]
	 Total Energy              =    -161.6971089030228939 [Eh]

	 ================> DF-SCS-MP2 Energies <==================
	-----------------------------------------------------------
	 SCS Same-Spin Scale       =       0.3333333333333333 [-]
	 SCS Opposite-Spin Scale   =       1.2000000000000000 [-]
	 SCS Same-Spin Energy      =      -0.0016718305559407 [Eh]
	 SCS Opposite-Spin Energy  =      -0.0192111407823117 [Eh]
	 SCS Correlation Energy    =      -0.0208829713382524 [Eh]
	 SCS Total Energy          =    -161.6969670987080576 [Eh]
	-----------------------------------------------------------

*** Psi4 exiting successfully. Buy a developer a beer!
