                               Psi4 1.8.2 release

  ==> Input File <==

--------------------------------------------------------------------------
MEMORY 60 GB

molecule dimer {
1 1
Na         0.000000     0.000000     0.000000
O          1.840093    -0.013228     1.168474
H          2.578854    -0.628590     1.402113
H          1.971143     0.638358     1.806956
O         -0.529791    -1.975169    -1.169996
H         -0.194422    -2.273058    -1.972985
H         -1.435025    -2.192187    -1.229504
O          0.234253     1.720156    -1.715639
H          0.688439     2.544420    -1.572514
H         -0.667981     1.888890    -2.029084
O         -2.243886     0.693704     0.273219
H         -3.037219     0.241933     0.599418
H         -2.426716     1.627144     0.193199

units ang
no_reorient
no_com
symmetry c1
}

set {
basis        aug-cc-pVTZ
scf_type     df
}

energy("mp2")
--------------------------------------------------------------------------

    Molecular point group: c1

    Geometry (in Angstrom), charge = 1, multiplicity = 1:

       Center              X                  Y                   Z               Mass
    ------------   -----------------  -----------------  -----------------  -----------------
         NA           0.000000000000     0.000000000000     0.000000000000    22.989769282000
         O            1.840093000000    -0.013228000000     1.168474000000    15.994914619570
         H            2.578854000000    -0.628590000000     1.402113000000     1.007825032230
         H            1.971143000000     0.638358000000     1.806956000000     1.007825032230
         O           -0.529791000000    -1.975169000000    -1.169996000000    15.994914619570
         H           -0.194422000000    -2.273058000000    -1.972985000000     1.007825032230
         H           -1.435025000000    -2.192187000000    -1.229504000000     1.007825032230
         O            0.234253000000     1.720156000000    -1.715639000000    15.994914619570
         H            0.688439000000     2.544420000000    -1.572514000000     1.007825032230
         H           -0.667981000000     1.888890000000    -2.029084000000     1.007825032230
         O           -2.243886000000     0.693704000000     0.273219000000    15.994914619570
         H           -3.037219000000     0.241933000000     0.599418000000     1.007825032230
         H           -2.426716000000     1.627144000000     0.193199000000     1.007825032230

  Charge       = 1
  Multiplicity = 1
  Basis Set: AUG-CC-PVTZ
    Blend: AUG-CC-PVTZ
  Basis Set: (AUG-CC-PVTZ AUX)
    Blend: AUG-CC-PVTZ-JKFIT + DEF2-UNIVERSAL-JKFIT

    Orbital Energies [Eh]
    ---------------------

    Doubly Occupied:

       1A    -40.567059     2A    -20.737401     3A    -20.735597
       4A    -20.724002     5A    -20.719185     6A     -2.890265
       7A     -1.616728     8A     -1.614912     9A     -1.614265
      10A     -1.530982    11A     -1.529466    12A     -1.522090
      13A     -1.508674    14A     -0.898002    15A     -0.889956
      16A     -0.884860    17A     -0.880468    18A     -0.785004
      19A     -0.767902    20A     -0.761707    21A     -0.741987
      22A     -0.686977    23A     -0.685709    24A     -0.675619
      25A     -0.672248

  @DF-RHF Final Energy:  -466.02787203710773

   => Energetics <=

    Nuclear Repulsion Energy =            214.5516928410183652
    One-Electron Energy =               -1067.8769997643612442
    Two-Electron Energy =                 387.2974348862351235
    Total Energy =                       -466.0278720371077270
 Dipole X            :         14.5345702          -15.3399936           -0.8054234
 Dipole Y            :         -9.2180321            9.9222225            0.7041903
 Dipole Z            :         27.0755771          -27.1250098           -0.0494327
 Magnitude           :                                                    1.0709969
  Basis Set: (AUG-CC-PVTZ AUX)
    Blend: AUG-CC-PVTZ-RI + DEF2-QZVPP-RI
	 Reference Energy          =    -466.0278720371077270 [Eh]
	 Singles Energy            =      -0.0000000000000000 [Eh]
	 Same-Spin Energy          =      -0.2785088551936012 [Eh]
	 Opposite-Spin Energy      =      -0.8743280515575931 [Eh]
	 Correlation Energy        =      -1.1528369067511943 [Eh]
	 Total Energy              =    -467.1807089438589173 [Eh]

	 ================> DF-SCS-MP2 Energies <==================
	-----------------------------------------------------------
	 SCS Same-Spin Scale       =       0.3333333333333333 [-]
	 SCS Opposite-Spin Scale   =       1.2000000000000000 [-]
	 SCS Same-Spin Energy      =      -0.0928362850645337 [Eh]
	 SCS Opposite-Spin Energy  =      -1.0491936618691116 [Eh]
	 SCS Correlation Energy    =      -1.1420299469336452 [Eh]
	 SCS Total Energy          =    -467.1699019840413598 [Eh]
	-----------------------------------------------------------

*** Psi4 exiting successfully. Buy a developer a beer!
