                               Psi4 1.9 release

  ==> Input File <==

--------------------------------------------------------------------------
MEMORY 60 GB

molecule dimer {
1 1
Na     0.000000     0.000000     0.000000
--
0 1
O     -1.365784     1.888773     0.128336
H     -1.127056     2.523638    -0.548341
H     -2.084338     1.268663    -0.087383
O      1.933277     1.190155     1.145330
H      2.694356     1.300756     0.519806
H      1.814910     2.060976     1.520495
O     -0.418772    -0.363065    -2.238699
H     -1.093240     0.117831    -2.640346
H      0.385868    -0.155367    -2.718085
O     -1.360209    -0.721731     1.772667
H     -0.830785    -1.124783     2.509665
H     -1.649374     0.155797     2.059176
O      1.649637    -1.718358    -0.019721
H      1.060619    -2.517490    -0.072430
H      2.004692    -1.689554    -0.966746

units ang
no_reorient
no_com
symmetry c1
}

set {
basis        aug-cc-pVTZ
scf_type     df
}

energy("mp2", bsse_type="cp")
--------------------------------------------------------------------------

                               Psi4 1.9 release
    Molecular point group: c1
  Charge       = 0
  Multiplicity = 1
  Basis Set: AUG-CC-PVTZ
    Blend: AUG-CC-PVTZ
  Basis Set: (AUG-CC-PVTZ AUX)
    Blend: AUG-CC-PVTZ-JKFIT + DEF2-UNIVERSAL-JKFIT
  @DF-RHF Final Energy:  -380.27286607876658
    Total Energy =                       -380.2728660787665831
 Dipole X            :         -8.6735278            8.8455132            0.1719854
 Dipole Y            :         -6.9248616            7.8360498            0.9111882
 Dipole Z            :        -12.3971056           11.1099172           -1.2871884
 Magnitude           :                                                    1.5864101
  Basis Set: (AUG-CC-PVTZ AUX)
    Blend: AUG-CC-PVTZ-RI + DEF2-QZVPP-RI
	 Reference Energy          =    -380.2728660787665831 [Eh]
	 Singles Energy            =      -0.0000000000000000 [Eh]
	 Same-Spin Energy          =      -0.3460777003307804 [Eh]
	 Opposite-Spin Energy      =      -1.0863093368558931 [Eh]
	 Correlation Energy        =      -1.4323870371866736 [Eh]
	 Total Energy              =    -381.7052531159532691 [Eh]
	 SCS Total Energy          =    -381.6917965164372504 [Eh]
                               Psi4 1.9 release
    Molecular point group: c1
  Multiplicity = 1
  Basis Set: AUG-CC-PVTZ
    Blend: AUG-CC-PVTZ
  Basis Set: (AUG-CC-PVTZ AUX)
    Blend: AUG-CC-PVTZ-JKFIT + DEF2-UNIVERSAL-JKFIT
  @DF-RHF Final Energy:  -161.67609279425756
    Total Energy =                       -161.6760927942575563
  Basis Set: (AUG-CC-PVTZ AUX)
	 Singles Energy            =      -0.0000000000000000 [Eh]
	 Same-Spin Energy          =      -0.0060259654481388 [Eh]
	 Opposite-Spin Energy      =      -0.0186646094813849 [Eh]
	 Correlation Energy        =      -0.0246905749295237 [Eh]
	 Total Energy              =    -161.7007833691870928 [Eh]
	 SCS Total Energy          =    -161.7004989807846016 [Eh]
                               Psi4 1.9 release
    Molecular point group: c1

    Geometry (in Bohr), charge = 1, multiplicity = 1:

       Center              X                  Y                   Z               Mass
    ------------   -----------------  -----------------  -----------------  -----------------
         NA           0.000000000000     0.000000000000     0.000000000000    22.989769282000
         O           -2.580957706532     3.569263683159     0.242519892037    15.994914619570
         H           -2.129827168054     4.768984659798    -1.036214313360     1.007825032230
         H           -3.938827972885     2.397425615502    -0.165129938021     1.007825032230
         O            3.653364054647     2.249066996844     2.164360023271    15.994914619570
         H            5.091594924484     2.458072596046     0.982290978370     1.007825032230
         H            3.429682842355     3.894680191142     2.873319125128     1.007825032230
         O           -0.791364389010    -0.686093415739    -4.230527987336    15.994914619570
         H           -2.065924189396     0.222668319089    -4.989530816448     1.007825032230
         H            0.729184840578    -0.293601078934    -5.136436235715     1.007825032230
         O           -2.570422483383    -1.363873926253     3.349855141637    15.994914619570
         H           -1.569956119138    -2.125531820571     4.742579516647     1.007825032230
         H           -3.116865138451     0.294413661168     3.891278684116     1.007825032230
         O            3.117362136422    -3.247226005489    -0.037267288920    15.994914619570
         H            2.004279433457    -4.757366623579    -0.136872863267     1.007825032230
         H            3.788318845896    -3.192794334172    -1.826885172882     1.007825032230

  Charge       = 1
  Multiplicity = 1
  Basis Set: AUG-CC-PVTZ
    Blend: AUG-CC-PVTZ
  Basis Set: (AUG-CC-PVTZ AUX)
    Blend: AUG-CC-PVTZ-JKFIT + DEF2-UNIVERSAL-JKFIT

    Orbital Energies [Eh]
    ---------------------

    Doubly Occupied:

       1A    -40.562489     2A    -20.746122     3A    -20.738216
       4A    -20.731958     5A    -20.724251     6A    -20.716694
       7A     -2.886743     8A     -1.612844     9A     -1.612210
      10A     -1.610819    11A     -1.547405    12A     -1.520959
      13A     -1.498932    14A     -1.494846    15A     -1.492672
      16A     -0.917574    17A     -0.914477    18A     -0.868379
      19A     -0.855917    20A     -0.843487    21A     -0.780206
      22A     -0.750631    23A     -0.743344    24A     -0.739039
      25A     -0.732030    26A     -0.706714    27A     -0.687674
      28A     -0.673542    29A     -0.669393    30A     -0.659750

  @DF-RHF Final Energy:  -542.07110008359905

   => Energetics <=

    Nuclear Repulsion Energy =            304.7668923336757985
    One-Electron Energy =               -1351.5973493171832160
    Two-Electron Energy =                 504.7593568999084255
    Total Energy =                       -542.0711000835990490
 Dipole X            :         -8.6297899            8.8455132            0.2157233
 Dipole Y            :         -6.8665704            7.8360498            0.9694794
 Dipole Z            :        -12.3851375           11.1099172           -1.2752202
 Magnitude           :                                                    1.6163581
  Basis Set: (AUG-CC-PVTZ AUX)
    Blend: AUG-CC-PVTZ-RI + DEF2-QZVPP-RI
	 Reference Energy          =    -542.0711000835990490 [Eh]
	 Singles Energy            =      -0.0000000000000000 [Eh]
	 Same-Spin Energy          =      -0.3514678620864243 [Eh]
	 Opposite-Spin Energy      =      -1.1000817955135922 [Eh]
	 Correlation Energy        =      -1.4515496576000164 [Eh]
	 Total Energy              =    -543.5226497411990749 [Eh]

	 ================> DF-SCS-MP2 Energies <==================
	-----------------------------------------------------------
	 SCS Same-Spin Scale       =       0.3333333333333333 [-]
	 SCS Opposite-Spin Scale   =       1.2000000000000000 [-]
	 SCS Same-Spin Energy      =      -0.1171559540288081 [Eh]
	 SCS Opposite-Spin Energy  =      -1.3200981546163106 [Eh]
	 SCS Correlation Energy    =      -1.4372541086451187 [Eh]
	 SCS Total Energy          =    -543.5083541922441555 [Eh]
	-----------------------------------------------------------

*** Psi4 exiting successfully. Buy a developer a beer!
