                               Psi4 1.8.2 release

  ==> Input File <==

--------------------------------------------------------------------------
MEMORY 60 GB

molecule dimer {
0 1
Gh(Na)     0.000000     0.000000     0.000000
O          2.205971     0.635159     0.728373
H          3.053339     0.255335     0.378257
H          2.077247     0.411983     1.671787
Gh(O)     -2.285012    -0.545726    -1.025332
Gh(H)     -1.993376    -0.558243    -1.924281
Gh(H)     -2.614469    -1.469788    -0.906414
Gh(O)      0.374764     0.481414    -2.151325
Gh(H)     -0.097932    -0.007771    -2.837168
Gh(H)      0.086886     1.404508    -2.205016
Gh(O)     -1.072663     0.652617     2.238731
Gh(H)     -0.201901     0.519877     2.729850
Gh(H)     -1.247442     1.590189     2.428781

units ang
no_reorient
no_com
symmetry c1
}

set {
basis        aug-cc-pVTZ
scf_type     df
}

energy("mp2")
--------------------------------------------------------------------------

    Molecular point group: c1

    Geometry (in Angstrom), charge = 0, multiplicity = 1:

       Center              X                  Y                   Z               Mass
    ------------   -----------------  -----------------  -----------------  -----------------
      Gh(NA)          0.000000000000     0.000000000000     0.000000000000    22.989769282000
         O            2.205971000000     0.635159000000     0.728373000000    15.994914619570
         H            3.053339000000     0.255335000000     0.378257000000     1.007825032230
         H            2.077247000000     0.411983000000     1.671787000000     1.007825032230
      Gh(O)          -2.285012000000    -0.545726000000    -1.025332000000    15.994914619570
      Gh(H)          -1.993376000000    -0.558243000000    -1.924281000000     1.007825032230
      Gh(H)          -2.614469000000    -1.469788000000    -0.906414000000     1.007825032230
      Gh(O)           0.374764000000     0.481414000000    -2.151325000000    15.994914619570
      Gh(H)          -0.097932000000    -0.007771000000    -2.837168000000     1.007825032230
      Gh(H)           0.086886000000     1.404508000000    -2.205016000000     1.007825032230
      Gh(O)          -1.072663000000     0.652617000000     2.238731000000    15.994914619570
      Gh(H)          -0.201901000000     0.519877000000     2.729850000000     1.007825032230
      Gh(H)          -1.247442000000     1.590189000000     2.428781000000     1.007825032230

  Charge       = 0
  Multiplicity = 1
  Basis Set: AUG-CC-PVTZ
    Blend: AUG-CC-PVTZ
  Basis Set: (AUG-CC-PVTZ AUX)
    Blend: AUG-CC-PVTZ-JKFIT + DEF2-UNIVERSAL-JKFIT

    Orbital Energies [Eh]
    ---------------------

    Doubly Occupied:

       1A    -20.568467     2A     -1.334980     3A     -0.714750
       4A     -0.566265     5A     -0.505883

  @DF-RHF Final Energy:   -76.05624992026625

   => Energetics <=

    Nuclear Repulsion Energy =              8.9196506634716890
    One-Electron Energy =                -122.5711065276857994
    Two-Electron Energy =                  37.5952059439478603
    Total Energy =                        -76.0562499202662536
 Dipole X            :        -42.5661705           43.0448506            0.4786801
 Dipole Y            :        -11.2652810           10.8632607           -0.4020203
 Dipole Z            :        -14.4877532           14.8854256            0.3976724
 Magnitude           :                                                    0.7408768
  Basis Set: (AUG-CC-PVTZ AUX)
    Blend: AUG-CC-PVTZ-RI + DEF2-QZVPP-RI
	 Reference Energy          =     -76.0562499202662536 [Eh]
	 Singles Energy            =      -0.0000000000000000 [Eh]
	 Same-Spin Energy          =      -0.0688064371668426 [Eh]
	 Opposite-Spin Energy      =      -0.2169267164416635 [Eh]
	 Correlation Energy        =      -0.2857331536085061 [Eh]
	 Total Energy              =     -76.3419830738747578 [Eh]

	 ================> DF-SCS-MP2 Energies <==================
	-----------------------------------------------------------
	 SCS Same-Spin Scale       =       0.3333333333333333 [-]
	 SCS Opposite-Spin Scale   =       1.2000000000000000 [-]
	 SCS Same-Spin Energy      =      -0.0229354790556142 [Eh]
	 SCS Opposite-Spin Energy  =      -0.2603120597299962 [Eh]
	 SCS Correlation Energy    =      -0.2832475387856104 [Eh]
	 SCS Total Energy          =     -76.3394974590518700 [Eh]
	-----------------------------------------------------------

*** Psi4 exiting successfully. Buy a developer a beer!
