                               Psi4 1.8.2 release

  ==> Input File <==

--------------------------------------------------------------------------
MEMORY 60 GB

molecule dimer {
0 1
Gh(Na)     0.000000     0.000000     0.000000
Gh(O)      1.661844     0.842701    -1.497041
Gh(H)      2.528080     0.377121    -1.307093
Gh(H)      1.848781     1.779490    -1.584275
Gh(O)     -0.087779     2.077226     1.056665
Gh(H)      0.723586     2.252445     1.568366
Gh(H)     -0.229253     2.684807     0.350873
Gh(O)     -0.986073    -2.138878    -0.877046
Gh(H)     -0.792585    -1.599887    -1.687093
Gh(H)     -0.537496    -2.949143    -1.090109
O         -1.993529     0.705204    -1.045757
H         -2.712929     0.142744    -1.464515
H         -2.466013     1.376847    -0.624703
Gh(O)      2.026165    -1.165386     0.465272
Gh(H)      2.085392    -1.934949     1.021382
Gh(H)      2.008320    -1.517727    -0.446427

units ang
no_reorient
no_com
symmetry c1
}

set {
basis        aug-cc-pVTZ
scf_type     df
}

energy("mp2")
--------------------------------------------------------------------------

    Molecular point group: c1

    Geometry (in Angstrom), charge = 0, multiplicity = 1:

       Center              X                  Y                   Z               Mass
    ------------   -----------------  -----------------  -----------------  -----------------
      Gh(NA)          0.000000000000     0.000000000000     0.000000000000    22.989769282000
      Gh(O)           1.661844000000     0.842701000000    -1.497041000000    15.994914619570
      Gh(H)           2.528080000000     0.377121000000    -1.307093000000     1.007825032230
      Gh(H)           1.848781000000     1.779490000000    -1.584275000000     1.007825032230
      Gh(O)          -0.087779000000     2.077226000000     1.056665000000    15.994914619570
      Gh(H)           0.723586000000     2.252445000000     1.568366000000     1.007825032230
      Gh(H)          -0.229253000000     2.684807000000     0.350873000000     1.007825032230
      Gh(O)          -0.986073000000    -2.138878000000    -0.877046000000    15.994914619570
      Gh(H)          -0.792585000000    -1.599887000000    -1.687093000000     1.007825032230
      Gh(H)          -0.537496000000    -2.949143000000    -1.090109000000     1.007825032230
         O           -1.993529000000     0.705204000000    -1.045757000000    15.994914619570
         H           -2.712929000000     0.142744000000    -1.464515000000     1.007825032230
         H           -2.466013000000     1.376847000000    -0.624703000000     1.007825032230
      Gh(O)           2.026165000000    -1.165386000000     0.465272000000    15.994914619570
      Gh(H)           2.085392000000    -1.934949000000     1.021382000000     1.007825032230
      Gh(H)           2.008320000000    -1.517727000000    -0.446427000000     1.007825032230

  Charge       = 0
  Multiplicity = 1
  Basis Set: AUG-CC-PVTZ
    Blend: AUG-CC-PVTZ
  Basis Set: (AUG-CC-PVTZ AUX)
    Blend: AUG-CC-PVTZ-JKFIT + DEF2-UNIVERSAL-JKFIT

    Orbital Energies [Eh]
    ---------------------

    Doubly Occupied:

       1A    -20.568280     2A     -1.352576     3A     -0.712548
       4A     -0.585261     5A     -0.510249

  @DF-RHF Final Energy:   -76.05690650830032

   => Energetics <=

    Nuclear Repulsion Energy =              9.1510917903735205
    One-Electron Energy =                -122.9581660042877758
    Two-Electron Energy =                  37.7501677056139542
    Total Energy =                        -76.0569065083003011
 Dipole X            :         39.1396697          -39.9245727           -0.7849030
 Dipole Y            :        -13.4485058           13.5327502            0.0842444
 Dipole Z            :         19.7671031          -19.7576044            0.0094987
 Magnitude           :                                                    0.7894682
  Basis Set: (AUG-CC-PVTZ AUX)
    Blend: AUG-CC-PVTZ-RI + DEF2-QZVPP-RI
	 Reference Energy          =     -76.0569065083003153 [Eh]
	 Singles Energy            =      -0.0000000000000000 [Eh]
	 Same-Spin Energy          =      -0.0685223561231457 [Eh]
	 Opposite-Spin Energy      =      -0.2162728974856562 [Eh]
	 Correlation Energy        =      -0.2847952536088019 [Eh]
	 Total Energy              =     -76.3417017619091212 [Eh]

	 ================> DF-SCS-MP2 Energies <==================
	-----------------------------------------------------------
	 SCS Same-Spin Scale       =       0.3333333333333333 [-]
	 SCS Opposite-Spin Scale   =       1.2000000000000000 [-]
	 SCS Same-Spin Energy      =      -0.0228407853743819 [Eh]
	 SCS Opposite-Spin Energy  =      -0.2595274769827874 [Eh]
	 SCS Correlation Energy    =      -0.2823682623571693 [Eh]
	 SCS Total Energy          =     -76.3392747706574823 [Eh]
	-----------------------------------------------------------

*** Psi4 exiting successfully. Buy a developer a beer!
