                               Psi4 1.9 release

  ==> Input File <==

--------------------------------------------------------------------------
MEMORY 60 GB

molecule dimer {
1 1
Na     0.000000     0.000000     0.000000
--
0 1
O     -1.892773     1.077634     1.090154
H     -1.602965     1.973592     1.238232
H     -1.975019     0.754811     1.992439
O      1.192296     1.455171     1.151359
H      1.688184     2.107167     0.722719
H      1.351737     1.611920     2.118416
O      0.911499     0.687294    -2.163820
H      0.543602     0.147142    -2.897860
H      1.861899     0.935014    -2.358198
O     -1.234329    -1.488967    -0.941371
H     -1.944835    -1.893957    -0.501962
H     -1.591545    -1.251163    -1.785640

units ang
no_reorient
no_com
symmetry c1
}

set {
basis        aug-cc-pVTZ
scf_type     df
}

energy("mp2", bsse_type="cp")
--------------------------------------------------------------------------

                               Psi4 1.9 release
    Molecular point group: c1
  Charge       = 0
  Multiplicity = 1
  Basis Set: AUG-CC-PVTZ
    Blend: AUG-CC-PVTZ
  Basis Set: (AUG-CC-PVTZ AUX)
    Blend: AUG-CC-PVTZ-JKFIT + DEF2-UNIVERSAL-JKFIT
  @DF-RHF Final Energy:  -304.22094243317463
    Total Energy =                       -304.2209424331746277
 Dipole X            :         18.9109985          -18.6240031            0.2869954
 Dipole Y            :        -33.8735890           34.4564763            0.5828873
 Dipole Z            :         15.9940672          -15.8383200            0.1557472
 Magnitude           :                                                    0.6681176
  Basis Set: (AUG-CC-PVTZ AUX)
    Blend: AUG-CC-PVTZ-RI + DEF2-QZVPP-RI
	 Reference Energy          =    -304.2209424331746277 [Eh]
	 Singles Energy            =      -0.0000000000000000 [Eh]
	 Same-Spin Energy          =      -0.2757051318987784 [Eh]
	 Opposite-Spin Energy      =      -0.8664144946456569 [Eh]
	 Correlation Energy        =      -1.1421196265444353 [Eh]
	 Total Energy              =    -305.3630620597190841 [Eh]
	 SCS Total Energy          =    -305.3525415373823648 [Eh]
                               Psi4 1.9 release
    Molecular point group: c1
  Multiplicity = 1
  Basis Set: AUG-CC-PVTZ
    Blend: AUG-CC-PVTZ
  Basis Set: (AUG-CC-PVTZ AUX)
    Blend: AUG-CC-PVTZ-JKFIT + DEF2-UNIVERSAL-JKFIT
  @DF-RHF Final Energy:  -161.67608463173741
    Total Energy =                       -161.6760846317374103
  Basis Set: (AUG-CC-PVTZ AUX)
	 Singles Energy            =      -0.0000000000000000 [Eh]
	 Same-Spin Energy          =      -0.0053650134322463 [Eh]
	 Opposite-Spin Energy      =      -0.0170773290154228 [Eh]
	 Correlation Energy        =      -0.0224423424476691 [Eh]
	 Total Energy              =    -161.6985269741850857 [Eh]
	 SCS Total Energy          =    -161.6983657643666561 [Eh]
                               Psi4 1.9 release
    Molecular point group: c1

    Geometry (in Bohr), charge = 1, multiplicity = 1:

       Center              X                  Y                   Z               Mass
    ------------   -----------------  -----------------  -----------------  -----------------
         NA           0.000000000000     0.000000000000     0.000000000000    22.989769282000
         O           -3.576822587661     2.036433123482     2.060092494572    15.994914619570
         H           -3.029164838695     3.729548363395     2.339919359778     1.007825032230
         H           -3.732245002576     1.426386066483     3.765164031681     1.007825032230
         O            2.253112900479     2.749874655709     2.175753182081    15.994914619570
         H            3.190205409380     3.981968530603     1.365740975665     1.007825032230
         H            2.554412723648     3.046087336148     4.003226059788     1.007825032230
         O            1.722483473629     1.298797427670    -4.089027184788    15.994914619570
         H            1.027258901251     0.278058081552    -5.476161749919     1.007825032230
         H            3.518479183264     1.766920383469    -4.456348369602     1.007825032230
         O           -2.332543758710    -2.813739839845    -1.778933372448    15.994914619570
         H           -3.675205509205    -3.579060023394    -0.948570705387     1.007825032230
         H           -3.007584166342    -2.364355408306    -3.374370558663     1.007825032230

  Charge       = 1
  Multiplicity = 1
  Basis Set: AUG-CC-PVTZ
    Blend: AUG-CC-PVTZ
  Basis Set: (AUG-CC-PVTZ AUX)
    Blend: AUG-CC-PVTZ-JKFIT + DEF2-UNIVERSAL-JKFIT

    Orbital Energies [Eh]
    ---------------------

    Doubly Occupied:

       1A    -40.566362     2A    -20.743004     3A    -20.732783
       4A    -20.732606     5A    -20.723341     6A     -2.891548
       7A     -1.620118     8A     -1.615984     9A     -1.615246
      10A     -1.538345    11A     -1.532913    12A     -1.513652
      13A     -1.498051    14A     -0.902051    15A     -0.897871
      16A     -0.873057    17A     -0.868097    18A     -0.785154
      19A     -0.777313    20A     -0.755306    21A     -0.742250
      22A     -0.697809    23A     -0.690388    24A     -0.673529
      25A     -0.669688

  @DF-RHF Final Energy:  -466.01655791436565

   => Energetics <=

    Nuclear Repulsion Energy =            219.2939684067402197
    One-Electron Energy =               -1077.3081143467459242
    Two-Electron Energy =                 391.9975880256400842
    Total Energy =                       -466.0165579143656487
 Dipole X            :         18.8161549          -18.6240031            0.1921518
 Dipole Y            :        -33.6611284           34.4564763            0.7953478
 Dipole Z            :         15.9194691          -15.8383200            0.0811491
 Magnitude           :                                                    0.8222443
  Basis Set: (AUG-CC-PVTZ AUX)
    Blend: AUG-CC-PVTZ-RI + DEF2-QZVPP-RI
	 Reference Energy          =    -466.0165579143656487 [Eh]
	 Singles Energy            =      -0.0000000000000000 [Eh]
	 Same-Spin Energy          =      -0.2798446477001075 [Eh]
	 Opposite-Spin Energy      =      -0.8774932435167351 [Eh]
	 Correlation Energy        =      -1.1573378912168426 [Eh]
	 Total Energy              =    -467.1738958055825037 [Eh]

	 ================> DF-SCS-MP2 Energies <==================
	-----------------------------------------------------------
	 SCS Same-Spin Scale       =       0.3333333333333333 [-]
	 SCS Opposite-Spin Scale   =       1.2000000000000000 [-]
	 SCS Same-Spin Energy      =      -0.0932815492333692 [Eh]
	 SCS Opposite-Spin Energy  =      -1.0529918922200820 [Eh]
	 SCS Correlation Energy    =      -1.1462734414534512 [Eh]
	 SCS Total Energy          =    -467.1628313558190939 [Eh]
	-----------------------------------------------------------

*** Psi4 exiting successfully. Buy a developer a beer!
