                               Psi4 1.8.2 release

  ==> Input File <==

--------------------------------------------------------------------------
MEMORY 60 GB

molecule dimer {
0 1
Gh(Na)     0.000000     0.000000     0.000000
O         -0.763534     0.932846     2.231461
H         -0.733128     1.900005     2.285331
H         -0.178159     0.502091     2.866138
Gh(O)      0.452399     2.241951    -0.962680
Gh(H)      1.205593     2.615208    -0.515886
Gh(H)      0.800151     2.215705    -1.892096
Gh(O)      0.346113    -2.463872     0.347284
Gh(H)      0.268206    -3.107115    -0.361290
Gh(H)     -0.089641    -3.005871     1.016265
Gh(O)      2.050775    -0.213605    -1.193701
Gh(H)      2.004919    -1.173998    -1.292082
Gh(H)      2.563798    -0.024846    -0.341802
Gh(O)     -1.677611    -0.559730    -1.506099
Gh(H)     -2.457862    -0.155870    -2.009591
Gh(H)     -1.026711    -0.660387    -2.183118

units ang
no_reorient
no_com
symmetry c1
}

set {
basis        aug-cc-pVTZ
scf_type     df
}

energy("mp2")
--------------------------------------------------------------------------

    Molecular point group: c1

    Geometry (in Angstrom), charge = 0, multiplicity = 1:

       Center              X                  Y                   Z               Mass
    ------------   -----------------  -----------------  -----------------  -----------------
      Gh(NA)          0.000000000000     0.000000000000     0.000000000000    22.989769282000
         O           -0.763534000000     0.932846000000     2.231461000000    15.994914619570
         H           -0.733128000000     1.900005000000     2.285331000000     1.007825032230
         H           -0.178159000000     0.502091000000     2.866138000000     1.007825032230
      Gh(O)           0.452399000000     2.241951000000    -0.962680000000    15.994914619570
      Gh(H)           1.205593000000     2.615208000000    -0.515886000000     1.007825032230
      Gh(H)           0.800151000000     2.215705000000    -1.892096000000     1.007825032230
      Gh(O)           0.346113000000    -2.463872000000     0.347284000000    15.994914619570
      Gh(H)           0.268206000000    -3.107115000000    -0.361290000000     1.007825032230
      Gh(H)          -0.089641000000    -3.005871000000     1.016265000000     1.007825032230
      Gh(O)           2.050775000000    -0.213605000000    -1.193701000000    15.994914619570
      Gh(H)           2.004919000000    -1.173998000000    -1.292082000000     1.007825032230
      Gh(H)           2.563798000000    -0.024846000000    -0.341802000000     1.007825032230
      Gh(O)          -1.677611000000    -0.559730000000    -1.506099000000    15.994914619570
      Gh(H)          -2.457862000000    -0.155870000000    -2.009591000000     1.007825032230
      Gh(H)          -1.026711000000    -0.660387000000    -2.183118000000     1.007825032230

  Charge       = 0
  Multiplicity = 1
  Basis Set: AUG-CC-PVTZ
    Blend: AUG-CC-PVTZ
  Basis Set: (AUG-CC-PVTZ AUX)
    Blend: AUG-CC-PVTZ-JKFIT + DEF2-UNIVERSAL-JKFIT

    Orbital Energies [Eh]
    ---------------------

    Doubly Occupied:

       1A    -20.564718     2A     -1.342742     3A     -0.727514
       4A     -0.566746     5A     -0.506916

  @DF-RHF Final Energy:   -76.05848411775838

   => Energetics <=

    Nuclear Repulsion Energy =              9.0838804269826863
    One-Electron Energy =                -122.8674527051166905
    Two-Electron Energy =                  37.7250881603756199
    Total Energy =                        -76.0584841177583826
 Dipole X            :         13.6829213          -13.2650440            0.4178773
 Dipole Y            :        -18.2783284           18.6418912            0.3635628
 Dipole Z            :        -43.0020248           43.4696668            0.4676420
 Magnitude           :                                                    0.7249057
  Basis Set: (AUG-CC-PVTZ AUX)
    Blend: AUG-CC-PVTZ-RI + DEF2-QZVPP-RI
	 Reference Energy          =     -76.0584841177583826 [Eh]
	 Singles Energy            =      -0.0000000000000000 [Eh]
	 Same-Spin Energy          =      -0.0684892310089153 [Eh]
	 Opposite-Spin Energy      =      -0.2158911491779813 [Eh]
	 Correlation Energy        =      -0.2843803801868966 [Eh]
	 Total Energy              =     -76.3428644979452855 [Eh]

	 ================> DF-SCS-MP2 Energies <==================
	-----------------------------------------------------------
	 SCS Same-Spin Scale       =       0.3333333333333333 [-]
	 SCS Opposite-Spin Scale   =       1.2000000000000000 [-]
	 SCS Same-Spin Energy      =      -0.0228297436696384 [Eh]
	 SCS Opposite-Spin Energy  =      -0.2590693790135776 [Eh]
	 SCS Correlation Energy    =      -0.2818991226832160 [Eh]
	 SCS Total Energy          =     -76.3403832404415965 [Eh]
	-----------------------------------------------------------

*** Psi4 exiting successfully. Buy a developer a beer!
