                               Psi4 1.8.2 release

  ==> Input File <==

--------------------------------------------------------------------------
MEMORY 60 GB

molecule dimer {
0 1
Gh(Na)     0.000000     0.000000     0.000000
Gh(O)     -0.180563    -2.182435    -1.037186
Gh(H)     -0.065729    -2.790783    -0.341971
Gh(H)      0.562536    -2.355411    -1.643452
Gh(O)     -2.000451     0.701464     1.294659
Gh(H)     -2.079251     1.430673     1.914902
Gh(H)     -2.917867     0.429247     1.133965
Gh(O)      2.097239    -0.812440     1.323753
Gh(H)      2.024424    -0.994505     2.233103
Gh(H)      2.996688    -0.460673     1.257813
O         -1.974202     0.884704    -1.534663
H         -1.703341     1.810095    -1.514027
H         -2.843633     0.881741    -1.122339
Gh(O)      1.776401     0.618314    -1.270304
Gh(H)      1.704603     0.388928    -2.211294
Gh(H)      1.922183     1.547468    -1.244006

units ang
no_reorient
no_com
symmetry c1
}

set {
basis        aug-cc-pVTZ
scf_type     df
}

energy("mp2")
--------------------------------------------------------------------------

    Molecular point group: c1

    Geometry (in Angstrom), charge = 0, multiplicity = 1:

       Center              X                  Y                   Z               Mass
    ------------   -----------------  -----------------  -----------------  -----------------
      Gh(NA)          0.000000000000     0.000000000000     0.000000000000    22.989769282000
      Gh(O)          -0.180563000000    -2.182435000000    -1.037186000000    15.994914619570
      Gh(H)          -0.065729000000    -2.790783000000    -0.341971000000     1.007825032230
      Gh(H)           0.562536000000    -2.355411000000    -1.643452000000     1.007825032230
      Gh(O)          -2.000451000000     0.701464000000     1.294659000000    15.994914619570
      Gh(H)          -2.079251000000     1.430673000000     1.914902000000     1.007825032230
      Gh(H)          -2.917867000000     0.429247000000     1.133965000000     1.007825032230
      Gh(O)           2.097239000000    -0.812440000000     1.323753000000    15.994914619570
      Gh(H)           2.024424000000    -0.994505000000     2.233103000000     1.007825032230
      Gh(H)           2.996688000000    -0.460673000000     1.257813000000     1.007825032230
         O           -1.974202000000     0.884704000000    -1.534663000000    15.994914619570
         H           -1.703341000000     1.810095000000    -1.514027000000     1.007825032230
         H           -2.843633000000     0.881741000000    -1.122339000000     1.007825032230
      Gh(O)           1.776401000000     0.618314000000    -1.270304000000    15.994914619570
      Gh(H)           1.704603000000     0.388928000000    -2.211294000000     1.007825032230
      Gh(H)           1.922183000000     1.547468000000    -1.244006000000     1.007825032230

  Charge       = 0
  Multiplicity = 1
  Basis Set: AUG-CC-PVTZ
    Blend: AUG-CC-PVTZ
  Basis Set: (AUG-CC-PVTZ AUX)
    Blend: AUG-CC-PVTZ-JKFIT + DEF2-UNIVERSAL-JKFIT

    Orbital Energies [Eh]
    ---------------------

    Doubly Occupied:

       1A    -20.568137     2A     -1.350465     3A     -0.714029
       4A     -0.584013     5A     -0.509886

  @DF-RHF Final Energy:   -76.06025551749343

   => Energetics <=

    Nuclear Repulsion Energy =              9.1367632337660911
    One-Electron Energy =                -122.9409723617346799
    Two-Electron Energy =                  37.7439536104751596
    Total Energy =                        -76.0602555174934309
 Dipole X            :         38.0414525          -38.4381443           -0.3966918
 Dipole Y            :        -17.8511131           18.4616189            0.6105058
 Dipole Z            :         28.4693155          -28.1827518            0.2865637
 Magnitude           :                                                    0.7824324
  Basis Set: (AUG-CC-PVTZ AUX)
    Blend: AUG-CC-PVTZ-RI + DEF2-QZVPP-RI
	 Reference Energy          =     -76.0602555174934309 [Eh]
	 Singles Energy            =      -0.0000000000000000 [Eh]
	 Same-Spin Energy          =      -0.0685165270944594 [Eh]
	 Opposite-Spin Energy      =      -0.2161386432483567 [Eh]
	 Correlation Energy        =      -0.2846551703428161 [Eh]
	 Total Energy              =     -76.3449106878362471 [Eh]

	 ================> DF-SCS-MP2 Energies <==================
	-----------------------------------------------------------
	 SCS Same-Spin Scale       =       0.3333333333333333 [-]
	 SCS Opposite-Spin Scale   =       1.2000000000000000 [-]
	 SCS Same-Spin Energy      =      -0.0228388423648198 [Eh]
	 SCS Opposite-Spin Energy  =      -0.2593663718980280 [Eh]
	 SCS Correlation Energy    =      -0.2822052142628478 [Eh]
	 SCS Total Energy          =     -76.3424607317562760 [Eh]
	-----------------------------------------------------------

*** Psi4 exiting successfully. Buy a developer a beer!
