                               Psi4 1.9 release

  ==> Input File <==

--------------------------------------------------------------------------
MEMORY 60 GB

molecule dimer {
1 1
Na     0.000000     0.000000     0.000000
--
0 1
O     -0.897532    -2.178500     0.017525
H     -1.843403    -2.189920     0.149337
H     -0.582756    -2.774658     0.713365
O      1.591836     0.043402     2.008514
H      1.716990     0.920967     2.376036
H      1.411828    -0.601746     2.676202
O     -1.189951     0.486911    -1.920717
H     -1.068420     0.988809    -2.658257
H     -2.180180     0.605188    -1.812331
O     -0.608989     2.168295     1.082772
H     -1.262092     2.080125     1.733612
H     -0.903001     2.839890     0.429345
O      1.897515     0.031709    -1.711733
H      2.558639     0.731250    -1.645906
H      1.496705     0.148755    -2.522837

units ang
no_reorient
no_com
symmetry c1
}

set {
basis        aug-cc-pVTZ
scf_type     df
}

energy("mp2", bsse_type="cp")
--------------------------------------------------------------------------

                               Psi4 1.9 release
    Molecular point group: c1
  Charge       = 0
  Multiplicity = 1
  Basis Set: AUG-CC-PVTZ
    Blend: AUG-CC-PVTZ
  Basis Set: (AUG-CC-PVTZ AUX)
    Blend: AUG-CC-PVTZ-JKFIT + DEF2-UNIVERSAL-JKFIT
  @DF-RHF Final Energy:  -380.27262369894407
    Total Energy =                       -380.2726236989440736
 Dipole X            :        -12.2040771           10.7475188           -1.4565583
 Dipole Y            :        -12.4784120           13.5364786            1.0580667
 Dipole Z            :          9.2848621           -8.9772309            0.3076312
 Magnitude           :                                                    1.8263910
  Basis Set: (AUG-CC-PVTZ AUX)
    Blend: AUG-CC-PVTZ-RI + DEF2-QZVPP-RI
	 Reference Energy          =    -380.2726236989440736 [Eh]
	 Singles Energy            =      -0.0000000000000000 [Eh]
	 Same-Spin Energy          =      -0.3440844588108700 [Eh]
	 Opposite-Spin Energy      =      -1.0810457458659963 [Eh]
	 Correlation Energy        =      -1.4251302046768664 [Eh]
	 Total Energy              =    -381.6977539036209350 [Eh]
	 SCS Total Energy          =    -381.6845734135869179 [Eh]
                               Psi4 1.9 release
    Molecular point group: c1
  Multiplicity = 1
  Basis Set: AUG-CC-PVTZ
    Blend: AUG-CC-PVTZ
  Basis Set: (AUG-CC-PVTZ AUX)
    Blend: AUG-CC-PVTZ-JKFIT + DEF2-UNIVERSAL-JKFIT
  @DF-RHF Final Energy:  -161.67608890489711
    Total Energy =                       -161.6760889048970853
  Basis Set: (AUG-CC-PVTZ AUX)
	 Singles Energy            =      -0.0000000000000000 [Eh]
	 Same-Spin Energy          =      -0.0054248518394510 [Eh]
	 Opposite-Spin Energy      =      -0.0171158453405755 [Eh]
	 Correlation Energy        =      -0.0225406971800264 [Eh]
	 Total Energy              =    -161.6986296020771476 [Eh]
	 SCS Total Energy          =    -161.6984362032522995 [Eh]
                               Psi4 1.9 release
    Molecular point group: c1

    Geometry (in Bohr), charge = 1, multiplicity = 1:

       Center              X                  Y                   Z               Mass
    ------------   -----------------  -----------------  -----------------  -----------------
         NA           0.000000000000     0.000000000000     0.000000000000    22.989769282000
         O           -1.696089668834    -4.116768364310     0.033117450349    15.994914619570
         H           -3.483526808847    -4.138349036663     0.282206030397     1.007825032230
         H           -1.101249237967    -5.243343711811     1.348064477487     1.007825032230
         O            3.008134076644     0.082017893297     3.795541379148    15.994914619570
         H            3.244640860150     1.740375400585     4.490057304228     1.007825032230
         H            2.667968256253    -1.137135137090     5.057288836402     1.007825032230
         O           -2.248681492715     0.920128437473    -3.629629094511    15.994914619570
         H           -2.019021186962     1.868578200388    -5.023377701081     1.007825032230
         H           -4.119943104201     1.143639574414    -3.424809238677     1.007825032230
         O           -1.150822423416     4.097483709200     2.046142536314    15.994914619570
         H           -2.385008225131     3.930866556718     3.276051887807     1.007825032230
         H           -1.706424581015     5.366614326426     0.811344463335     1.007825032230
         O            3.585783668948     0.059921325712    -3.234706569908    15.994914619570
         H            4.835126963915     1.381862229241    -3.110311568248     1.007825032230
         H            2.828362540603     0.281106209792    -4.767470989172     1.007825032230

  Charge       = 1
  Multiplicity = 1
  Basis Set: AUG-CC-PVTZ
    Blend: AUG-CC-PVTZ
  Basis Set: (AUG-CC-PVTZ AUX)
    Blend: AUG-CC-PVTZ-JKFIT + DEF2-UNIVERSAL-JKFIT

    Orbital Energies [Eh]
    ---------------------

    Doubly Occupied:

       1A    -40.559065     2A    -20.733983     3A    -20.725305
       4A    -20.725214     5A    -20.703642     6A    -20.699098
       7A     -2.880237     8A     -1.605302     9A     -1.604899
      10A     -1.604122    11A     -1.532615    12A     -1.515760
      13A     -1.511652    14A     -1.500682    15A     -1.492989
      16A     -0.889292    17A     -0.882442    18A     -0.876049
      19A     -0.868750    20A     -0.865897    21A     -0.779114
      22A     -0.753879    23A     -0.747629    24A     -0.729406
      25A     -0.719297    26A     -0.688222    27A     -0.674205
      28A     -0.672842    29A     -0.652911    30A     -0.651750

  @DF-RHF Final Energy:  -542.08878433137795

   => Energetics <=

    Nuclear Repulsion Energy =            296.3940371548655435
    One-Electron Energy =               -1335.2731337634515967
    Two-Electron Energy =                 496.7903122772079882
    Total Energy =                       -542.0887843313780650
 Dipole X            :        -12.2332960           10.7475188           -1.4857773
 Dipole Y            :        -12.3975876           13.5364786            1.1388910
 Dipole Z            :          9.2326927           -8.9772309            0.2554618
 Magnitude           :                                                    1.8894093
  Basis Set: (AUG-CC-PVTZ AUX)
    Blend: AUG-CC-PVTZ-RI + DEF2-QZVPP-RI
	 Reference Energy          =    -542.0887843313779513 [Eh]
	 Singles Energy            =      -0.0000000000000000 [Eh]
	 Same-Spin Energy          =      -0.3484360100265433 [Eh]
	 Opposite-Spin Energy      =      -1.0927127393714375 [Eh]
	 Correlation Energy        =      -1.4411487493979809 [Eh]
	 Total Energy              =    -543.5299330807758906 [Eh]

	 ================> DF-SCS-MP2 Energies <==================
	-----------------------------------------------------------
	 SCS Same-Spin Scale       =       0.3333333333333333 [-]
	 SCS Opposite-Spin Scale   =       1.2000000000000000 [-]
	 SCS Same-Spin Energy      =      -0.1161453366755144 [Eh]
	 SCS Opposite-Spin Energy  =      -1.3112552872457250 [Eh]
	 SCS Correlation Energy    =      -1.4274006239212396 [Eh]
	 SCS Total Energy          =    -543.5161849552991953 [Eh]
	-----------------------------------------------------------

*** Psi4 exiting successfully. Buy a developer a beer!
