                               Psi4 1.8.2 release

  ==> Input File <==

--------------------------------------------------------------------------
MEMORY 60 GB

molecule dimer {
0 1
Gh(Na)     0.000000     0.000000     0.000000
Gh(O)     -0.873183    -0.042255    -2.202229
Gh(H)     -1.560372     0.663997    -2.132574
Gh(H)     -0.159520     0.419195    -2.658009
Gh(O)      1.774585    -1.111243    -0.868120
Gh(H)      2.668034    -0.822498    -1.023053
Gh(H)      1.823483    -1.922315    -0.332354
Gh(O)      0.464055     2.270172    -0.774407
Gh(H)      0.794773     2.768432     0.018710
Gh(H)      0.991671     2.713961    -1.495196
Gh(O)     -0.152636     0.078280     2.536654
Gh(H)     -0.531478     0.659236     3.209083
Gh(H)     -0.606956    -0.844174     2.462228
O         -2.312711     0.767096     0.299708
H         -2.650719     0.461772     1.137174
H         -2.063417     1.711685     0.481131

units ang
no_reorient
no_com
symmetry c1
}

set {
basis        aug-cc-pVTZ
scf_type     df
}

energy("mp2")
--------------------------------------------------------------------------

    Molecular point group: c1

    Geometry (in Angstrom), charge = 0, multiplicity = 1:

       Center              X                  Y                   Z               Mass
    ------------   -----------------  -----------------  -----------------  -----------------
      Gh(NA)          0.000000000000     0.000000000000     0.000000000000    22.989769282000
      Gh(O)          -0.873183000000    -0.042255000000    -2.202229000000    15.994914619570
      Gh(H)          -1.560372000000     0.663997000000    -2.132574000000     1.007825032230
      Gh(H)          -0.159520000000     0.419195000000    -2.658009000000     1.007825032230
      Gh(O)           1.774585000000    -1.111243000000    -0.868120000000    15.994914619570
      Gh(H)           2.668034000000    -0.822498000000    -1.023053000000     1.007825032230
      Gh(H)           1.823483000000    -1.922315000000    -0.332354000000     1.007825032230
      Gh(O)           0.464055000000     2.270172000000    -0.774407000000    15.994914619570
      Gh(H)           0.794773000000     2.768432000000     0.018710000000     1.007825032230
      Gh(H)           0.991671000000     2.713961000000    -1.495196000000     1.007825032230
      Gh(O)          -0.152636000000     0.078280000000     2.536654000000    15.994914619570
      Gh(H)          -0.531478000000     0.659236000000     3.209083000000     1.007825032230
      Gh(H)          -0.606956000000    -0.844174000000     2.462228000000     1.007825032230
         O           -2.312711000000     0.767096000000     0.299708000000    15.994914619570
         H           -2.650719000000     0.461772000000     1.137174000000     1.007825032230
         H           -2.063417000000     1.711685000000     0.481131000000     1.007825032230

  Charge       = 0
  Multiplicity = 1
  Basis Set: AUG-CC-PVTZ
    Blend: AUG-CC-PVTZ
  Basis Set: (AUG-CC-PVTZ AUX)
    Blend: AUG-CC-PVTZ-JKFIT + DEF2-UNIVERSAL-JKFIT

    Orbital Energies [Eh]
    ---------------------

    Doubly Occupied:

       1A    -20.570157     2A     -1.346316     3A     -0.707068
       4A     -0.583570     5A     -0.509348

  @DF-RHF Final Energy:   -76.05841230547483

   => Energetics <=

    Nuclear Repulsion Energy =              9.0473524088177797
    One-Electron Energy =                -122.7786093802637026
    Two-Electron Energy =                  37.6728446659710983
    Total Energy =                        -76.0584123054748318
 Dipole X            :         43.8103893          -43.8715491           -0.0611599
 Dipole Y            :        -15.2902799           15.7040493            0.4137694
 Dipole Z            :         -6.9172380            7.5890815            0.6718436
 Magnitude           :                                                    0.7914034
  Basis Set: (AUG-CC-PVTZ AUX)
    Blend: AUG-CC-PVTZ-RI + DEF2-QZVPP-RI
	 Reference Energy          =     -76.0584123054748318 [Eh]
	 Singles Energy            =      -0.0000000000000000 [Eh]
	 Same-Spin Energy          =      -0.0687241373092690 [Eh]
	 Opposite-Spin Energy      =      -0.2168752954774792 [Eh]
	 Correlation Energy        =      -0.2855994327867483 [Eh]
	 Total Energy              =     -76.3440117382615853 [Eh]

	 ================> DF-SCS-MP2 Energies <==================
	-----------------------------------------------------------
	 SCS Same-Spin Scale       =       0.3333333333333333 [-]
	 SCS Opposite-Spin Scale   =       1.2000000000000000 [-]
	 SCS Same-Spin Energy      =      -0.0229080457697563 [Eh]
	 SCS Opposite-Spin Energy  =      -0.2602503545729751 [Eh]
	 SCS Correlation Energy    =      -0.2831584003427314 [Eh]
	 SCS Total Energy          =     -76.3415707058175599 [Eh]
	-----------------------------------------------------------

*** Psi4 exiting successfully. Buy a developer a beer!
