                               Psi4 1.9 release

  ==> Input File <==

--------------------------------------------------------------------------
MEMORY 60 GB

molecule dimer {
1 1
Na     0.000000     0.000000     0.000000
--
0 1
O      0.708023    -1.342751    -1.859325
H      0.651312    -1.530173    -2.824257
H      0.765287    -2.234127    -1.494177
O      1.966844     1.359311     0.168930
H      2.774677     1.014819     0.464956
H      2.154278     2.048941    -0.513915
O      1.251839    -1.361885     1.616700
H      1.002389    -2.318327     1.850238
H      2.110395    -1.505860     1.250054
O     -1.064373     1.917554    -1.138065
H     -1.512374     2.639764    -0.689674
H     -1.757728     1.278248    -1.399230
O     -2.229190    -0.753886     0.938174
H     -2.626923    -1.541755     0.554601
H     -2.610605     0.056120     0.627425

units ang
no_reorient
no_com
symmetry c1
}

set {
basis        aug-cc-pVTZ
scf_type     df
}

energy("mp2", bsse_type="cp")
--------------------------------------------------------------------------

                               Psi4 1.9 release
    Molecular point group: c1
  Charge       = 0
  Multiplicity = 1
  Basis Set: AUG-CC-PVTZ
    Blend: AUG-CC-PVTZ
  Basis Set: (AUG-CC-PVTZ AUX)
    Blend: AUG-CC-PVTZ-JKFIT + DEF2-UNIVERSAL-JKFIT
  @DF-RHF Final Energy:  -380.27335810109889
    Total Energy =                       -380.2733581010988928
 Dipole X            :        -11.5870903           11.3683127           -0.2187776
 Dipole Y            :          5.6590638           -6.7002243           -1.0411605
 Dipole Z            :          7.2009854           -8.2442458           -1.0432604
 Magnitude           :                                                    1.4900574
  Basis Set: (AUG-CC-PVTZ AUX)
    Blend: AUG-CC-PVTZ-RI + DEF2-QZVPP-RI
	 Reference Energy          =    -380.2733581010988928 [Eh]
	 Singles Energy            =      -0.0000000000000000 [Eh]
	 Same-Spin Energy          =      -0.3455043743640075 [Eh]
	 Opposite-Spin Energy      =      -1.0853060360094586 [Eh]
	 Correlation Energy        =      -1.4308104103734662 [Eh]
	 Total Energy              =    -381.7041685114723464 [Eh]
	 SCS Total Energy          =    -381.6908934690982278 [Eh]
                               Psi4 1.9 release
    Molecular point group: c1
  Multiplicity = 1
  Basis Set: AUG-CC-PVTZ
    Blend: AUG-CC-PVTZ
  Basis Set: (AUG-CC-PVTZ AUX)
    Blend: AUG-CC-PVTZ-JKFIT + DEF2-UNIVERSAL-JKFIT
  @DF-RHF Final Energy:  -161.67609022323930
    Total Energy =                       -161.6760902232392993
  Basis Set: (AUG-CC-PVTZ AUX)
	 Singles Energy            =      -0.0000000000000000 [Eh]
	 Same-Spin Energy          =      -0.0059100007738561 [Eh]
	 Opposite-Spin Energy      =      -0.0183505718618507 [Eh]
	 Correlation Energy        =      -0.0242605726357068 [Eh]
	 Total Energy              =    -161.7003507958750106 [Eh]
	 SCS Total Energy          =    -161.7000809097314686 [Eh]
                               Psi4 1.9 release
    Molecular point group: c1

    Geometry (in Bohr), charge = 1, multiplicity = 1:

       Center              X                  Y                   Z               Mass
    ------------   -----------------  -----------------  -----------------  -----------------
         NA           0.000000000000     0.000000000000     0.000000000000    22.989769282000
         O            1.337969560525    -2.537431644685    -3.513615028217    15.994914619570
         H            1.230801302224    -2.891607894570    -5.337072237907     1.007825032230
         H            1.446182837373    -4.221888159491    -2.823585312958     1.007825032230
         O            3.716796491500     2.568725509322     0.319231434374    15.994914619570
         H            5.243379616607     1.917729976911     0.878639500388     1.007825032230
         H            4.070995418099     3.871937337222    -0.971158601765     1.007825032230
         O            2.365632863167    -2.573589664369     3.055120227028    15.994914619570
         H            1.894240681172    -4.381003099254     3.496443086915     1.007825032230
         H            3.988068566536    -2.845662983282     2.362259702033     1.007825032230
         O           -2.011373465332     3.623651890776    -2.150631162969    15.994914619570
         H           -2.857972659263     4.988430995843    -1.303294975849     1.007825032230
         H           -3.321624523049     2.415538640414    -2.644161486524     1.007825032230
         O           -4.212558581609    -1.424638069817     1.772891918025    15.994914619570
         H           -4.964165022666    -2.913494702555     1.048043998905     1.007825032230
         H           -4.933328471751     0.106051430161     1.185661414265     1.007825032230

  Charge       = 1
  Multiplicity = 1
  Basis Set: AUG-CC-PVTZ
    Blend: AUG-CC-PVTZ
  Basis Set: (AUG-CC-PVTZ AUX)
    Blend: AUG-CC-PVTZ-JKFIT + DEF2-UNIVERSAL-JKFIT

    Orbital Energies [Eh]
    ---------------------

    Doubly Occupied:

       1A    -40.569623     2A    -20.734883     3A    -20.732194
       4A    -20.726515     5A    -20.725722     6A    -20.708818
       7A     -2.890354     8A     -1.615424     9A     -1.614827
      10A     -1.613770    11A     -1.514029    12A     -1.513007
      13A     -1.511521    14A     -1.503039    15A     -1.497451
      16A     -0.900055    17A     -0.879996    18A     -0.871366
      19A     -0.868309    20A     -0.850687    21A     -0.765514
      22A     -0.754163    23A     -0.747769    24A     -0.734392
      25A     -0.731616    26A     -0.682871    27A     -0.678260
      28A     -0.672521    29A     -0.668978    30A     -0.657277

  @DF-RHF Final Energy:  -542.07988224752899

   => Energetics <=

    Nuclear Repulsion Energy =            296.5434023780847497
    One-Electron Energy =               -1335.3766672700219260
    Two-Electron Energy =                 496.7533826444082479
    Total Energy =                       -542.0798822475289853
 Dipole X            :        -11.5107822           11.3683127           -0.1424695
 Dipole Y            :          5.5846777           -6.7002243           -1.1155466
 Dipole Z            :          7.1046023           -8.2442458           -1.1396435
 Magnitude           :                                                    1.6011025
  Basis Set: (AUG-CC-PVTZ AUX)
    Blend: AUG-CC-PVTZ-RI + DEF2-QZVPP-RI
	 Reference Energy          =    -542.0798822475289853 [Eh]
	 Singles Energy            =      -0.0000000000000000 [Eh]
	 Same-Spin Energy          =      -0.3505819276707028 [Eh]
	 Opposite-Spin Energy      =      -1.0985406561728346 [Eh]
	 Correlation Energy        =      -1.4491225838435375 [Eh]
	 Total Energy              =    -543.5290048313725038 [Eh]

	 ================> DF-SCS-MP2 Energies <==================
	-----------------------------------------------------------
	 SCS Same-Spin Scale       =       0.3333333333333333 [-]
	 SCS Opposite-Spin Scale   =       1.2000000000000000 [-]
	 SCS Same-Spin Energy      =      -0.1168606425569009 [Eh]
	 SCS Opposite-Spin Energy  =      -1.3182487874074014 [Eh]
	 SCS Correlation Energy    =      -1.4351094299643024 [Eh]
	 SCS Total Energy          =    -543.5149916774932990 [Eh]
	-----------------------------------------------------------

*** Psi4 exiting successfully. Buy a developer a beer!
