                               Psi4 1.8.2 release

  ==> Input File <==

--------------------------------------------------------------------------
MEMORY 60 GB

molecule dimer {
1 1
Na         0.000000     0.000000     0.000000
Gh(O)      1.141551    -0.269713    -2.063354
Gh(H)      0.581191     0.178954    -2.697423
Gh(H)      1.852964     0.355336    -1.816107
Gh(O)     -1.079228    -1.527136     1.353753
Gh(H)     -0.231296    -1.832250     1.704646
Gh(H)     -1.535491    -1.112505     2.099170
Gh(O)      1.382305     1.712080     0.506694
Gh(H)      2.284929     1.263696     0.506647
Gh(H)      1.263960     2.214578     1.342307
Gh(O)     -1.935349     1.087739    -0.470061
Gh(H)     -2.792958     0.609916    -0.258886
Gh(H)     -2.113097     1.840844    -1.058981

units ang
no_reorient
no_com
symmetry c1
}

set {
basis        aug-cc-pVTZ
scf_type     df
}

energy("mp2")
--------------------------------------------------------------------------

    Molecular point group: c1

    Geometry (in Angstrom), charge = 1, multiplicity = 1:

       Center              X                  Y                   Z               Mass
    ------------   -----------------  -----------------  -----------------  -----------------
         NA           0.000000000000     0.000000000000     0.000000000000    22.989769282000
      Gh(O)           1.141551000000    -0.269713000000    -2.063354000000    15.994914619570
      Gh(H)           0.581191000000     0.178954000000    -2.697423000000     1.007825032230
      Gh(H)           1.852964000000     0.355336000000    -1.816107000000     1.007825032230
      Gh(O)          -1.079228000000    -1.527136000000     1.353753000000    15.994914619570
      Gh(H)          -0.231296000000    -1.832250000000     1.704646000000     1.007825032230
      Gh(H)          -1.535491000000    -1.112505000000     2.099170000000     1.007825032230
      Gh(O)           1.382305000000     1.712080000000     0.506694000000    15.994914619570
      Gh(H)           2.284929000000     1.263696000000     0.506647000000     1.007825032230
      Gh(H)           1.263960000000     2.214578000000     1.342307000000     1.007825032230
      Gh(O)          -1.935349000000     1.087739000000    -0.470061000000    15.994914619570
      Gh(H)          -2.792958000000     0.609916000000    -0.258886000000     1.007825032230
      Gh(H)          -2.113097000000     1.840844000000    -1.058981000000     1.007825032230

  Charge       = 1
  Multiplicity = 1
  Basis Set: AUG-CC-PVTZ
    Blend: AUG-CC-PVTZ
  Basis Set: (AUG-CC-PVTZ AUX)
    Blend: AUG-CC-PVTZ-JKFIT + DEF2-UNIVERSAL-JKFIT

    Orbital Energies [Eh]
    ---------------------

    Doubly Occupied:

       1A    -40.760438     2A     -3.073809     3A     -1.797186
       4A     -1.797144     5A     -1.797114

  @DF-RHF Final Energy:  -161.67608819909753

   => Energetics <=

    Nuclear Repulsion Energy =              0.0000000000000000
    One-Electron Energy =                -224.9007936647106476
    Two-Electron Energy =                  63.2247054656130985
    Total Energy =                       -161.6760881990975349
 Dipole X            :         -0.0000123            0.0000000           -0.0000123
 Dipole Y            :          0.0000049            0.0000000            0.0000049
 Dipole Z            :         -0.0000219            0.0000000           -0.0000219
 Magnitude           :                                                    0.0000256
  Basis Set: (AUG-CC-PVTZ AUX)
    Blend: AUG-CC-PVTZ-RI + DEF2-QZVPP-RI
	 Reference Energy          =    -161.6760881990975349 [Eh]
	 Singles Energy            =      -0.0000000000000000 [Eh]
	 Same-Spin Energy          =      -0.0053726053967463 [Eh]
	 Opposite-Spin Energy      =      -0.0169280652846786 [Eh]
	 Correlation Energy        =      -0.0223006706814249 [Eh]
	 Total Energy              =    -161.6983888697789666 [Eh]

	 ================> DF-SCS-MP2 Energies <==================
	-----------------------------------------------------------
	 SCS Same-Spin Scale       =       0.3333333333333333 [-]
	 SCS Opposite-Spin Scale   =       1.2000000000000000 [-]
	 SCS Same-Spin Energy      =      -0.0017908684655821 [Eh]
	 SCS Opposite-Spin Energy  =      -0.0203136783416143 [Eh]
	 SCS Correlation Energy    =      -0.0221045468071964 [Eh]
	 SCS Total Energy          =    -161.6981927459047199 [Eh]
	-----------------------------------------------------------

*** Psi4 exiting successfully. Buy a developer a beer!
