                               Psi4 1.8.2 release

  ==> Input File <==

--------------------------------------------------------------------------
MEMORY 60 GB

molecule dimer {
1 1
Na         0.000000     0.000000     0.000000
O         -0.180563    -2.182435    -1.037186
H         -0.065729    -2.790783    -0.341971
H          0.562536    -2.355411    -1.643452
O         -2.000451     0.701464     1.294659
H         -2.079251     1.430673     1.914902
H         -2.917867     0.429247     1.133965
O          2.097239    -0.812440     1.323753
H          2.024424    -0.994505     2.233103
H          2.996688    -0.460673     1.257813
O         -1.974202     0.884704    -1.534663
H         -1.703341     1.810095    -1.514027
H         -2.843633     0.881741    -1.122339
O          1.776401     0.618314    -1.270304
H          1.704603     0.388928    -2.211294
H          1.922183     1.547468    -1.244006

units ang
no_reorient
no_com
symmetry c1
}

set {
basis        aug-cc-pVTZ
scf_type     df
}

energy("mp2")
--------------------------------------------------------------------------

    Molecular point group: c1

    Geometry (in Angstrom), charge = 1, multiplicity = 1:

       Center              X                  Y                   Z               Mass
    ------------   -----------------  -----------------  -----------------  -----------------
         NA           0.000000000000     0.000000000000     0.000000000000    22.989769282000
         O           -0.180563000000    -2.182435000000    -1.037186000000    15.994914619570
         H           -0.065729000000    -2.790783000000    -0.341971000000     1.007825032230
         H            0.562536000000    -2.355411000000    -1.643452000000     1.007825032230
         O           -2.000451000000     0.701464000000     1.294659000000    15.994914619570
         H           -2.079251000000     1.430673000000     1.914902000000     1.007825032230
         H           -2.917867000000     0.429247000000     1.133965000000     1.007825032230
         O            2.097239000000    -0.812440000000     1.323753000000    15.994914619570
         H            2.024424000000    -0.994505000000     2.233103000000     1.007825032230
         H            2.996688000000    -0.460673000000     1.257813000000     1.007825032230
         O           -1.974202000000     0.884704000000    -1.534663000000    15.994914619570
         H           -1.703341000000     1.810095000000    -1.514027000000     1.007825032230
         H           -2.843633000000     0.881741000000    -1.122339000000     1.007825032230
         O            1.776401000000     0.618314000000    -1.270304000000    15.994914619570
         H            1.704603000000     0.388928000000    -2.211294000000     1.007825032230
         H            1.922183000000     1.547468000000    -1.244006000000     1.007825032230

  Charge       = 1
  Multiplicity = 1
  Basis Set: AUG-CC-PVTZ
    Blend: AUG-CC-PVTZ
  Basis Set: (AUG-CC-PVTZ AUX)
    Blend: AUG-CC-PVTZ-JKFIT + DEF2-UNIVERSAL-JKFIT

    Orbital Energies [Eh]
    ---------------------

    Doubly Occupied:

       1A    -40.567514     2A    -20.729972     3A    -20.729067
       4A    -20.709566     5A    -20.707940     6A    -20.705283
       7A     -2.888420     8A     -1.614117     9A     -1.612826
      10A     -1.611452    11A     -1.521477    12A     -1.514172
      13A     -1.504235    14A     -1.500622    15A     -1.489999
      16A     -0.888087    17A     -0.877629    18A     -0.864293
      19A     -0.861164    20A     -0.852080    21A     -0.765697
      22A     -0.760644    23A     -0.739185    24A     -0.736947
      25A     -0.725200    26A     -0.685279    27A     -0.682222
      28A     -0.660848    29A     -0.656991    30A     -0.642526

  @DF-RHF Final Energy:  -542.08758182506347

   => Energetics <=

    Nuclear Repulsion Energy =            296.3061317877407532
    One-Electron Energy =               -1335.1765134888878492
    Two-Electron Energy =                 496.7827998760836294
    Total Energy =                       -542.0875818250635803
 Dipole X            :          5.1693446           -5.0115442            0.1578003
 Dipole Y            :         13.0669834          -12.1629652            0.9040182
 Dipole Z            :         21.9346827          -21.4053700            0.5293127
 Magnitude           :                                                    1.0593969
  Basis Set: (AUG-CC-PVTZ AUX)
    Blend: AUG-CC-PVTZ-RI + DEF2-QZVPP-RI
	 Reference Energy          =    -542.0875818250634666 [Eh]
	 Singles Energy            =      -0.0000000000000000 [Eh]
	 Same-Spin Energy          =      -0.3497336923165483 [Eh]
	 Opposite-Spin Energy      =      -1.0955492122031494 [Eh]
	 Correlation Energy        =      -1.4452829045196978 [Eh]
	 Total Energy              =    -543.5328647295831388 [Eh]

	 ================> DF-SCS-MP2 Energies <==================
	-----------------------------------------------------------
	 SCS Same-Spin Scale       =       0.3333333333333333 [-]
	 SCS Opposite-Spin Scale   =       1.2000000000000000 [-]
	 SCS Same-Spin Energy      =      -0.1165778974388494 [Eh]
	 SCS Opposite-Spin Energy  =      -1.3146590546437793 [Eh]
	 SCS Correlation Energy    =      -1.4312369520826287 [Eh]
	 SCS Total Energy          =    -543.5188187771460662 [Eh]
	-----------------------------------------------------------

*** Psi4 exiting successfully. Buy a developer a beer!
