                               Psi4 1.8.2 release

  ==> Input File <==

--------------------------------------------------------------------------
MEMORY 60 GB

molecule dimer {
0 1
Gh(Na)     0.000000     0.000000     0.000000
Gh(O)      1.592894    -1.543639    -0.308375
Gh(H)      1.423686    -2.341419    -0.830979
Gh(H)      2.403710    -1.151684    -0.598431
O          1.988946     0.824225     1.115878
H          2.779875     0.295505     1.252466
H          2.237778     1.548762     0.503946
Gh(O)     -0.323220     1.312717     2.049838
Gh(H)      0.524459     0.926454     2.265662
Gh(H)     -1.000485     1.060576     2.756433
Gh(O)     -1.798560    -1.449805     0.232533
Gh(H)     -2.520777    -1.195942    -0.335276
Gh(H)     -2.004259    -2.272448     0.655052
Gh(O)      1.457351     0.926491    -1.892607
Gh(H)      2.288674     0.755986    -1.447960
Gh(H)      1.638498     1.608992    -2.536718
Gh(O)     -1.853918     1.628861    -0.694243
Gh(H)     -2.596561     1.796080    -1.223462
Gh(H)     -1.590046     2.537809    -0.490567

units ang
no_reorient
no_com
symmetry c1
}

set {
basis        aug-cc-pVTZ
scf_type     df
}

energy("mp2")
--------------------------------------------------------------------------

    Molecular point group: c1

    Geometry (in Angstrom), charge = 0, multiplicity = 1:

       Center              X                  Y                   Z               Mass
    ------------   -----------------  -----------------  -----------------  -----------------
      Gh(NA)          0.000000000000     0.000000000000     0.000000000000    22.989769282000
      Gh(O)           1.592894000000    -1.543639000000    -0.308375000000    15.994914619570
      Gh(H)           1.423686000000    -2.341419000000    -0.830979000000     1.007825032230
      Gh(H)           2.403710000000    -1.151684000000    -0.598431000000     1.007825032230
         O            1.988946000000     0.824225000000     1.115878000000    15.994914619570
         H            2.779875000000     0.295505000000     1.252466000000     1.007825032230
         H            2.237778000000     1.548762000000     0.503946000000     1.007825032230
      Gh(O)          -0.323220000000     1.312717000000     2.049838000000    15.994914619570
      Gh(H)           0.524459000000     0.926454000000     2.265662000000     1.007825032230
      Gh(H)          -1.000485000000     1.060576000000     2.756433000000     1.007825032230
      Gh(O)          -1.798560000000    -1.449805000000     0.232533000000    15.994914619570
      Gh(H)          -2.520777000000    -1.195942000000    -0.335276000000     1.007825032230
      Gh(H)          -2.004259000000    -2.272448000000     0.655052000000     1.007825032230
      Gh(O)           1.457351000000     0.926491000000    -1.892607000000    15.994914619570
      Gh(H)           2.288674000000     0.755986000000    -1.447960000000     1.007825032230
      Gh(H)           1.638498000000     1.608992000000    -2.536718000000     1.007825032230
      Gh(O)          -1.853918000000     1.628861000000    -0.694243000000    15.994914619570
      Gh(H)          -2.596561000000     1.796080000000    -1.223462000000     1.007825032230
      Gh(H)          -1.590046000000     2.537809000000    -0.490567000000     1.007825032230

  Charge       = 0
  Multiplicity = 1
  Basis Set: AUG-CC-PVTZ
    Blend: AUG-CC-PVTZ
  Basis Set: (AUG-CC-PVTZ AUX)
    Blend: AUG-CC-PVTZ-JKFIT + DEF2-UNIVERSAL-JKFIT

    Orbital Energies [Eh]
    ---------------------

    Doubly Occupied:

       1A    -20.568295     2A     -1.345133     3A     -0.714286
       4A     -0.578055     5A     -0.508563

  @DF-RHF Final Energy:   -76.05937402859418

   => Energetics <=

    Nuclear Repulsion Energy =              9.0621783140929697
    One-Electron Energy =                -122.8144394230428134
    Two-Electron Energy =                  37.6928870803556748
    Total Energy =                        -76.0593740285941635
 Dipole X            :        -38.8593947           39.5504957            0.6911010
 Dipole Y            :        -15.8181824           15.9456357            0.1274533
 Dipole Z            :        -20.5026559           20.1887681           -0.3138878
 Magnitude           :                                                    0.7696691
  Basis Set: (AUG-CC-PVTZ AUX)
    Blend: AUG-CC-PVTZ-RI + DEF2-QZVPP-RI
	 Reference Energy          =     -76.0593740285941777 [Eh]
	 Singles Energy            =      -0.0000000000000000 [Eh]
	 Same-Spin Energy          =      -0.0686784816041001 [Eh]
	 Opposite-Spin Energy      =      -0.2171707508073121 [Eh]
	 Correlation Energy        =      -0.2858492324114122 [Eh]
	 Total Energy              =     -76.3452232610055859 [Eh]

	 ================> DF-SCS-MP2 Energies <==================
	-----------------------------------------------------------
	 SCS Same-Spin Scale       =       0.3333333333333333 [-]
	 SCS Opposite-Spin Scale   =       1.2000000000000000 [-]
	 SCS Same-Spin Energy      =      -0.0228928272013667 [Eh]
	 SCS Opposite-Spin Energy  =      -0.2606049009687745 [Eh]
	 SCS Correlation Energy    =      -0.2834977281701412 [Eh]
	 SCS Total Energy          =     -76.3428717567643247 [Eh]
	-----------------------------------------------------------

*** Psi4 exiting successfully. Buy a developer a beer!
