                               Psi4 1.8.2 release

  ==> Input File <==

--------------------------------------------------------------------------
MEMORY 60 GB

molecule dimer {
0 1
Gh(Na)     0.000000     0.000000     0.000000
Gh(O)     -1.339451    -1.201724     1.367541
Gh(H)     -2.235805    -0.821142     1.302148
Gh(H)     -1.569153    -2.182228     1.427508
Gh(O)      1.319402     1.894139     0.435760
Gh(H)      1.823232     2.262470    -0.335659
Gh(H)      1.739025     2.258973     1.197774
O          1.589395    -1.392547     1.045193
H          1.704872    -2.231908     0.499963
H          2.479783    -0.955865     0.973167
Gh(O)     -1.214799     0.904461    -1.992201
Gh(H)     -0.703953     1.278966    -2.714790
Gh(H)     -2.095167     1.261371    -2.013025

units ang
no_reorient
no_com
symmetry c1
}

set {
basis        aug-cc-pVTZ
scf_type     df
}

energy("mp2")
--------------------------------------------------------------------------

    Molecular point group: c1

    Geometry (in Angstrom), charge = 0, multiplicity = 1:

       Center              X                  Y                   Z               Mass
    ------------   -----------------  -----------------  -----------------  -----------------
      Gh(NA)          0.000000000000     0.000000000000     0.000000000000    22.989769282000
      Gh(O)          -1.339451000000    -1.201724000000     1.367541000000    15.994914619570
      Gh(H)          -2.235805000000    -0.821142000000     1.302148000000     1.007825032230
      Gh(H)          -1.569153000000    -2.182228000000     1.427508000000     1.007825032230
      Gh(O)           1.319402000000     1.894139000000     0.435760000000    15.994914619570
      Gh(H)           1.823232000000     2.262470000000    -0.335659000000     1.007825032230
      Gh(H)           1.739025000000     2.258973000000     1.197774000000     1.007825032230
         O            1.589395000000    -1.392547000000     1.045193000000    15.994914619570
         H            1.704872000000    -2.231908000000     0.499963000000     1.007825032230
         H            2.479783000000    -0.955865000000     0.973167000000     1.007825032230
      Gh(O)          -1.214799000000     0.904461000000    -1.992201000000    15.994914619570
      Gh(H)          -0.703953000000     1.278966000000    -2.714790000000     1.007825032230
      Gh(H)          -2.095167000000     1.261371000000    -2.013025000000     1.007825032230

  Charge       = 0
  Multiplicity = 1
  Basis Set: AUG-CC-PVTZ
    Blend: AUG-CC-PVTZ
  Basis Set: (AUG-CC-PVTZ AUX)
    Blend: AUG-CC-PVTZ-JKFIT + DEF2-UNIVERSAL-JKFIT

    Orbital Energies [Eh]
    ---------------------

    Doubly Occupied:

       1A    -20.575164     2A     -1.333131     3A     -0.691638
       4A     -0.579410     5A     -0.507429

  @DF-RHF Final Energy:   -76.05435555623866

   => Energetics <=

    Nuclear Repulsion Energy =              8.7972345936129077
    One-Electron Energy =                -122.3296334527632325
    Two-Electron Energy =                  37.4780433029116580
    Total Energy =                        -76.0543555562386615
 Dipole X            :        -31.2867636           31.9360219            0.6492583
 Dipole Y            :         26.8187202          -27.0762775           -0.2575573
 Dipole Z            :        -18.9815415           18.5848404           -0.3967011
 Magnitude           :                                                    0.8032708
  Basis Set: (AUG-CC-PVTZ AUX)
    Blend: AUG-CC-PVTZ-RI + DEF2-QZVPP-RI
	 Reference Energy          =     -76.0543555562386615 [Eh]
	 Singles Energy            =      -0.0000000000000000 [Eh]
	 Same-Spin Energy          =      -0.0692093450204686 [Eh]
	 Opposite-Spin Energy      =      -0.2182438287589570 [Eh]
	 Correlation Energy        =      -0.2874531737794256 [Eh]
	 Total Energy              =     -76.3418087300180872 [Eh]

	 ================> DF-SCS-MP2 Energies <==================
	-----------------------------------------------------------
	 SCS Same-Spin Scale       =       0.3333333333333333 [-]
	 SCS Opposite-Spin Scale   =       1.2000000000000000 [-]
	 SCS Same-Spin Energy      =      -0.0230697816734895 [Eh]
	 SCS Opposite-Spin Energy  =      -0.2618925945107484 [Eh]
	 SCS Correlation Energy    =      -0.2849623761842380 [Eh]
	 SCS Total Energy          =     -76.3393179324229010 [Eh]
	-----------------------------------------------------------

*** Psi4 exiting successfully. Buy a developer a beer!
