                               Psi4 1.8.2 release

  ==> Input File <==

--------------------------------------------------------------------------
MEMORY 60 GB

molecule dimer {
1 1
Na         0.000000     0.000000     0.000000
O         -0.385609     0.971783     2.130412
H          0.171738     1.741781     2.032620
H          0.110888     0.513405     2.845892
O          1.650679    -1.448679     0.973540
H          2.407191    -1.477866     0.372562
H          2.005735    -1.634422     1.882786
O          1.370942     1.688736    -1.335288
H          1.905338     1.353027    -2.042046
H          2.089085     2.118485    -0.854267
O         -0.901623    -0.275276    -2.159721
H         -0.471246    -1.081532    -2.486808
H         -0.652592     0.403088    -2.864428

units ang
no_reorient
no_com
symmetry c1
}

set {
basis        aug-cc-pVTZ
scf_type     df
}

energy("mp2")
--------------------------------------------------------------------------

    Molecular point group: c1

    Geometry (in Angstrom), charge = 1, multiplicity = 1:

       Center              X                  Y                   Z               Mass
    ------------   -----------------  -----------------  -----------------  -----------------
         NA           0.000000000000     0.000000000000     0.000000000000    22.989769282000
         O           -0.385609000000     0.971783000000     2.130412000000    15.994914619570
         H            0.171738000000     1.741781000000     2.032620000000     1.007825032230
         H            0.110888000000     0.513405000000     2.845892000000     1.007825032230
         O            1.650679000000    -1.448679000000     0.973540000000    15.994914619570
         H            2.407191000000    -1.477866000000     0.372562000000     1.007825032230
         H            2.005735000000    -1.634422000000     1.882786000000     1.007825032230
         O            1.370942000000     1.688736000000    -1.335288000000    15.994914619570
         H            1.905338000000     1.353027000000    -2.042046000000     1.007825032230
         H            2.089085000000     2.118485000000    -0.854267000000     1.007825032230
         O           -0.901623000000    -0.275276000000    -2.159721000000    15.994914619570
         H           -0.471246000000    -1.081532000000    -2.486808000000     1.007825032230
         H           -0.652592000000     0.403088000000    -2.864428000000     1.007825032230

  Charge       = 1
  Multiplicity = 1
  Basis Set: AUG-CC-PVTZ
    Blend: AUG-CC-PVTZ
  Basis Set: (AUG-CC-PVTZ AUX)
    Blend: AUG-CC-PVTZ-JKFIT + DEF2-UNIVERSAL-JKFIT

    Orbital Energies [Eh]
    ---------------------

    Doubly Occupied:

       1A    -40.592580     2A    -20.748237     3A    -20.744350
       4A    -20.737411     5A    -20.737202     6A     -2.913359
       7A     -1.638319     8A     -1.637630     9A     -1.636876
      10A     -1.536417    11A     -1.522413    12A     -1.519901
      13A     -1.506460    14A     -0.889758    15A     -0.877710
      16A     -0.867093    17A     -0.861479    18A     -0.784875
      19A     -0.770107    20A     -0.766375    21A     -0.756927
      22A     -0.697568    23A     -0.690991    24A     -0.681301
      25A     -0.678222

  @DF-RHF Final Energy:  -466.00569560569551

   => Energetics <=

    Nuclear Repulsion Energy =            210.8537848579220508
    One-Electron Energy =               -1060.1318307183325942
    Two-Electron Energy =                 383.2723502547150360
    Total Energy =                       -466.0056956056955073
 Dipole X            :        -37.6265550           40.5180884            2.8915334
 Dipole Y            :        -17.7024376           17.8172412            0.1148036
 Dipole Z            :          7.7770241           -8.0164922           -0.2394681
 Magnitude           :                                                    2.9037028
  Basis Set: (AUG-CC-PVTZ AUX)
    Blend: AUG-CC-PVTZ-RI + DEF2-QZVPP-RI
	 Reference Energy          =    -466.0056956056955073 [Eh]
	 Singles Energy            =      -0.0000000000000000 [Eh]
	 Same-Spin Energy          =      -0.2807692072945127 [Eh]
	 Opposite-Spin Energy      =      -0.8807630705092886 [Eh]
	 Correlation Energy        =      -1.1615322778038013 [Eh]
	 Total Energy              =    -467.1672278834993222 [Eh]

	 ================> DF-SCS-MP2 Energies <==================
	-----------------------------------------------------------
	 SCS Same-Spin Scale       =       0.3333333333333333 [-]
	 SCS Opposite-Spin Scale   =       1.2000000000000000 [-]
	 SCS Same-Spin Energy      =      -0.0935897357648375 [Eh]
	 SCS Opposite-Spin Energy  =      -1.0569156846111463 [Eh]
	 SCS Correlation Energy    =      -1.1505054203759839 [Eh]
	 SCS Total Energy          =    -467.1562010260714715 [Eh]
	-----------------------------------------------------------

*** Psi4 exiting successfully. Buy a developer a beer!
