                               Psi4 1.8.2 release

  ==> Input File <==

--------------------------------------------------------------------------
MEMORY 60 GB

molecule dimer {
1 1
Na         0.000000     0.000000     0.000000
O         -0.897532    -2.178500     0.017525
H         -1.843403    -2.189920     0.149337
H         -0.582756    -2.774658     0.713365
O          1.591836     0.043402     2.008514
H          1.716990     0.920967     2.376036
H          1.411828    -0.601746     2.676202
O         -1.189951     0.486911    -1.920717
H         -1.068420     0.988809    -2.658257
H         -2.180180     0.605188    -1.812331
O         -0.608989     2.168295     1.082772
H         -1.262092     2.080125     1.733612
H         -0.903001     2.839890     0.429345
O          1.897515     0.031709    -1.711733
H          2.558639     0.731250    -1.645906
H          1.496705     0.148755    -2.522837

units ang
no_reorient
no_com
symmetry c1
}

set {
basis        aug-cc-pVTZ
scf_type     df
}

energy("mp2")
--------------------------------------------------------------------------

    Molecular point group: c1

    Geometry (in Angstrom), charge = 1, multiplicity = 1:

       Center              X                  Y                   Z               Mass
    ------------   -----------------  -----------------  -----------------  -----------------
         NA           0.000000000000     0.000000000000     0.000000000000    22.989769282000
         O           -0.897532000000    -2.178500000000     0.017525000000    15.994914619570
         H           -1.843403000000    -2.189920000000     0.149337000000     1.007825032230
         H           -0.582756000000    -2.774658000000     0.713365000000     1.007825032230
         O            1.591836000000     0.043402000000     2.008514000000    15.994914619570
         H            1.716990000000     0.920967000000     2.376036000000     1.007825032230
         H            1.411828000000    -0.601746000000     2.676202000000     1.007825032230
         O           -1.189951000000     0.486911000000    -1.920717000000    15.994914619570
         H           -1.068420000000     0.988809000000    -2.658257000000     1.007825032230
         H           -2.180180000000     0.605188000000    -1.812331000000     1.007825032230
         O           -0.608989000000     2.168295000000     1.082772000000    15.994914619570
         H           -1.262092000000     2.080125000000     1.733612000000     1.007825032230
         H           -0.903001000000     2.839890000000     0.429345000000     1.007825032230
         O            1.897515000000     0.031709000000    -1.711733000000    15.994914619570
         H            2.558639000000     0.731250000000    -1.645906000000     1.007825032230
         H            1.496705000000     0.148755000000    -2.522837000000     1.007825032230

  Charge       = 1
  Multiplicity = 1
  Basis Set: AUG-CC-PVTZ
    Blend: AUG-CC-PVTZ
  Basis Set: (AUG-CC-PVTZ AUX)
    Blend: AUG-CC-PVTZ-JKFIT + DEF2-UNIVERSAL-JKFIT

    Orbital Energies [Eh]
    ---------------------

    Doubly Occupied:

       1A    -40.559065     2A    -20.733983     3A    -20.725305
       4A    -20.725214     5A    -20.703642     6A    -20.699098
       7A     -2.880237     8A     -1.605302     9A     -1.604899
      10A     -1.604122    11A     -1.532615    12A     -1.515760
      13A     -1.511652    14A     -1.500682    15A     -1.492989
      16A     -0.889292    17A     -0.882442    18A     -0.876049
      19A     -0.868750    20A     -0.865897    21A     -0.779114
      22A     -0.753879    23A     -0.747629    24A     -0.729406
      25A     -0.719297    26A     -0.688222    27A     -0.674205
      28A     -0.672842    29A     -0.652911    30A     -0.651750

  @DF-RHF Final Energy:  -542.08878433075256

   => Energetics <=

    Nuclear Repulsion Energy =            296.3940371548655435
    One-Electron Energy =               -1335.2731337633535986
    Two-Electron Energy =                 496.7903122777354952
    Total Energy =                       -542.0887843307525600
 Dipole X            :        -12.2332960           10.7475188           -1.4857773
 Dipole Y            :        -12.3975876           13.5364786            1.1388910
 Dipole Z            :          9.2326927           -8.9772309            0.2554618
 Magnitude           :                                                    1.8894093
  Basis Set: (AUG-CC-PVTZ AUX)
    Blend: AUG-CC-PVTZ-RI + DEF2-QZVPP-RI
	 Reference Energy          =    -542.0887843307525600 [Eh]
	 Singles Energy            =      -0.0000000000000000 [Eh]
	 Same-Spin Energy          =      -0.3484360100264769 [Eh]
	 Opposite-Spin Energy      =      -1.0927127393714413 [Eh]
	 Correlation Energy        =      -1.4411487493979183 [Eh]
	 Total Energy              =    -543.5299330801504993 [Eh]

	 ================> DF-SCS-MP2 Energies <==================
	-----------------------------------------------------------
	 SCS Same-Spin Scale       =       0.3333333333333333 [-]
	 SCS Opposite-Spin Scale   =       1.2000000000000000 [-]
	 SCS Same-Spin Energy      =      -0.1161453366754923 [Eh]
	 SCS Opposite-Spin Energy  =      -1.3112552872457295 [Eh]
	 SCS Correlation Energy    =      -1.4274006239212218 [Eh]
	 SCS Total Energy          =    -543.5161849546738040 [Eh]
	-----------------------------------------------------------

*** Psi4 exiting successfully. Buy a developer a beer!
