                               Psi4 1.9 release

  ==> Input File <==

--------------------------------------------------------------------------
MEMORY 60 GB

molecule dimer {
1 1
Na     0.000000     0.000000     0.000000
--
0 1
O      0.678160     2.284288    -0.397643
H      1.614332     2.337963    -0.456092
H      0.453059     2.958377     0.208204
O     -1.023978    -2.189835     0.746360
H     -0.521172    -2.711199     0.158310
H     -0.741558    -2.343754     1.621825
O     -1.055877     1.483188     1.542185
H     -1.151422     2.354443     1.184827
H     -1.725839     1.293498     2.192923
O      1.362518    -0.511661    -1.626750
H      1.650715    -0.789797    -2.502568
H      2.116689    -0.657072    -1.084660

units ang
no_reorient
no_com
symmetry c1
}

set {
basis        aug-cc-pVTZ
scf_type     df
}

energy("mp2", bsse_type="cp")
--------------------------------------------------------------------------

                               Psi4 1.9 release
    Molecular point group: c1
  Charge       = 0
  Multiplicity = 1
  Basis Set: AUG-CC-PVTZ
    Blend: AUG-CC-PVTZ
  Basis Set: (AUG-CC-PVTZ AUX)
    Blend: AUG-CC-PVTZ-JKFIT + DEF2-UNIVERSAL-JKFIT
  @DF-RHF Final Energy:  -304.22591812302568
    Total Energy =                       -304.2259181230256786
 Dipole X            :         -1.4480965            2.6104450            1.1623485
 Dipole Y            :        -20.5925039           20.7308606            0.1383568
 Dipole Z            :         -6.0161386            6.4930706            0.4769320
 Magnitude           :                                                    1.2639861
  Basis Set: (AUG-CC-PVTZ AUX)
    Blend: AUG-CC-PVTZ-RI + DEF2-QZVPP-RI
	 Reference Energy          =    -304.2259181230256786 [Eh]
	 Singles Energy            =      -0.0000000000000000 [Eh]
	 Same-Spin Energy          =      -0.2747403808708466 [Eh]
	 Opposite-Spin Energy      =      -0.8625490026285153 [Eh]
	 Correlation Energy        =      -1.1372893834993620 [Eh]
	 Total Energy              =    -305.3632075065250433 [Eh]
	 SCS Total Energy          =    -305.3525570531368203 [Eh]
                               Psi4 1.9 release
    Molecular point group: c1
  Multiplicity = 1
  Basis Set: AUG-CC-PVTZ
    Blend: AUG-CC-PVTZ
  Basis Set: (AUG-CC-PVTZ AUX)
    Blend: AUG-CC-PVTZ-JKFIT + DEF2-UNIVERSAL-JKFIT
  @DF-RHF Final Energy:  -161.67608092768174
    Total Energy =                       -161.6760809276817099
  Basis Set: (AUG-CC-PVTZ AUX)
	 Singles Energy            =      -0.0000000000000000 [Eh]
	 Same-Spin Energy          =      -0.0054907066081372 [Eh]
	 Opposite-Spin Energy      =      -0.0174522277852031 [Eh]
	 Correlation Energy        =      -0.0229429343933403 [Eh]
	 Total Energy              =    -161.6990238620750802 [Eh]
	 SCS Total Energy          =    -161.6988538365600334 [Eh]
                               Psi4 1.9 release
    Molecular point group: c1

    Geometry (in Bohr), charge = 1, multiplicity = 1:

       Center              X                  Y                   Z               Mass
    ------------   -----------------  -----------------  -----------------  -----------------
         NA           0.000000000000     0.000000000000     0.000000000000    22.989769282000
         O            1.281536669240     4.316678711670    -0.751436365705    15.994914619570
         H            3.050645355563     4.418109761454    -0.861888968012     1.007825032230
         H            0.856157428674     5.590522305854     0.393448538225     1.007825032230
         O           -1.935037978494    -4.138188409942     1.410415990997    15.994914619570
         H           -0.984872344257    -5.123423581615     0.299162542921     1.007825032230
         H           -1.401341526142    -4.429053165446     3.064805073421     1.007825032230
         O           -1.995318352170     2.802819112566     2.914307284789    15.994914619570
         H           -2.175872234827     4.449252448001     2.238998536048     1.007825032230
         H           -3.261363046634     2.444356963827     4.144023884217     1.007825032230
         O            2.574785861007    -0.966899159078    -3.074111974589    15.994914619570
         H            3.119399261185    -1.492500024708    -4.729168130335     1.007825032230
         H            3.999962502769    -1.241686124707    -2.049710339239     1.007825032230

  Charge       = 1
  Multiplicity = 1
  Basis Set: AUG-CC-PVTZ
    Blend: AUG-CC-PVTZ
  Basis Set: (AUG-CC-PVTZ AUX)
    Blend: AUG-CC-PVTZ-JKFIT + DEF2-UNIVERSAL-JKFIT

    Orbital Energies [Eh]
    ---------------------

    Doubly Occupied:

       1A    -40.591133     2A    -20.749711     3A    -20.728533
       4A    -20.727964     5A    -20.724239     6A     -2.913223
       7A     -1.639586     8A     -1.637775     9A     -1.636672
      10A     -1.545011    11A     -1.534936    12A     -1.527569
      13A     -1.519768    14A     -0.917753    15A     -0.908695
      16A     -0.904554    17A     -0.883141    18A     -0.791480
      19A     -0.768091    20A     -0.752525    21A     -0.746508
      22A     -0.701875    23A     -0.683875    24A     -0.680259
      25A     -0.677276

  @DF-RHF Final Energy:  -466.01055300608414

   => Energetics <=

    Nuclear Repulsion Energy =            216.3700159093022251
    One-Electron Energy =               -1070.9768271913449098
    Two-Electron Energy =                 388.5962582759585757
    Total Energy =                       -466.0105530060841375
 Dipole X            :         -1.3829364            2.6104450            1.2275086
 Dipole Y            :        -20.4766100           20.7308606            0.2542507
 Dipole Z            :         -6.0105151            6.4930706            0.4825556
 Magnitude           :                                                    1.3432351
  Basis Set: (AUG-CC-PVTZ AUX)
    Blend: AUG-CC-PVTZ-RI + DEF2-QZVPP-RI
	 Reference Energy          =    -466.0105530060841375 [Eh]
	 Singles Energy            =      -0.0000000000000000 [Eh]
	 Same-Spin Energy          =      -0.2792850009045915 [Eh]
	 Opposite-Spin Energy      =      -0.8753302348830034 [Eh]
	 Correlation Energy        =      -1.1546152357875950 [Eh]
	 Total Energy              =    -467.1651682418717542 [Eh]

	 ================> DF-SCS-MP2 Energies <==================
	-----------------------------------------------------------
	 SCS Same-Spin Scale       =       0.3333333333333333 [-]
	 SCS Opposite-Spin Scale   =       1.2000000000000000 [-]
	 SCS Same-Spin Energy      =      -0.0930950003015305 [Eh]
	 SCS Opposite-Spin Energy  =      -1.0503962818596040 [Eh]
	 SCS Correlation Energy    =      -1.1434912821611345 [Eh]
	 SCS Total Energy          =    -467.1540442882452453 [Eh]
	-----------------------------------------------------------

*** Psi4 exiting successfully. Buy a developer a beer!
