                               Psi4 1.8.2 release

  ==> Input File <==

--------------------------------------------------------------------------
MEMORY 60 GB

molecule dimer {
1 1
Na         0.000000     0.000000     0.000000
O         -1.365784     1.888773     0.128336
H         -1.127056     2.523638    -0.548341
H         -2.084338     1.268663    -0.087383
O          1.933277     1.190155     1.145330
H          2.694356     1.300756     0.519806
H          1.814910     2.060976     1.520495
O         -0.418772    -0.363065    -2.238699
H         -1.093240     0.117831    -2.640346
H          0.385868    -0.155367    -2.718085
O         -1.360209    -0.721731     1.772667
H         -0.830785    -1.124783     2.509665
H         -1.649374     0.155797     2.059176
O          1.649637    -1.718358    -0.019721
H          1.060619    -2.517490    -0.072430
H          2.004692    -1.689554    -0.966746

units ang
no_reorient
no_com
symmetry c1
}

set {
basis        aug-cc-pVTZ
scf_type     df
}

energy("mp2")
--------------------------------------------------------------------------

    Molecular point group: c1

    Geometry (in Angstrom), charge = 1, multiplicity = 1:

       Center              X                  Y                   Z               Mass
    ------------   -----------------  -----------------  -----------------  -----------------
         NA           0.000000000000     0.000000000000     0.000000000000    22.989769282000
         O           -1.365784000000     1.888773000000     0.128336000000    15.994914619570
         H           -1.127056000000     2.523638000000    -0.548341000000     1.007825032230
         H           -2.084338000000     1.268663000000    -0.087383000000     1.007825032230
         O            1.933277000000     1.190155000000     1.145330000000    15.994914619570
         H            2.694356000000     1.300756000000     0.519806000000     1.007825032230
         H            1.814910000000     2.060976000000     1.520495000000     1.007825032230
         O           -0.418772000000    -0.363065000000    -2.238699000000    15.994914619570
         H           -1.093240000000     0.117831000000    -2.640346000000     1.007825032230
         H            0.385868000000    -0.155367000000    -2.718085000000     1.007825032230
         O           -1.360209000000    -0.721731000000     1.772667000000    15.994914619570
         H           -0.830785000000    -1.124783000000     2.509665000000     1.007825032230
         H           -1.649374000000     0.155797000000     2.059176000000     1.007825032230
         O            1.649637000000    -1.718358000000    -0.019721000000    15.994914619570
         H            1.060619000000    -2.517490000000    -0.072430000000     1.007825032230
         H            2.004692000000    -1.689554000000    -0.966746000000     1.007825032230

  Charge       = 1
  Multiplicity = 1
  Basis Set: AUG-CC-PVTZ
    Blend: AUG-CC-PVTZ
  Basis Set: (AUG-CC-PVTZ AUX)
    Blend: AUG-CC-PVTZ-JKFIT + DEF2-UNIVERSAL-JKFIT

    Orbital Energies [Eh]
    ---------------------

    Doubly Occupied:

       1A    -40.562489     2A    -20.746122     3A    -20.738216
       4A    -20.731958     5A    -20.724251     6A    -20.716694
       7A     -2.886743     8A     -1.612844     9A     -1.612210
      10A     -1.610819    11A     -1.547405    12A     -1.520959
      13A     -1.498932    14A     -1.494846    15A     -1.492672
      16A     -0.917574    17A     -0.914477    18A     -0.868379
      19A     -0.855917    20A     -0.843487    21A     -0.780206
      22A     -0.750631    23A     -0.743344    24A     -0.739039
      25A     -0.732030    26A     -0.706714    27A     -0.687674
      28A     -0.673542    29A     -0.669393    30A     -0.659750

  @DF-RHF Final Energy:  -542.07110008277766

   => Energetics <=

    Nuclear Repulsion Energy =            304.7668923336757985
    One-Electron Energy =               -1351.5973493169803987
    Two-Electron Energy =                 504.7593569005269956
    Total Energy =                       -542.0711000827776616
 Dipole X            :         -8.6297899            8.8455132            0.2157233
 Dipole Y            :         -6.8665704            7.8360498            0.9694794
 Dipole Z            :        -12.3851375           11.1099172           -1.2752202
 Magnitude           :                                                    1.6163581
  Basis Set: (AUG-CC-PVTZ AUX)
    Blend: AUG-CC-PVTZ-RI + DEF2-QZVPP-RI
	 Reference Energy          =    -542.0711000827776616 [Eh]
	 Singles Energy            =      -0.0000000000000000 [Eh]
	 Same-Spin Energy          =      -0.3514678620844093 [Eh]
	 Opposite-Spin Energy      =      -1.1000817955070101 [Eh]
	 Correlation Energy        =      -1.4515496575914195 [Eh]
	 Total Energy              =    -543.5226497403690473 [Eh]

	 ================> DF-SCS-MP2 Energies <==================
	-----------------------------------------------------------
	 SCS Same-Spin Scale       =       0.3333333333333333 [-]
	 SCS Opposite-Spin Scale   =       1.2000000000000000 [-]
	 SCS Same-Spin Energy      =      -0.1171559540281364 [Eh]
	 SCS Opposite-Spin Energy  =      -1.3200981546084121 [Eh]
	 SCS Correlation Energy    =      -1.4372541086365485 [Eh]
	 SCS Total Energy          =    -543.5083541914142415 [Eh]
	-----------------------------------------------------------

*** Psi4 exiting successfully. Buy a developer a beer!
