                               Psi4 1.8.2 release

  ==> Input File <==

--------------------------------------------------------------------------
MEMORY 60 GB

molecule dimer {
1 1
Na         0.000000     0.000000     0.000000
Gh(O)      2.097125    -0.497024     0.761194
Gh(H)      2.050085    -1.449035     0.873033
Gh(H)      2.546047    -0.299517     1.556234
Gh(O)      0.694124     2.052469     0.671515
Gh(H)      1.544738     2.338465     0.228031
Gh(H)      0.070848     2.347446    -0.028200
Gh(O)     -1.811270     0.275644    -1.321325
Gh(H)     -2.577804     0.825547    -1.027113
Gh(H)     -1.990529     0.001056    -2.250202
Gh(O)     -2.004597     0.304099     1.444740
Gh(H)     -2.367149     1.218233     1.601480
Gh(H)     -2.783477    -0.189314     1.246767

units ang
no_reorient
no_com
symmetry c1
}

set {
basis        aug-cc-pVTZ
scf_type     df
}

energy("mp2")
--------------------------------------------------------------------------

    Molecular point group: c1

    Geometry (in Angstrom), charge = 1, multiplicity = 1:

       Center              X                  Y                   Z               Mass
    ------------   -----------------  -----------------  -----------------  -----------------
         NA           0.000000000000     0.000000000000     0.000000000000    22.989769282000
      Gh(O)           2.097125000000    -0.497024000000     0.761194000000    15.994914619570
      Gh(H)           2.050085000000    -1.449035000000     0.873033000000     1.007825032230
      Gh(H)           2.546047000000    -0.299517000000     1.556234000000     1.007825032230
      Gh(O)           0.694124000000     2.052469000000     0.671515000000    15.994914619570
      Gh(H)           1.544738000000     2.338465000000     0.228031000000     1.007825032230
      Gh(H)           0.070848000000     2.347446000000    -0.028200000000     1.007825032230
      Gh(O)          -1.811270000000     0.275644000000    -1.321325000000    15.994914619570
      Gh(H)          -2.577804000000     0.825547000000    -1.027113000000     1.007825032230
      Gh(H)          -1.990529000000     0.001056000000    -2.250202000000     1.007825032230
      Gh(O)          -2.004597000000     0.304099000000     1.444740000000    15.994914619570
      Gh(H)          -2.367149000000     1.218233000000     1.601480000000     1.007825032230
      Gh(H)          -2.783477000000    -0.189314000000     1.246767000000     1.007825032230

  Charge       = 1
  Multiplicity = 1
  Basis Set: AUG-CC-PVTZ
    Blend: AUG-CC-PVTZ
  Basis Set: (AUG-CC-PVTZ AUX)
    Blend: AUG-CC-PVTZ-JKFIT + DEF2-UNIVERSAL-JKFIT

    Orbital Energies [Eh]
    ---------------------

    Doubly Occupied:

       1A    -40.760602     2A     -3.073880     3A     -1.797254
       4A     -1.797205     5A     -1.797167

  @DF-RHF Final Energy:  -161.67608576499535

   => Energetics <=

    Nuclear Repulsion Energy =              0.0000000000000000
    One-Electron Energy =                -224.8999553736407790
    Two-Electron Energy =                  63.2238696086454226
    Total Energy =                       -161.6760857649953493
 Dipole X            :         -0.0000453            0.0000000           -0.0000453
 Dipole Y            :          0.0001050            0.0000000            0.0001050
 Dipole Z            :         -0.0000409            0.0000000           -0.0000409
 Magnitude           :                                                    0.0001215
  Basis Set: (AUG-CC-PVTZ AUX)
    Blend: AUG-CC-PVTZ-RI + DEF2-QZVPP-RI
	 Reference Energy          =    -161.6760857649953493 [Eh]
	 Singles Energy            =      -0.0000000000000000 [Eh]
	 Same-Spin Energy          =      -0.0054805498942692 [Eh]
	 Opposite-Spin Energy      =      -0.0172589697914652 [Eh]
	 Correlation Energy        =      -0.0227395196857344 [Eh]
	 Total Energy              =    -161.6988252846810781 [Eh]

	 ================> DF-SCS-MP2 Energies <==================
	-----------------------------------------------------------
	 SCS Same-Spin Scale       =       0.3333333333333333 [-]
	 SCS Opposite-Spin Scale   =       1.2000000000000000 [-]
	 SCS Same-Spin Energy      =      -0.0018268499647564 [Eh]
	 SCS Opposite-Spin Energy  =      -0.0207107637497582 [Eh]
	 SCS Correlation Energy    =      -0.0225376137145146 [Eh]
	 SCS Total Energy          =    -161.6986233787098683 [Eh]
	-----------------------------------------------------------

*** Psi4 exiting successfully. Buy a developer a beer!
