                               Psi4 1.8.2 release

  ==> Input File <==

--------------------------------------------------------------------------
MEMORY 60 GB

molecule dimer {
1 1
Na         0.000000     0.000000     0.000000
Gh(O)     -1.280774    -0.759773     2.066537
Gh(H)     -1.536429    -0.091676     2.765012
Gh(H)     -1.901665    -1.511168     1.950498
Gh(O)     -0.717471     2.091250    -0.901495
Gh(H)      0.059317     2.629287    -1.164866
Gh(H)     -1.476620     2.438268    -1.368779
Gh(O)     -1.822223    -1.577676    -0.958332
Gh(H)     -1.691050    -2.150752    -1.657492
Gh(H)     -2.466734    -0.986478    -1.244925
Gh(O)      1.591137     0.542267     1.515629
Gh(H)      1.976809    -0.291838     1.794945
Gh(H)      2.435743     1.172111     1.550722
Gh(O)      0.916176    -2.475189     0.174402
Gh(H)      1.088176    -2.332722     1.102282
Gh(H)      0.002816    -2.742338     0.107943
Gh(O)      1.503194     0.599374    -1.995198
Gh(H)      1.887717    -0.218723    -2.491432
Gh(H)      1.765947     1.338805    -2.568431

units ang
no_reorient
no_com
symmetry c1
}

set {
basis        aug-cc-pVTZ
scf_type     df
}

energy("mp2")
--------------------------------------------------------------------------

    Molecular point group: c1

    Geometry (in Angstrom), charge = 1, multiplicity = 1:

       Center              X                  Y                   Z               Mass
    ------------   -----------------  -----------------  -----------------  -----------------
         NA           0.000000000000     0.000000000000     0.000000000000    22.989769282000
      Gh(O)          -1.280774000000    -0.759773000000     2.066537000000    15.994914619570
      Gh(H)          -1.536429000000    -0.091676000000     2.765012000000     1.007825032230
      Gh(H)          -1.901665000000    -1.511168000000     1.950498000000     1.007825032230
      Gh(O)          -0.717471000000     2.091250000000    -0.901495000000    15.994914619570
      Gh(H)           0.059317000000     2.629287000000    -1.164866000000     1.007825032230
      Gh(H)          -1.476620000000     2.438268000000    -1.368779000000     1.007825032230
      Gh(O)          -1.822223000000    -1.577676000000    -0.958332000000    15.994914619570
      Gh(H)          -1.691050000000    -2.150752000000    -1.657492000000     1.007825032230
      Gh(H)          -2.466734000000    -0.986478000000    -1.244925000000     1.007825032230
      Gh(O)           1.591137000000     0.542267000000     1.515629000000    15.994914619570
      Gh(H)           1.976809000000    -0.291838000000     1.794945000000     1.007825032230
      Gh(H)           2.435743000000     1.172111000000     1.550722000000     1.007825032230
      Gh(O)           0.916176000000    -2.475189000000     0.174402000000    15.994914619570
      Gh(H)           1.088176000000    -2.332722000000     1.102282000000     1.007825032230
      Gh(H)           0.002816000000    -2.742338000000     0.107943000000     1.007825032230
      Gh(O)           1.503194000000     0.599374000000    -1.995198000000    15.994914619570
      Gh(H)           1.887717000000    -0.218723000000    -2.491432000000     1.007825032230
      Gh(H)           1.765947000000     1.338805000000    -2.568431000000     1.007825032230

  Charge       = 1
  Multiplicity = 1
  Basis Set: AUG-CC-PVTZ
    Blend: AUG-CC-PVTZ
  Basis Set: (AUG-CC-PVTZ AUX)
    Blend: AUG-CC-PVTZ-JKFIT + DEF2-UNIVERSAL-JKFIT

    Orbital Energies [Eh]
    ---------------------

    Doubly Occupied:

       1A    -40.760391     2A     -3.073771     3A     -1.797138
       4A     -1.797112     5A     -1.797095

  @DF-RHF Final Energy:  -161.67609335011468

   => Energetics <=

    Nuclear Repulsion Energy =              0.0000000000000000
    One-Electron Energy =                -224.9011755716383050
    Two-Electron Energy =                  63.2250822215236141
    Total Energy =                       -161.6760933501146837
 Dipole X            :         -0.0000181            0.0000000           -0.0000181
 Dipole Y            :         -0.0001259            0.0000000           -0.0001259
 Dipole Z            :         -0.0000425            0.0000000           -0.0000425
 Magnitude           :                                                    0.0001341
  Basis Set: (AUG-CC-PVTZ AUX)
    Blend: AUG-CC-PVTZ-RI + DEF2-QZVPP-RI
	 Reference Energy          =    -161.6760933501146837 [Eh]
	 Singles Energy            =      -0.0000000000000000 [Eh]
	 Same-Spin Energy          =      -0.0070357661133603 [Eh]
	 Opposite-Spin Energy      =      -0.0211864885448187 [Eh]
	 Correlation Energy        =      -0.0282222546581790 [Eh]
	 Total Energy              =    -161.7043156047728587 [Eh]

	 ================> DF-SCS-MP2 Energies <==================
	-----------------------------------------------------------
	 SCS Same-Spin Scale       =       0.3333333333333333 [-]
	 SCS Opposite-Spin Scale   =       1.2000000000000000 [-]
	 SCS Same-Spin Energy      =      -0.0023452553711201 [Eh]
	 SCS Opposite-Spin Energy  =      -0.0254237862537824 [Eh]
	 SCS Correlation Energy    =      -0.0277690416249025 [Eh]
	 SCS Total Energy          =    -161.7038623917395910 [Eh]
	-----------------------------------------------------------

*** Psi4 exiting successfully. Buy a developer a beer!
