                               Psi4 1.8.2 release

  ==> Input File <==

--------------------------------------------------------------------------
MEMORY 60 GB

molecule dimer {
0 1
Gh(Na)     0.000000     0.000000     0.000000
Gh(O)     -0.283701     1.578559     1.887976
Gh(H)      0.085980     1.398434     2.801414
Gh(H)      0.312072     2.205050     1.541846
O         -1.725746    -1.417014     0.457220
H         -2.523655    -1.143003     0.934820
H         -1.900792    -2.355054     0.361742
Gh(O)      1.131277    -1.180347     1.903162
Gh(H)      1.903346    -1.656998     2.213950
Gh(H)      0.798789    -0.647920     2.640386
Gh(O)     -0.883525     1.834306    -1.288208
Gh(H)     -0.936557     2.764670    -0.982975
Gh(H)     -0.954930     2.069278    -2.199800

units ang
no_reorient
no_com
symmetry c1
}

set {
basis        aug-cc-pVTZ
scf_type     df
}

energy("mp2")
--------------------------------------------------------------------------

    Molecular point group: c1

    Geometry (in Angstrom), charge = 0, multiplicity = 1:

       Center              X                  Y                   Z               Mass
    ------------   -----------------  -----------------  -----------------  -----------------
      Gh(NA)          0.000000000000     0.000000000000     0.000000000000    22.989769282000
      Gh(O)          -0.283701000000     1.578559000000     1.887976000000    15.994914619570
      Gh(H)           0.085980000000     1.398434000000     2.801414000000     1.007825032230
      Gh(H)           0.312072000000     2.205050000000     1.541846000000     1.007825032230
         O           -1.725746000000    -1.417014000000     0.457220000000    15.994914619570
         H           -2.523655000000    -1.143003000000     0.934820000000     1.007825032230
         H           -1.900792000000    -2.355054000000     0.361742000000     1.007825032230
      Gh(O)           1.131277000000    -1.180347000000     1.903162000000    15.994914619570
      Gh(H)           1.903346000000    -1.656998000000     2.213950000000     1.007825032230
      Gh(H)           0.798789000000    -0.647920000000     2.640386000000     1.007825032230
      Gh(O)          -0.883525000000     1.834306000000    -1.288208000000    15.994914619570
      Gh(H)          -0.936557000000     2.764670000000    -0.982975000000     1.007825032230
      Gh(H)          -0.954930000000     2.069278000000    -2.199800000000     1.007825032230

  Charge       = 0
  Multiplicity = 1
  Basis Set: AUG-CC-PVTZ
    Blend: AUG-CC-PVTZ
  Basis Set: (AUG-CC-PVTZ AUX)
    Blend: AUG-CC-PVTZ-JKFIT + DEF2-UNIVERSAL-JKFIT

    Orbital Energies [Eh]
    ---------------------

    Doubly Occupied:

       1A    -20.570132     2A     -1.353143     3A     -0.705200
       4A     -0.592199     5A     -0.511016

  @DF-RHF Final Energy:   -76.05935545166992

   => Energetics <=

    Nuclear Repulsion Energy =              9.1391799537769494
    One-Electron Energy =                -122.9336867529063966
    Two-Electron Energy =                  37.7351513474595350
    Total Energy =                        -76.0593554516699157
 Dipole X            :         33.8151982          -34.4504915           -0.6352933
 Dipole Y            :         27.5966574          -28.0325167           -0.4358593
 Dipole Z            :         -9.1133153            9.3623117            0.2489964
 Magnitude           :                                                    0.8096728
  Basis Set: (AUG-CC-PVTZ AUX)
    Blend: AUG-CC-PVTZ-RI + DEF2-QZVPP-RI
	 Reference Energy          =     -76.0593554516699157 [Eh]
	 Singles Energy            =      -0.0000000000000000 [Eh]
	 Same-Spin Energy          =      -0.0686256118454468 [Eh]
	 Opposite-Spin Energy      =      -0.2163700291002977 [Eh]
	 Correlation Energy        =      -0.2849956409457445 [Eh]
	 Total Energy              =     -76.3443510926156534 [Eh]

	 ================> DF-SCS-MP2 Energies <==================
	-----------------------------------------------------------
	 SCS Same-Spin Scale       =       0.3333333333333333 [-]
	 SCS Opposite-Spin Scale   =       1.2000000000000000 [-]
	 SCS Same-Spin Energy      =      -0.0228752039484823 [Eh]
	 SCS Opposite-Spin Energy  =      -0.2596440349203573 [Eh]
	 SCS Correlation Energy    =      -0.2825192388688395 [Eh]
	 SCS Total Energy          =     -76.3418746905387593 [Eh]
	-----------------------------------------------------------

*** Psi4 exiting successfully. Buy a developer a beer!
