                               Psi4 1.8.2 release

  ==> Input File <==

--------------------------------------------------------------------------
MEMORY 60 GB

molecule dimer {
1 1
Na         0.000000     0.000000     0.000000
Gh(O)     -1.365784     1.888773     0.128336
Gh(H)     -1.127056     2.523638    -0.548341
Gh(H)     -2.084338     1.268663    -0.087383
Gh(O)      1.933277     1.190155     1.145330
Gh(H)      2.694356     1.300756     0.519806
Gh(H)      1.814910     2.060976     1.520495
Gh(O)     -0.418772    -0.363065    -2.238699
Gh(H)     -1.093240     0.117831    -2.640346
Gh(H)      0.385868    -0.155367    -2.718085
Gh(O)     -1.360209    -0.721731     1.772667
Gh(H)     -0.830785    -1.124783     2.509665
Gh(H)     -1.649374     0.155797     2.059176
Gh(O)      1.649637    -1.718358    -0.019721
Gh(H)      1.060619    -2.517490    -0.072430
Gh(H)      2.004692    -1.689554    -0.966746

units ang
no_reorient
no_com
symmetry c1
}

set {
basis        aug-cc-pVTZ
scf_type     df
}

energy("mp2")
--------------------------------------------------------------------------

    Molecular point group: c1

    Geometry (in Angstrom), charge = 1, multiplicity = 1:

       Center              X                  Y                   Z               Mass
    ------------   -----------------  -----------------  -----------------  -----------------
         NA           0.000000000000     0.000000000000     0.000000000000    22.989769282000
      Gh(O)          -1.365784000000     1.888773000000     0.128336000000    15.994914619570
      Gh(H)          -1.127056000000     2.523638000000    -0.548341000000     1.007825032230
      Gh(H)          -2.084338000000     1.268663000000    -0.087383000000     1.007825032230
      Gh(O)           1.933277000000     1.190155000000     1.145330000000    15.994914619570
      Gh(H)           2.694356000000     1.300756000000     0.519806000000     1.007825032230
      Gh(H)           1.814910000000     2.060976000000     1.520495000000     1.007825032230
      Gh(O)          -0.418772000000    -0.363065000000    -2.238699000000    15.994914619570
      Gh(H)          -1.093240000000     0.117831000000    -2.640346000000     1.007825032230
      Gh(H)           0.385868000000    -0.155367000000    -2.718085000000     1.007825032230
      Gh(O)          -1.360209000000    -0.721731000000     1.772667000000    15.994914619570
      Gh(H)          -0.830785000000    -1.124783000000     2.509665000000     1.007825032230
      Gh(H)          -1.649374000000     0.155797000000     2.059176000000     1.007825032230
      Gh(O)           1.649637000000    -1.718358000000    -0.019721000000    15.994914619570
      Gh(H)           1.060619000000    -2.517490000000    -0.072430000000     1.007825032230
      Gh(H)           2.004692000000    -1.689554000000    -0.966746000000     1.007825032230

  Charge       = 1
  Multiplicity = 1
  Basis Set: AUG-CC-PVTZ
    Blend: AUG-CC-PVTZ
  Basis Set: (AUG-CC-PVTZ AUX)
    Blend: AUG-CC-PVTZ-JKFIT + DEF2-UNIVERSAL-JKFIT

    Orbital Energies [Eh]
    ---------------------

    Doubly Occupied:

       1A    -40.760371     2A     -3.073772     3A     -1.797136
       4A     -1.797134     5A     -1.797080

  @DF-RHF Final Energy:  -161.67609279418713

   => Energetics <=

    Nuclear Repulsion Energy =              0.0000000000000000
    One-Electron Energy =                -224.9012006011790845
    Two-Electron Energy =                  63.2251078069919643
    Total Energy =                       -161.6760927941871273
 Dipole X            :          0.0000291            0.0000000            0.0000291
 Dipole Y            :          0.0000425            0.0000000            0.0000425
 Dipole Z            :         -0.0000451            0.0000000           -0.0000451
 Magnitude           :                                                    0.0000684
  Basis Set: (AUG-CC-PVTZ AUX)
    Blend: AUG-CC-PVTZ-RI + DEF2-QZVPP-RI
	 Reference Energy          =    -161.6760927941871273 [Eh]
	 Singles Energy            =      -0.0000000000000000 [Eh]
	 Same-Spin Energy          =      -0.0060259654479536 [Eh]
	 Opposite-Spin Energy      =      -0.0186646094808528 [Eh]
	 Correlation Energy        =      -0.0246905749288064 [Eh]
	 Total Energy              =    -161.7007833691159249 [Eh]

	 ================> DF-SCS-MP2 Energies <==================
	-----------------------------------------------------------
	 SCS Same-Spin Scale       =       0.3333333333333333 [-]
	 SCS Opposite-Spin Scale   =       1.2000000000000000 [-]
	 SCS Same-Spin Energy      =      -0.0020086551493179 [Eh]
	 SCS Opposite-Spin Energy  =      -0.0223975313770233 [Eh]
	 SCS Correlation Energy    =      -0.0244061865263412 [Eh]
	 SCS Total Energy          =    -161.7004989807134621 [Eh]
	-----------------------------------------------------------

*** Psi4 exiting successfully. Buy a developer a beer!
