                               Psi4 1.8.2 release

  ==> Input File <==

--------------------------------------------------------------------------
MEMORY 60 GB

molecule dimer {
0 1
Gh(Na)     0.000000     0.000000     0.000000
Gh(O)      0.112621    -1.386806    -1.972606
Gh(H)      0.672583    -1.550070    -2.775900
Gh(H)     -0.603129    -2.048594    -1.903750
Gh(O)      1.852574    -1.386479     0.816134
Gh(H)      2.242350    -2.087796     0.203988
Gh(H)      1.341615    -1.750473     1.542276
Gh(O)     -2.022339     1.221625    -0.636373
Gh(H)     -2.927026     0.757137    -0.600158
Gh(H)     -1.792091     1.337729    -1.566912
Gh(O)     -1.416620    -1.275424     1.492934
Gh(H)     -2.160042    -1.185167     2.079025
Gh(H)     -0.840556    -1.926141     1.953126
O          2.144001     1.442874    -0.647730
H          2.575039     1.174574    -1.498240
H          2.815913     1.315215     0.053847
Gh(O)      0.138862     1.360945     1.935363
Gh(H)      0.721431     2.052917     2.221916
Gh(H)     -0.531806     1.357180     2.629171

units ang
no_reorient
no_com
symmetry c1
}

set {
basis        aug-cc-pVTZ
scf_type     df
}

energy("mp2")
--------------------------------------------------------------------------

    Molecular point group: c1

    Geometry (in Angstrom), charge = 0, multiplicity = 1:

       Center              X                  Y                   Z               Mass
    ------------   -----------------  -----------------  -----------------  -----------------
      Gh(NA)          0.000000000000     0.000000000000     0.000000000000    22.989769282000
      Gh(O)           0.112621000000    -1.386806000000    -1.972606000000    15.994914619570
      Gh(H)           0.672583000000    -1.550070000000    -2.775900000000     1.007825032230
      Gh(H)          -0.603129000000    -2.048594000000    -1.903750000000     1.007825032230
      Gh(O)           1.852574000000    -1.386479000000     0.816134000000    15.994914619570
      Gh(H)           2.242350000000    -2.087796000000     0.203988000000     1.007825032230
      Gh(H)           1.341615000000    -1.750473000000     1.542276000000     1.007825032230
      Gh(O)          -2.022339000000     1.221625000000    -0.636373000000    15.994914619570
      Gh(H)          -2.927026000000     0.757137000000    -0.600158000000     1.007825032230
      Gh(H)          -1.792091000000     1.337729000000    -1.566912000000     1.007825032230
      Gh(O)          -1.416620000000    -1.275424000000     1.492934000000    15.994914619570
      Gh(H)          -2.160042000000    -1.185167000000     2.079025000000     1.007825032230
      Gh(H)          -0.840556000000    -1.926141000000     1.953126000000     1.007825032230
         O            2.144001000000     1.442874000000    -0.647730000000    15.994914619570
         H            2.575039000000     1.174574000000    -1.498240000000     1.007825032230
         H            2.815913000000     1.315215000000     0.053847000000     1.007825032230
      Gh(O)           0.138862000000     1.360945000000     1.935363000000    15.994914619570
      Gh(H)           0.721431000000     2.052917000000     2.221916000000     1.007825032230
      Gh(H)          -0.531806000000     1.357180000000     2.629171000000     1.007825032230

  Charge       = 0
  Multiplicity = 1
  Basis Set: AUG-CC-PVTZ
    Blend: AUG-CC-PVTZ
  Basis Set: (AUG-CC-PVTZ AUX)
    Blend: AUG-CC-PVTZ-JKFIT + DEF2-UNIVERSAL-JKFIT

    Orbital Energies [Eh]
    ---------------------

    Doubly Occupied:

       1A    -20.570968     2A     -1.338320     3A     -0.705975
       4A     -0.575977     5A     -0.507540

  @DF-RHF Final Energy:   -76.05735691389683

   => Energetics <=

    Nuclear Repulsion Energy =              8.9302444679306170
    One-Electron Energy =                -122.5776383501777218
    Two-Electron Energy =                  37.5900369683502902
    Total Energy =                        -76.0573569138968111
 Dipole X            :        -41.8750729           42.6000205            0.7249476
 Dipole Y            :        -26.7778966           26.5181129           -0.2597837
 Dipole Z            :         12.4256065          -12.5217656           -0.0961591
 Magnitude           :                                                    0.7760690
  Basis Set: (AUG-CC-PVTZ AUX)
    Blend: AUG-CC-PVTZ-RI + DEF2-QZVPP-RI
	 Reference Energy          =     -76.0573569138968253 [Eh]
	 Singles Energy            =      -0.0000000000000000 [Eh]
	 Same-Spin Energy          =      -0.0688608788405023 [Eh]
	 Opposite-Spin Energy      =      -0.2171797901286068 [Eh]
	 Correlation Energy        =      -0.2860406689691091 [Eh]
	 Total Energy              =     -76.3433975828659328 [Eh]

	 ================> DF-SCS-MP2 Energies <==================
	-----------------------------------------------------------
	 SCS Same-Spin Scale       =       0.3333333333333333 [-]
	 SCS Opposite-Spin Scale   =       1.2000000000000000 [-]
	 SCS Same-Spin Energy      =      -0.0229536262801674 [Eh]
	 SCS Opposite-Spin Energy  =      -0.2606157481543281 [Eh]
	 SCS Correlation Energy    =      -0.2835693744344956 [Eh]
	 SCS Total Energy          =     -76.3409262883313176 [Eh]
	-----------------------------------------------------------

*** Psi4 exiting successfully. Buy a developer a beer!
