                               Psi4 1.8.2 release

  ==> Input File <==

--------------------------------------------------------------------------
MEMORY 60 GB

molecule dimer {
1 1
Na         0.000000     0.000000     0.000000
O         -1.169214     0.675061    -1.965345
H         -1.806908    -0.031789    -2.222785
H         -1.605764     1.457733    -2.244370
O         -0.030340    -2.107786    -1.084587
H          0.207561    -2.894411    -0.558114
H          0.618974    -2.140900    -1.742073
O          0.692412     0.310337     2.464985
H         -0.299640     0.237282     2.718297
H          1.167970    -0.408106     2.881909
O         -2.120624    -0.497677     1.271846
H         -2.415073     0.222634     1.817307
H         -2.903605    -0.836519     0.750395
O          0.425403     2.480866     0.024064
H          0.339669     3.168213     0.657297
H         -0.465816     2.494236    -0.380434
O          2.583179    -0.496408    -0.190695
H          2.787887    -0.734051    -1.155683
H          2.934192     0.414483    -0.062159

units ang
no_reorient
no_com
symmetry c1
}

set {
basis        aug-cc-pVTZ
scf_type     df
}

energy("mp2")
--------------------------------------------------------------------------

    Molecular point group: c1

    Geometry (in Angstrom), charge = 1, multiplicity = 1:

       Center              X                  Y                   Z               Mass
    ------------   -----------------  -----------------  -----------------  -----------------
         NA           0.000000000000     0.000000000000     0.000000000000    22.989769282000
         O           -1.169214000000     0.675061000000    -1.965345000000    15.994914619570
         H           -1.806908000000    -0.031789000000    -2.222785000000     1.007825032230
         H           -1.605764000000     1.457733000000    -2.244370000000     1.007825032230
         O           -0.030340000000    -2.107786000000    -1.084587000000    15.994914619570
         H            0.207561000000    -2.894411000000    -0.558114000000     1.007825032230
         H            0.618974000000    -2.140900000000    -1.742073000000     1.007825032230
         O            0.692412000000     0.310337000000     2.464985000000    15.994914619570
         H           -0.299640000000     0.237282000000     2.718297000000     1.007825032230
         H            1.167970000000    -0.408106000000     2.881909000000     1.007825032230
         O           -2.120624000000    -0.497677000000     1.271846000000    15.994914619570
         H           -2.415073000000     0.222634000000     1.817307000000     1.007825032230
         H           -2.903605000000    -0.836519000000     0.750395000000     1.007825032230
         O            0.425403000000     2.480866000000     0.024064000000    15.994914619570
         H            0.339669000000     3.168213000000     0.657297000000     1.007825032230
         H           -0.465816000000     2.494236000000    -0.380434000000     1.007825032230
         O            2.583179000000    -0.496408000000    -0.190695000000    15.994914619570
         H            2.787887000000    -0.734051000000    -1.155683000000     1.007825032230
         H            2.934192000000     0.414483000000    -0.062159000000     1.007825032230

  Charge       = 1
  Multiplicity = 1
  Basis Set: AUG-CC-PVTZ
    Blend: AUG-CC-PVTZ
  Basis Set: (AUG-CC-PVTZ AUX)
    Blend: AUG-CC-PVTZ-JKFIT + DEF2-UNIVERSAL-JKFIT

    Orbital Energies [Eh]
    ---------------------

    Doubly Occupied:

       1A    -40.552843     2A    -20.731902     3A    -20.731470
       4A    -20.719451     5A    -20.710929     6A    -20.705979
       7A    -20.702439     8A     -2.873666     9A     -1.598700
      10A     -1.598340    11A     -1.597466    12A     -1.519352
      13A     -1.515774    14A     -1.509276    15A     -1.500141
      16A     -1.469077    17A     -1.466464    18A     -0.883207
      19A     -0.879873    20A     -0.868085    21A     -0.853735
      22A     -0.840328    23A     -0.830544    24A     -0.766393
      25A     -0.755720    26A     -0.747309    27A     -0.740702
      28A     -0.714895    29A     -0.705601    30A     -0.684230
      31A     -0.673029    32A     -0.672253    33A     -0.657012
      34A     -0.644774    35A     -0.640844

  @DF-RHF Final Energy:  -618.14276762420377

   => Energetics <=

    Nuclear Repulsion Energy =            396.9482897864853612
    One-Electron Energy =               -1640.0585029683934408
    Two-Electron Energy =                 624.9674455577041954
    Total Energy =                       -618.1427676242037705
 Dipole X            :         -4.4920072            3.0348529           -1.4571543
 Dipole Y            :         -7.2045699            7.3018054            0.0972354
 Dipole Z            :         -9.1235176            8.7338058           -0.3897118
 Magnitude           :                                                    1.5114988
  Basis Set: (AUG-CC-PVTZ AUX)
    Blend: AUG-CC-PVTZ-RI + DEF2-QZVPP-RI
	 Reference Energy          =    -618.1427676242037705 [Eh]
	 Singles Energy            =      -0.0000000000000000 [Eh]
	 Same-Spin Energy          =      -0.4219550908490181 [Eh]
	 Opposite-Spin Energy      =      -1.3198808087228828 [Eh]
	 Correlation Energy        =      -1.7418358995719010 [Eh]
	 Total Energy              =    -619.8846035237756951 [Eh]

	 ================> DF-SCS-MP2 Energies <==================
	-----------------------------------------------------------
	 SCS Same-Spin Scale       =       0.3333333333333333 [-]
	 SCS Opposite-Spin Scale   =       1.2000000000000000 [-]
	 SCS Same-Spin Energy      =      -0.1406516969496727 [Eh]
	 SCS Opposite-Spin Energy  =      -1.5838569704674594 [Eh]
	 SCS Correlation Energy    =      -1.7245086674171322 [Eh]
	 SCS Total Energy          =    -619.8672762916208967 [Eh]
	-----------------------------------------------------------

*** Psi4 exiting successfully. Buy a developer a beer!
