                               Psi4 1.9 release

  ==> Input File <==

--------------------------------------------------------------------------
MEMORY 60 GB

molecule dimer {
1 1
Na     0.000000     0.000000     0.000000
--
0 1
O      2.161813     1.206626    -0.266700
H      2.702963     0.459594    -0.645875
H      2.788583     1.720992     0.282642
O     -0.556590    -0.575984    -2.179488
H     -1.017472     0.122616    -2.697717
H      0.357469    -0.689631    -2.443771
O      0.229150     0.481834     2.206901
H     -0.313539     1.262282     2.430655
H      0.022652    -0.088819     2.940612
O     -0.111430    -2.057137     0.450586
H     -0.126469    -2.559975    -0.403823
H     -0.555096    -2.521016     1.178518
O     -1.173824     1.990268    -0.285624
H     -1.323983     2.704336    -0.895645
H     -1.221891     2.483177     0.551307

units ang
no_reorient
no_com
symmetry c1
}

set {
basis        aug-cc-pVTZ
scf_type     df
}

energy("mp2", bsse_type="cp")
--------------------------------------------------------------------------

                               Psi4 1.9 release
    Molecular point group: c1
  Charge       = 0
  Multiplicity = 1
  Basis Set: AUG-CC-PVTZ
    Blend: AUG-CC-PVTZ
  Basis Set: (AUG-CC-PVTZ AUX)
    Blend: AUG-CC-PVTZ-JKFIT + DEF2-UNIVERSAL-JKFIT
  @DF-RHF Final Energy:  -380.26472941520035
    Total Energy =                       -380.2647294152003496
 Dipole X            :        -10.6570531           10.7830966            0.1260435
 Dipole Y            :        -20.7553383           21.2753153            0.5199770
 Dipole Z            :          0.8128313           -0.5625658            0.2502655
 Magnitude           :                                                    0.5906741
  Basis Set: (AUG-CC-PVTZ AUX)
    Blend: AUG-CC-PVTZ-RI + DEF2-QZVPP-RI
	 Reference Energy          =    -380.2647294152003496 [Eh]
	 Singles Energy            =      -0.0000000000000000 [Eh]
	 Same-Spin Energy          =      -0.3468935717039815 [Eh]
	 Opposite-Spin Energy      =      -1.0882660033115723 [Eh]
	 Correlation Energy        =      -1.4351595750155539 [Eh]
	 Total Energy              =    -381.6998889902159249 [Eh]
	 SCS Total Energy          =    -381.6862798097422456 [Eh]
                               Psi4 1.9 release
    Molecular point group: c1
  Multiplicity = 1
  Basis Set: AUG-CC-PVTZ
    Blend: AUG-CC-PVTZ
  Basis Set: (AUG-CC-PVTZ AUX)
    Blend: AUG-CC-PVTZ-JKFIT + DEF2-UNIVERSAL-JKFIT
  @DF-RHF Final Energy:  -161.67609361220210
    Total Energy =                       -161.6760936122020951
  Basis Set: (AUG-CC-PVTZ AUX)
	 Singles Energy            =      -0.0000000000000000 [Eh]
	 Same-Spin Energy          =      -0.0068401776458240 [Eh]
	 Opposite-Spin Energy      =      -0.0207719432773730 [Eh]
	 Correlation Energy        =      -0.0276121209231970 [Eh]
	 Total Energy              =    -161.7037057331253038 [Eh]
	 SCS Total Energy          =    -161.7033000033502219 [Eh]
                               Psi4 1.9 release
    Molecular point group: c1

    Geometry (in Bohr), charge = 1, multiplicity = 1:

       Center              X                  Y                   Z               Mass
    ------------   -----------------  -----------------  -----------------  -----------------
         NA           0.000000000000     0.000000000000     0.000000000000    22.989769282000
         O            4.085234504454     2.280192675857    -0.503989957660    15.994914619570
         H            5.107859797246     0.868506788904    -1.220526861280     1.007825032230
         H            5.269658148108     3.252203544104     0.534115971552     1.007825032230
         O           -1.051802664169    -1.088452012646    -4.118635413722    15.994914619570
         H           -1.922743420322     0.231710658599    -5.097946293992     1.007825032230
         H            0.675518508341    -1.303213717626    -4.618057903336     1.007825032230
         O            0.433030741649     0.910534297934     4.170438475999    15.994914619570
         H           -0.592502839650     2.385367273095     4.593272255475     1.007825032230
         H            0.042806076194    -0.167843584737     5.556951321235     1.007825032230
         O           -0.210572182160    -3.887425532546     0.851484135966    15.994914619570
         H           -0.238991773361    -4.837651638019    -0.763114873161     1.007825032230
         H           -1.048979413337    -4.764029797897     2.227076253922     1.007825032230
         O           -2.218205879489     3.761061436263    -0.539751134858    15.994914619570
         H           -2.501965264762     5.110454391216    -1.692523755636     1.007825032230
         H           -2.309039345162     4.692524451036     1.041819241048     1.007825032230

  Charge       = 1
  Multiplicity = 1
  Basis Set: AUG-CC-PVTZ
    Blend: AUG-CC-PVTZ
  Basis Set: (AUG-CC-PVTZ AUX)
    Blend: AUG-CC-PVTZ-JKFIT + DEF2-UNIVERSAL-JKFIT

    Orbital Energies [Eh]
    ---------------------

    Doubly Occupied:

       1A    -40.533549     2A    -20.727014     3A    -20.726756
       4A    -20.723677     5A    -20.723024     6A    -20.715841
       7A     -2.860715     8A     -1.589240     9A     -1.587402
      10A     -1.584901    11A     -1.516263    12A     -1.512951
      13A     -1.503380    14A     -1.497020    15A     -1.484373
      16A     -0.889906    17A     -0.880548    18A     -0.873723
      19A     -0.859355    20A     -0.849073    21A     -0.770389
      22A     -0.762288    23A     -0.740804    24A     -0.733991
      25A     -0.731419    26A     -0.676787    27A     -0.673976
      28A     -0.672470    29A     -0.670176    30A     -0.655552

  @DF-RHF Final Energy:  -542.07822473016688

   => Energetics <=

    Nuclear Repulsion Energy =            311.3187264207384146
    One-Electron Energy =               -1365.3407702692907151
    Two-Electron Energy =                 511.9438191183855338
    Total Energy =                       -542.0782247301667667
 Dipole X            :        -10.6329185           10.7830966            0.1501782
 Dipole Y            :        -20.6597489           21.2753153            0.6155664
 Dipole Z            :          0.8441744           -0.5625658            0.2816086
 Magnitude           :                                                    0.6933822
  Basis Set: (AUG-CC-PVTZ AUX)
    Blend: AUG-CC-PVTZ-RI + DEF2-QZVPP-RI
	 Reference Energy          =    -542.0782247301668804 [Eh]
	 Singles Energy            =      -0.0000000000000000 [Eh]
	 Same-Spin Energy          =      -0.3522843180349529 [Eh]
	 Opposite-Spin Energy      =      -1.1015937171517651 [Eh]
	 Correlation Energy        =      -1.4538780351867180 [Eh]
	 Total Energy              =    -543.5321027653535566 [Eh]

	 ================> DF-SCS-MP2 Energies <==================
	-----------------------------------------------------------
	 SCS Same-Spin Scale       =       0.3333333333333333 [-]
	 SCS Opposite-Spin Scale   =       1.2000000000000000 [-]
	 SCS Same-Spin Energy      =      -0.1174281060116510 [Eh]
	 SCS Opposite-Spin Energy  =      -1.3219124605821182 [Eh]
	 SCS Correlation Energy    =      -1.4393405665937691 [Eh]
	 SCS Total Energy          =    -543.5175652967606084 [Eh]
	-----------------------------------------------------------

*** Psi4 exiting successfully. Buy a developer a beer!
