                               Psi4 1.9 release

  ==> Input File <==

--------------------------------------------------------------------------
MEMORY 60 GB

molecule dimer {
1 1
Na     0.000000     0.000000     0.000000
--
0 1
O     -0.451034    -1.697463     1.269793
H     -1.299480    -1.713730     1.650871
H      0.116268    -2.326969     1.787042
O      2.181291     0.802292     0.600639
H      2.001660     1.202889    -0.254796
H      1.826088     1.341891     1.245008
O     -2.020617     0.591528    -1.382805
H     -2.011262     0.924934    -2.259301
H     -2.600586     1.147604    -0.907925
O      1.106793     1.662868    -1.598105
H      0.664469     2.524075    -1.599745
H      1.116358     1.388905    -2.523674
O     -1.021770     1.888638     1.155341
H     -1.838470     1.688382     1.662850
H     -1.163799     2.645063     0.665315

units ang
no_reorient
no_com
symmetry c1
}

set {
basis        aug-cc-pVTZ
scf_type     df
}

energy("mp2", bsse_type="cp")
--------------------------------------------------------------------------

                               Psi4 1.9 release
    Molecular point group: c1
  Charge       = 0
  Multiplicity = 1
  Basis Set: AUG-CC-PVTZ
    Blend: AUG-CC-PVTZ
  Basis Set: (AUG-CC-PVTZ AUX)
    Blend: AUG-CC-PVTZ-JKFIT + DEF2-UNIVERSAL-JKFIT
  @DF-RHF Final Energy:  -380.27846850428773
    Total Energy =                       -380.2784685042877300
 Dipole X            :          7.1712832           -9.1301173           -1.9588341
 Dipole Y            :        -64.2469284           65.7737093            1.5267808
 Dipole Z            :         -0.3123070           -0.3315543           -0.6438613
 Magnitude           :                                                    2.5656672
  Basis Set: (AUG-CC-PVTZ AUX)
    Blend: AUG-CC-PVTZ-RI + DEF2-QZVPP-RI
	 Reference Energy          =    -380.2784685042877300 [Eh]
	 Singles Energy            =      -0.0000000000000000 [Eh]
	 Same-Spin Energy          =      -0.3459437456825725 [Eh]
	 Opposite-Spin Energy      =      -1.0822215792385954 [Eh]
	 Correlation Energy        =      -1.4281653249211679 [Eh]
	 Total Energy              =    -381.7066338292088972 [Eh]
	 SCS Total Energy          =    -381.6924489812682282 [Eh]
                               Psi4 1.9 release
    Molecular point group: c1
  Multiplicity = 1
  Basis Set: AUG-CC-PVTZ
    Blend: AUG-CC-PVTZ
  Basis Set: (AUG-CC-PVTZ AUX)
    Blend: AUG-CC-PVTZ-JKFIT + DEF2-UNIVERSAL-JKFIT
  @DF-RHF Final Energy:  -161.67609100391928
    Total Energy =                       -161.6760910039192822
  Basis Set: (AUG-CC-PVTZ AUX)
	 Singles Energy            =      -0.0000000000000000 [Eh]
	 Same-Spin Energy          =      -0.0062114101148292 [Eh]
	 Opposite-Spin Energy      =      -0.0191713672354108 [Eh]
	 Correlation Energy        =      -0.0253827773502400 [Eh]
	 Total Energy              =    -161.7014737812695273 [Eh]
	 SCS Total Energy          =    -161.7011671146400431 [Eh]
                               Psi4 1.9 release
    Molecular point group: c1

    Geometry (in Bohr), charge = 1, multiplicity = 1:

       Center              X                  Y                   Z               Mass
    ------------   -----------------  -----------------  -----------------  -----------------
         NA           0.000000000000     0.000000000000     0.000000000000    22.989769282000
         O           -0.852330733270    -3.207740178098     2.399561006023    15.994914619570
         H           -2.455661305510    -3.238480352981     3.119694058461     1.007825032230
         H            0.219714677155    -4.397334112430     3.377019954690     1.007825032230
         O            4.122042589926     1.516112152646     1.135043210269    15.994914619570
         H            3.782589196284     2.273130769326    -0.481494657862     1.007825032230
         H            3.450806200985     2.535806480217     2.352724144004     1.007825032230
         O           -3.818412734444     1.117825915540    -2.613122734914    15.994914619570
         H           -3.800734346541     1.747871944124    -4.269460124973     1.007825032230
         H           -4.914395305700     2.168657260480    -1.715729592456     1.007825032230
         O            2.091535647574     3.142365102788    -3.019980769725    15.994914619570
         H            1.255664428857     4.769810470115    -3.023079920571     1.007825032230
         H            2.109610877964     2.624650064279    -4.769052689939     1.007825032230
         O           -1.930865463209     3.569008570132     2.183278071513    15.994914619570
         H           -3.474204789870     3.190579575153     3.142331087718     1.007825032230
         H           -2.199261375082     4.998444654582     1.257263137159     1.007825032230

  Charge       = 1
  Multiplicity = 1
  Basis Set: AUG-CC-PVTZ
    Blend: AUG-CC-PVTZ
  Basis Set: (AUG-CC-PVTZ AUX)
    Blend: AUG-CC-PVTZ-JKFIT + DEF2-UNIVERSAL-JKFIT

    Orbital Energies [Eh]
    ---------------------

    Doubly Occupied:

       1A    -40.567579     2A    -20.754871     3A    -20.740541
       4A    -20.730410     5A    -20.729716     6A    -20.674487
       7A     -2.890843     8A     -1.617612     9A     -1.615497
      10A     -1.614561    11A     -1.544554    12A     -1.538685
      13A     -1.533144    14A     -1.517919    15A     -1.484248
      16A     -0.911692    17A     -0.903506    18A     -0.901982
      19A     -0.887810    20A     -0.881041    21A     -0.782792
      22A     -0.770316    23A     -0.763378    24A     -0.762234
      25A     -0.714759    26A     -0.698556    27A     -0.689937
      28A     -0.680396    29A     -0.674830    30A     -0.636390

  @DF-RHF Final Energy:  -542.07703849598295

   => Energetics <=

    Nuclear Repulsion Energy =            309.9418177690933476
    One-Electron Energy =               -1361.6091403828932016
    Two-Electron Energy =                 509.5902841178168501
    Total Energy =                       -542.0770384959829471
 Dipole X            :          7.0897926           -9.1301173           -2.0403247
 Dipole Y            :        -63.9467488           65.7737093            1.8269605
 Dipole Z            :         -0.2362729           -0.3315543           -0.5678273
 Magnitude           :                                                    2.7969872
  Basis Set: (AUG-CC-PVTZ AUX)
    Blend: AUG-CC-PVTZ-RI + DEF2-QZVPP-RI
	 Reference Energy          =    -542.0770384959829471 [Eh]
	 Singles Energy            =      -0.0000000000000000 [Eh]
	 Same-Spin Energy          =      -0.3513055715513532 [Eh]
	 Opposite-Spin Energy      =      -1.0962562763730808 [Eh]
	 Correlation Energy        =      -1.4475618479244339 [Eh]
	 Total Energy              =    -543.5246003439074229 [Eh]

	 ================> DF-SCS-MP2 Energies <==================
	-----------------------------------------------------------
	 SCS Same-Spin Scale       =       0.3333333333333333 [-]
	 SCS Opposite-Spin Scale   =       1.2000000000000000 [-]
	 SCS Same-Spin Energy      =      -0.1171018571837844 [Eh]
	 SCS Opposite-Spin Energy  =      -1.3155075316476970 [Eh]
	 SCS Correlation Energy    =      -1.4326093888314813 [Eh]
	 SCS Total Energy          =    -543.5096478848143988 [Eh]
	-----------------------------------------------------------

*** Psi4 exiting successfully. Buy a developer a beer!
