                               Psi4 1.8.2 release

  ==> Input File <==

--------------------------------------------------------------------------
MEMORY 60 GB

molecule dimer {
0 1
Gh(Na)     0.000000     0.000000     0.000000
Gh(O)     -1.453265    -0.927157     1.825285
Gh(H)     -2.100322    -0.255926     1.972817
Gh(H)     -1.935961    -1.746795     1.593913
Gh(O)      0.533351     1.207339     2.078428
Gh(H)      0.369434     2.123890     2.057849
Gh(H)      1.328925     0.987573     2.532613
Gh(O)      1.651761    -1.445261     0.090473
Gh(H)      2.214791    -1.702771     0.905964
Gh(H)      1.533721    -2.215695    -0.565653
Gh(O)     -2.231746     0.829196    -0.427680
Gh(H)     -2.770376     0.788932    -1.214090
Gh(H)     -2.790229     0.419292     0.320234
O          0.777575     1.636496    -1.467094
H          0.243066     2.358069    -1.870836
H          1.727867     1.770498    -1.676592

units ang
no_reorient
no_com
symmetry c1
}

set {
basis        aug-cc-pVTZ
scf_type     df
}

energy("mp2")
--------------------------------------------------------------------------

    Molecular point group: c1

    Geometry (in Angstrom), charge = 0, multiplicity = 1:

       Center              X                  Y                   Z               Mass
    ------------   -----------------  -----------------  -----------------  -----------------
      Gh(NA)          0.000000000000     0.000000000000     0.000000000000    22.989769282000
      Gh(O)          -1.453265000000    -0.927157000000     1.825285000000    15.994914619570
      Gh(H)          -2.100322000000    -0.255926000000     1.972817000000     1.007825032230
      Gh(H)          -1.935961000000    -1.746795000000     1.593913000000     1.007825032230
      Gh(O)           0.533351000000     1.207339000000     2.078428000000    15.994914619570
      Gh(H)           0.369434000000     2.123890000000     2.057849000000     1.007825032230
      Gh(H)           1.328925000000     0.987573000000     2.532613000000     1.007825032230
      Gh(O)           1.651761000000    -1.445261000000     0.090473000000    15.994914619570
      Gh(H)           2.214791000000    -1.702771000000     0.905964000000     1.007825032230
      Gh(H)           1.533721000000    -2.215695000000    -0.565653000000     1.007825032230
      Gh(O)          -2.231746000000     0.829196000000    -0.427680000000    15.994914619570
      Gh(H)          -2.770376000000     0.788932000000    -1.214090000000     1.007825032230
      Gh(H)          -2.790229000000     0.419292000000     0.320234000000     1.007825032230
         O            0.777575000000     1.636496000000    -1.467094000000    15.994914619570
         H            0.243066000000     2.358069000000    -1.870836000000     1.007825032230
         H            1.727867000000     1.770498000000    -1.676592000000     1.007825032230

  Charge       = 0
  Multiplicity = 1
  Basis Set: AUG-CC-PVTZ
    Blend: AUG-CC-PVTZ
  Basis Set: (AUG-CC-PVTZ AUX)
    Blend: AUG-CC-PVTZ-JKFIT + DEF2-UNIVERSAL-JKFIT

    Orbital Energies [Eh]
    ---------------------

    Doubly Occupied:

       1A    -20.569063     2A     -1.336873     3A     -0.712878
       4A     -0.569830     5A     -0.506541

  @DF-RHF Final Energy:   -76.05712411977581

   => Energetics <=

    Nuclear Repulsion Energy =              8.9384637937200360
    One-Electron Energy =                -122.6008017857604386
    Two-Electron Energy =                  37.6052138722645921
    Total Energy =                        -76.0571241197758070
 Dipole X            :        -15.2031348           15.4797539            0.2766191
 Dipole Y            :        -31.9735600           32.5420949            0.5685349
 Dipole Z            :         28.4753235          -28.8829143           -0.4075908
 Magnitude           :                                                    0.7522502
  Basis Set: (AUG-CC-PVTZ AUX)
    Blend: AUG-CC-PVTZ-RI + DEF2-QZVPP-RI
	 Reference Energy          =     -76.0571241197758070 [Eh]
	 Singles Energy            =      -0.0000000000000000 [Eh]
	 Same-Spin Energy          =      -0.0687813339370928 [Eh]
	 Opposite-Spin Energy      =      -0.2169129765460528 [Eh]
	 Correlation Energy        =      -0.2856943104831455 [Eh]
	 Total Energy              =     -76.3428184302589585 [Eh]

	 ================> DF-SCS-MP2 Energies <==================
	-----------------------------------------------------------
	 SCS Same-Spin Scale       =       0.3333333333333333 [-]
	 SCS Opposite-Spin Scale   =       1.2000000000000000 [-]
	 SCS Same-Spin Energy      =      -0.0229271113123643 [Eh]
	 SCS Opposite-Spin Energy  =      -0.2602955718552633 [Eh]
	 SCS Correlation Energy    =      -0.2832226831676276 [Eh]
	 SCS Total Energy          =     -76.3403468029434293 [Eh]
	-----------------------------------------------------------

*** Psi4 exiting successfully. Buy a developer a beer!
