                               Psi4 1.8.2 release

  ==> Input File <==

--------------------------------------------------------------------------
MEMORY 60 GB

molecule dimer {
0 1
Gh(Na)     0.000000     0.000000     0.000000
Gh(O)     -0.846206     1.202595     1.854346
Gh(H)     -1.394373     1.995479     2.024959
Gh(H)     -0.648149     0.790331     2.691139
O         -1.309742     1.323778    -1.628410
H         -1.163522     2.267977    -1.422263
H         -1.147540     1.263131    -2.577035
Gh(O)      1.237480    -1.823391     0.446021
Gh(H)      0.963790    -2.734554     0.597322
Gh(H)      2.174011    -1.658736     0.605497
Gh(O)     -1.574568    -1.883367    -0.384367
Gh(H)     -1.498784    -2.289933    -1.277612
Gh(H)     -2.507560    -1.716692    -0.387422

units ang
no_reorient
no_com
symmetry c1
}

set {
basis        aug-cc-pVTZ
scf_type     df
}

energy("mp2")
--------------------------------------------------------------------------

    Molecular point group: c1

    Geometry (in Angstrom), charge = 0, multiplicity = 1:

       Center              X                  Y                   Z               Mass
    ------------   -----------------  -----------------  -----------------  -----------------
      Gh(NA)          0.000000000000     0.000000000000     0.000000000000    22.989769282000
      Gh(O)          -0.846206000000     1.202595000000     1.854346000000    15.994914619570
      Gh(H)          -1.394373000000     1.995479000000     2.024959000000     1.007825032230
      Gh(H)          -0.648149000000     0.790331000000     2.691139000000     1.007825032230
         O           -1.309742000000     1.323778000000    -1.628410000000    15.994914619570
         H           -1.163522000000     2.267977000000    -1.422263000000     1.007825032230
         H           -1.147540000000     1.263131000000    -2.577035000000     1.007825032230
      Gh(O)           1.237480000000    -1.823391000000     0.446021000000    15.994914619570
      Gh(H)           0.963790000000    -2.734554000000     0.597322000000     1.007825032230
      Gh(H)           2.174011000000    -1.658736000000     0.605497000000     1.007825032230
      Gh(O)          -1.574568000000    -1.883367000000    -0.384367000000    15.994914619570
      Gh(H)          -1.498784000000    -2.289933000000    -1.277612000000     1.007825032230
      Gh(H)          -2.507560000000    -1.716692000000    -0.387422000000     1.007825032230

  Charge       = 0
  Multiplicity = 1
  Basis Set: AUG-CC-PVTZ
    Blend: AUG-CC-PVTZ
  Basis Set: (AUG-CC-PVTZ AUX)
    Blend: AUG-CC-PVTZ-JKFIT + DEF2-UNIVERSAL-JKFIT

    Orbital Energies [Eh]
    ---------------------

    Doubly Occupied:

       1A    -20.569574     2A     -1.346896     3A     -0.709480
       4A     -0.583083     5A     -0.509354

  @DF-RHF Final Energy:   -76.05937392655586

   => Energetics <=

    Nuclear Repulsion Energy =              9.0669465986305173
    One-Electron Energy =                -122.8158628430701640
    Two-Electron Energy =                  37.6895423178837774
    Total Energy =                        -76.0593739265558639
 Dipole X            :         24.3704302          -24.1677036            0.2027265
 Dipole Y            :        -26.1052101           26.6854500            0.5802399
 Dipole Z            :         31.6849291          -32.1755693           -0.4906401
 Magnitude           :                                                    0.7864504
  Basis Set: (AUG-CC-PVTZ AUX)
    Blend: AUG-CC-PVTZ-RI + DEF2-QZVPP-RI
	 Reference Energy          =     -76.0593739265558639 [Eh]
	 Singles Energy            =      -0.0000000000000000 [Eh]
	 Same-Spin Energy          =      -0.0686396191868687 [Eh]
	 Opposite-Spin Energy      =      -0.2163881375010041 [Eh]
	 Correlation Energy        =      -0.2850277566878728 [Eh]
	 Total Energy              =     -76.3444016832437313 [Eh]

	 ================> DF-SCS-MP2 Energies <==================
	-----------------------------------------------------------
	 SCS Same-Spin Scale       =       0.3333333333333333 [-]
	 SCS Opposite-Spin Scale   =       1.2000000000000000 [-]
	 SCS Same-Spin Energy      =      -0.0228798730622896 [Eh]
	 SCS Opposite-Spin Energy  =      -0.2596657650012050 [Eh]
	 SCS Correlation Energy    =      -0.2825456380634945 [Eh]
	 SCS Total Energy          =     -76.3419195646193600 [Eh]
	-----------------------------------------------------------

*** Psi4 exiting successfully. Buy a developer a beer!
