                               Psi4 1.8.2 release

  ==> Input File <==

--------------------------------------------------------------------------
MEMORY 60 GB

molecule dimer {
1 1
Na         0.000000     0.000000     0.000000
Gh(O)     -0.283701     1.578559     1.887976
Gh(H)      0.085980     1.398434     2.801414
Gh(H)      0.312072     2.205050     1.541846
Gh(O)     -1.725746    -1.417014     0.457220
Gh(H)     -2.523655    -1.143003     0.934820
Gh(H)     -1.900792    -2.355054     0.361742
Gh(O)      1.131277    -1.180347     1.903162
Gh(H)      1.903346    -1.656998     2.213950
Gh(H)      0.798789    -0.647920     2.640386
Gh(O)     -0.883525     1.834306    -1.288208
Gh(H)     -0.936557     2.764670    -0.982975
Gh(H)     -0.954930     2.069278    -2.199800

units ang
no_reorient
no_com
symmetry c1
}

set {
basis        aug-cc-pVTZ
scf_type     df
}

energy("mp2")
--------------------------------------------------------------------------

    Molecular point group: c1

    Geometry (in Angstrom), charge = 1, multiplicity = 1:

       Center              X                  Y                   Z               Mass
    ------------   -----------------  -----------------  -----------------  -----------------
         NA           0.000000000000     0.000000000000     0.000000000000    22.989769282000
      Gh(O)          -0.283701000000     1.578559000000     1.887976000000    15.994914619570
      Gh(H)           0.085980000000     1.398434000000     2.801414000000     1.007825032230
      Gh(H)           0.312072000000     2.205050000000     1.541846000000     1.007825032230
      Gh(O)          -1.725746000000    -1.417014000000     0.457220000000    15.994914619570
      Gh(H)          -2.523655000000    -1.143003000000     0.934820000000     1.007825032230
      Gh(H)          -1.900792000000    -2.355054000000     0.361742000000     1.007825032230
      Gh(O)           1.131277000000    -1.180347000000     1.903162000000    15.994914619570
      Gh(H)           1.903346000000    -1.656998000000     2.213950000000     1.007825032230
      Gh(H)           0.798789000000    -0.647920000000     2.640386000000     1.007825032230
      Gh(O)          -0.883525000000     1.834306000000    -1.288208000000    15.994914619570
      Gh(H)          -0.936557000000     2.764670000000    -0.982975000000     1.007825032230
      Gh(H)          -0.954930000000     2.069278000000    -2.199800000000     1.007825032230

  Charge       = 1
  Multiplicity = 1
  Basis Set: AUG-CC-PVTZ
    Blend: AUG-CC-PVTZ
  Basis Set: (AUG-CC-PVTZ AUX)
    Blend: AUG-CC-PVTZ-JKFIT + DEF2-UNIVERSAL-JKFIT

    Orbital Energies [Eh]
    ---------------------

    Doubly Occupied:

       1A    -40.760833     2A     -3.073980     3A     -1.797326
       4A     -1.797307     5A     -1.797254

  @DF-RHF Final Energy:  -161.67608227630819

   => Energetics <=

    Nuclear Repulsion Energy =              0.0000000000000000
    One-Electron Energy =                -224.8987651808185149
    Two-Electron Energy =                  63.2226829045103216
    Total Energy =                       -161.6760822763081933
 Dipole X            :         -0.0000311            0.0000000           -0.0000311
 Dipole Y            :          0.0001023            0.0000000            0.0001023
 Dipole Z            :          0.0002337            0.0000000            0.0002337
 Magnitude           :                                                    0.0002570
  Basis Set: (AUG-CC-PVTZ AUX)
    Blend: AUG-CC-PVTZ-RI + DEF2-QZVPP-RI
	 Reference Energy          =    -161.6760822763081933 [Eh]
	 Singles Energy            =      -0.0000000000000000 [Eh]
	 Same-Spin Energy          =      -0.0051171120306458 [Eh]
	 Opposite-Spin Energy      =      -0.0162637491249460 [Eh]
	 Correlation Energy        =      -0.0213808611555919 [Eh]
	 Total Energy              =    -161.6974631374637852 [Eh]

	 ================> DF-SCS-MP2 Energies <==================
	-----------------------------------------------------------
	 SCS Same-Spin Scale       =       0.3333333333333333 [-]
	 SCS Opposite-Spin Scale   =       1.2000000000000000 [-]
	 SCS Same-Spin Energy      =      -0.0017057040102153 [Eh]
	 SCS Opposite-Spin Energy  =      -0.0195164989499352 [Eh]
	 SCS Correlation Energy    =      -0.0212222029601505 [Eh]
	 SCS Total Energy          =    -161.6973044792683538 [Eh]
	-----------------------------------------------------------

*** Psi4 exiting successfully. Buy a developer a beer!
