                               Psi4 1.9 release

  ==> Input File <==

--------------------------------------------------------------------------
MEMORY 60 GB

molecule dimer {
1 1
Na     0.000000     0.000000     0.000000
--
0 1
O      1.371989     0.328574     1.684326
H      0.873769     0.178210     2.485652
H      1.644220     1.255675     1.693557
O      1.274054     1.156590    -1.522421
H      2.143789     0.686938    -1.689336
H      1.589642     1.858926    -0.865452
O     -0.454922    -1.892188     1.128252
H     -0.218035    -2.740225     0.777085
H     -1.339420    -1.998303     1.395279
O     -2.133645    -0.099464    -1.426698
H     -2.740263    -0.005265    -0.688170
H     -2.763796     0.016320    -2.131063
O     -1.451092     1.948369     0.243257
H     -0.996390     2.756909     0.501988
H     -2.021890     2.166962    -0.562477

units ang
no_reorient
no_com
symmetry c1
}

set {
basis        aug-cc-pVTZ
scf_type     df
}

energy("mp2", bsse_type="cp")
--------------------------------------------------------------------------

                               Psi4 1.9 release
    Molecular point group: c1
  Charge       = 0
  Multiplicity = 1
  Basis Set: AUG-CC-PVTZ
    Blend: AUG-CC-PVTZ
  Basis Set: (AUG-CC-PVTZ AUX)
    Blend: AUG-CC-PVTZ-JKFIT + DEF2-UNIVERSAL-JKFIT
  @DF-RHF Final Energy:  -380.26686480715728
    Total Energy =                       -380.2668648071572761
 Dipole X            :         27.6069959          -28.3029989           -0.6960029
 Dipole Y            :        -29.0218219           29.6898557            0.6680338
 Dipole Z            :         -2.9662555            3.3463100            0.3800545
 Magnitude           :                                                    1.0368850
  Basis Set: (AUG-CC-PVTZ AUX)
    Blend: AUG-CC-PVTZ-RI + DEF2-QZVPP-RI
	 Reference Energy          =    -380.2668648071572761 [Eh]
	 Singles Energy            =      -0.0000000000000000 [Eh]
	 Same-Spin Energy          =      -0.3473335013357821 [Eh]
	 Opposite-Spin Energy      =      -1.0886956628653193 [Eh]
	 Correlation Energy        =      -1.4360291642011014 [Eh]
	 Total Energy              =    -381.7028939713583782 [Eh]
	 SCS Total Energy          =    -381.6890774363742480 [Eh]
                               Psi4 1.9 release
    Molecular point group: c1
  Multiplicity = 1
  Basis Set: AUG-CC-PVTZ
    Blend: AUG-CC-PVTZ
  Basis Set: (AUG-CC-PVTZ AUX)
    Blend: AUG-CC-PVTZ-JKFIT + DEF2-UNIVERSAL-JKFIT
  @DF-RHF Final Energy:  -161.67609317882435
    Total Energy =                       -161.6760931788243454
  Basis Set: (AUG-CC-PVTZ AUX)
	 Singles Energy            =      -0.0000000000000000 [Eh]
	 Same-Spin Energy          =      -0.0063816331664408 [Eh]
	 Opposite-Spin Energy      =      -0.0195763878795856 [Eh]
	 Correlation Energy        =      -0.0259580210460264 [Eh]
	 Total Energy              =    -161.7020511998703682 [Eh]
	 SCS Total Energy          =    -161.7017120553353209 [Eh]
                               Psi4 1.9 release
    Molecular point group: c1

    Geometry (in Bohr), charge = 1, multiplicity = 1:

       Center              X                  Y                   Z               Mass
    ------------   -----------------  -----------------  -----------------  -----------------
         NA           0.000000000000     0.000000000000     0.000000000000    22.989769282000
         O            2.592683457141     0.620914871946     3.182914845988    15.994914619570
         H            1.651184106915     0.336768092818     4.697201523197     1.007825032230
         H            3.107125490000     2.372881852584     3.200358907852     1.007825032230
         O            2.407613129044     2.185638339443    -2.876958737646    15.994914619570
         H            4.051174080769     1.298124685170    -3.192382373876     1.007825032230
         H            3.003988017525     3.512861027493    -1.635467254730     1.007825032230
         O           -0.859677988446    -3.575717097878     2.132087280500    15.994914619570
         H           -0.412026435764    -5.178274772133     1.468477826201     1.007825032230
         H           -2.531136966961    -3.776245385681     2.636695178603     1.007825032230
         O           -4.032004698952    -0.187959719343    -2.696068483738    15.994914619570
         H           -5.178346581725    -0.009949408051    -1.300452827756     1.007825032230
         H           -5.222817506636     0.030840330367    -4.027125426097     1.007825032230
         O           -2.742166462843     3.681883801332     0.459689108100    15.994914619570
         H           -1.882904214145     5.209802962810     0.948619838266     1.007825032230
         H           -3.820818355802     4.094964704274    -1.062927481869     1.007825032230

  Charge       = 1
  Multiplicity = 1
  Basis Set: AUG-CC-PVTZ
    Blend: AUG-CC-PVTZ
  Basis Set: (AUG-CC-PVTZ AUX)
    Blend: AUG-CC-PVTZ-JKFIT + DEF2-UNIVERSAL-JKFIT

    Orbital Energies [Eh]
    ---------------------

    Doubly Occupied:

       1A    -40.548504     2A    -20.736409     3A    -20.730543
       4A    -20.726628     5A    -20.726522     6A    -20.717201
       7A     -2.874267     8A     -1.601193     9A     -1.600385
      10A     -1.598847    11A     -1.529979    12A     -1.518244
      13A     -1.512052    14A     -1.496499    15A     -1.494963
      16A     -0.892822    17A     -0.889053    18A     -0.874825
      19A     -0.850691    20A     -0.843576    21A     -0.774367
      22A     -0.759315    23A     -0.751130    24A     -0.748604
      25A     -0.741674    26A     -0.686597    27A     -0.684119
      28A     -0.675762    29A     -0.672801    30A     -0.658152

  @DF-RHF Final Energy:  -542.07281287571459

   => Energetics <=

    Nuclear Repulsion Energy =            310.3152838133089517
    One-Electron Energy =               -1362.9447410003413097
    Two-Electron Energy =                 510.5566443113178252
    Total Energy =                       -542.0728128757145896
 Dipole X            :         27.5125521          -28.3029989           -0.7904468
 Dipole Y            :        -28.8376030           29.6898557            0.8522526
 Dipole Z            :         -2.9063107            3.3463100            0.4399993
 Magnitude           :                                                    1.2428757
  Basis Set: (AUG-CC-PVTZ AUX)
    Blend: AUG-CC-PVTZ-RI + DEF2-QZVPP-RI
	 Reference Energy          =    -542.0728128757145896 [Eh]
	 Singles Energy            =      -0.0000000000000000 [Eh]
	 Same-Spin Energy          =      -0.3525215851728308 [Eh]
	 Opposite-Spin Energy      =      -1.1017350611662444 [Eh]
	 Correlation Energy        =      -1.4542566463390751 [Eh]
	 Total Energy              =    -543.5270695220536936 [Eh]

	 ================> DF-SCS-MP2 Energies <==================
	-----------------------------------------------------------
	 SCS Same-Spin Scale       =       0.3333333333333333 [-]
	 SCS Opposite-Spin Scale   =       1.2000000000000000 [-]
	 SCS Same-Spin Energy      =      -0.1175071950576103 [Eh]
	 SCS Opposite-Spin Energy  =      -1.3220820733994934 [Eh]
	 SCS Correlation Energy    =      -1.4395892684571037 [Eh]
	 SCS Total Energy          =    -543.5124021441716877 [Eh]
	-----------------------------------------------------------

*** Psi4 exiting successfully. Buy a developer a beer!
