                               Psi4 1.8.2 release

  ==> Input File <==

--------------------------------------------------------------------------
MEMORY 60 GB

molecule dimer {
0 1
Gh(Na)     0.000000     0.000000     0.000000
Gh(O)     -0.193331     2.133012     0.051126
Gh(H)      0.653992     2.486181    -0.227094
Gh(H)     -0.472516     2.846712     0.650011
Gh(O)      0.288803    -2.322357    -0.174914
Gh(H)     -0.642727    -2.354494    -0.182470
Gh(H)      0.543217    -2.550000    -1.066325
O         -0.773660    -0.489796     2.272680
H         -0.543862     0.115681     2.979151
H         -0.362466    -1.237847     2.655977
Gh(O)     -1.896119    -0.066378    -1.470424
Gh(H)     -2.170950     0.762265    -1.877462
Gh(H)     -2.621122    -0.681651    -1.551543
Gh(O)      1.464272     0.251391    -1.866281
Gh(H)      2.258159     0.208517    -1.354089
Gh(H)      1.592895    -0.381460    -2.532995

units ang
no_reorient
no_com
symmetry c1
}

set {
basis        aug-cc-pVTZ
scf_type     df
}

energy("mp2")
--------------------------------------------------------------------------

    Molecular point group: c1

    Geometry (in Angstrom), charge = 0, multiplicity = 1:

       Center              X                  Y                   Z               Mass
    ------------   -----------------  -----------------  -----------------  -----------------
      Gh(NA)          0.000000000000     0.000000000000     0.000000000000    22.989769282000
      Gh(O)          -0.193331000000     2.133012000000     0.051126000000    15.994914619570
      Gh(H)           0.653992000000     2.486181000000    -0.227094000000     1.007825032230
      Gh(H)          -0.472516000000     2.846712000000     0.650011000000     1.007825032230
      Gh(O)           0.288803000000    -2.322357000000    -0.174914000000    15.994914619570
      Gh(H)          -0.642727000000    -2.354494000000    -0.182470000000     1.007825032230
      Gh(H)           0.543217000000    -2.550000000000    -1.066325000000     1.007825032230
         O           -0.773660000000    -0.489796000000     2.272680000000    15.994914619570
         H           -0.543862000000     0.115681000000     2.979151000000     1.007825032230
         H           -0.362466000000    -1.237847000000     2.655977000000     1.007825032230
      Gh(O)          -1.896119000000    -0.066378000000    -1.470424000000    15.994914619570
      Gh(H)          -2.170950000000     0.762265000000    -1.877462000000     1.007825032230
      Gh(H)          -2.621122000000    -0.681651000000    -1.551543000000     1.007825032230
      Gh(O)           1.464272000000     0.251391000000    -1.866281000000    15.994914619570
      Gh(H)           2.258159000000     0.208517000000    -1.354089000000     1.007825032230
      Gh(H)           1.592895000000    -0.381460000000    -2.532995000000     1.007825032230

  Charge       = 0
  Multiplicity = 1
  Basis Set: AUG-CC-PVTZ
    Blend: AUG-CC-PVTZ
  Basis Set: (AUG-CC-PVTZ AUX)
    Blend: AUG-CC-PVTZ-JKFIT + DEF2-UNIVERSAL-JKFIT

    Orbital Energies [Eh]
    ---------------------

    Doubly Occupied:

       1A    -20.568683     2A     -1.365897     3A     -0.704670
       4A     -0.604510     5A     -0.513670

  @DF-RHF Final Energy:   -76.05792417497040

   => Energetics <=

    Nuclear Repulsion Energy =              9.3185230852285983
    One-Electron Energy =                -123.2380328693155747
    Two-Electron Energy =                  37.8615856091166023
    Total Energy =                        -76.0579241749703812
 Dipole X            :         13.8277346          -13.4087558            0.4189787
 Dipole Y            :          9.4273863           -9.5252288           -0.0978425
 Dipole Z            :        -44.2961211           45.0067908            0.7106697
 Magnitude           :                                                    0.8307633
  Basis Set: (AUG-CC-PVTZ AUX)
    Blend: AUG-CC-PVTZ-RI + DEF2-QZVPP-RI
	 Reference Energy          =     -76.0579241749703954 [Eh]
	 Singles Energy            =      -0.0000000000000000 [Eh]
	 Same-Spin Energy          =      -0.0684858128151365 [Eh]
	 Opposite-Spin Energy      =      -0.2158449540332859 [Eh]
	 Correlation Energy        =      -0.2843307668484225 [Eh]
	 Total Energy              =     -76.3422549418188225 [Eh]

	 ================> DF-SCS-MP2 Energies <==================
	-----------------------------------------------------------
	 SCS Same-Spin Scale       =       0.3333333333333333 [-]
	 SCS Opposite-Spin Scale   =       1.2000000000000000 [-]
	 SCS Same-Spin Energy      =      -0.0228286042717122 [Eh]
	 SCS Opposite-Spin Energy  =      -0.2590139448399431 [Eh]
	 SCS Correlation Energy    =      -0.2818425491116552 [Eh]
	 SCS Total Energy          =     -76.3397667240820539 [Eh]
	-----------------------------------------------------------

*** Psi4 exiting successfully. Buy a developer a beer!
