                               Psi4 1.8.2 release

  ==> Input File <==

--------------------------------------------------------------------------
MEMORY 60 GB

molecule dimer {
0 1
Gh(Na)     0.000000     0.000000     0.000000
Gh(O)      1.953031     0.831091     0.860219
Gh(H)      2.066769     1.791772     0.968498
Gh(H)      2.719642     0.442245     0.453626
Gh(O)      0.997390    -1.806691    -0.823923
Gh(H)      0.719927    -2.694832    -0.590439
Gh(H)      1.062663    -1.693952    -1.760597
Gh(O)     -2.359813    -0.522401    -0.218748
Gh(H)     -3.107352    -1.043213     0.090344
Gh(H)     -2.840960     0.185888    -0.550284
Gh(O)     -1.307455     1.999734     0.923894
Gh(H)     -2.152987     2.044750     1.490236
Gh(H)     -1.483833     2.732670     0.295877
Gh(O)     -0.718067     0.947143    -2.169991
Gh(H)     -1.389460     1.635350    -2.029136
Gh(H)      0.120162     1.348159    -2.406870
O         -0.441223    -1.492378     2.010603
H          0.380909    -1.895708     2.175635
H         -0.383827    -0.728813     2.596321

units ang
no_reorient
no_com
symmetry c1
}

set {
basis        aug-cc-pVTZ
scf_type     df
}

energy("mp2")
--------------------------------------------------------------------------

    Molecular point group: c1

    Geometry (in Angstrom), charge = 0, multiplicity = 1:

       Center              X                  Y                   Z               Mass
    ------------   -----------------  -----------------  -----------------  -----------------
      Gh(NA)          0.000000000000     0.000000000000     0.000000000000    22.989769282000
      Gh(O)           1.953031000000     0.831091000000     0.860219000000    15.994914619570
      Gh(H)           2.066769000000     1.791772000000     0.968498000000     1.007825032230
      Gh(H)           2.719642000000     0.442245000000     0.453626000000     1.007825032230
      Gh(O)           0.997390000000    -1.806691000000    -0.823923000000    15.994914619570
      Gh(H)           0.719927000000    -2.694832000000    -0.590439000000     1.007825032230
      Gh(H)           1.062663000000    -1.693952000000    -1.760597000000     1.007825032230
      Gh(O)          -2.359813000000    -0.522401000000    -0.218748000000    15.994914619570
      Gh(H)          -3.107352000000    -1.043213000000     0.090344000000     1.007825032230
      Gh(H)          -2.840960000000     0.185888000000    -0.550284000000     1.007825032230
      Gh(O)          -1.307455000000     1.999734000000     0.923894000000    15.994914619570
      Gh(H)          -2.152987000000     2.044750000000     1.490236000000     1.007825032230
      Gh(H)          -1.483833000000     2.732670000000     0.295877000000     1.007825032230
      Gh(O)          -0.718067000000     0.947143000000    -2.169991000000    15.994914619570
      Gh(H)          -1.389460000000     1.635350000000    -2.029136000000     1.007825032230
      Gh(H)           0.120162000000     1.348159000000    -2.406870000000     1.007825032230
         O           -0.441223000000    -1.492378000000     2.010603000000    15.994914619570
         H            0.380909000000    -1.895708000000     2.175635000000     1.007825032230
         H           -0.383827000000    -0.728813000000     2.596321000000     1.007825032230

  Charge       = 0
  Multiplicity = 1
  Basis Set: AUG-CC-PVTZ
    Blend: AUG-CC-PVTZ
  Basis Set: (AUG-CC-PVTZ AUX)
    Blend: AUG-CC-PVTZ-JKFIT + DEF2-UNIVERSAL-JKFIT

    Orbital Energies [Eh]
    ---------------------

    Doubly Occupied:

       1A    -20.566771     2A     -1.361983     3A     -0.715236
       4A     -0.594499     5A     -0.512323

  @DF-RHF Final Energy:   -76.05981564723152

   => Energetics <=

    Nuclear Repulsion Energy =              9.3040972979092782
    One-Electron Energy =                -123.2261973335630216
    Two-Electron Energy =                  37.8622843884222320
    Total Energy =                        -76.0598156472315168
 Dipole X            :          7.2610967           -6.6758393            0.5852574
 Dipole Y            :         27.7541295          -27.5211115            0.2330180
 Dipole Z            :        -38.9185922           39.4136021            0.4950099
 Magnitude           :                                                    0.8011607
  Basis Set: (AUG-CC-PVTZ AUX)
    Blend: AUG-CC-PVTZ-RI + DEF2-QZVPP-RI
	 Reference Energy          =     -76.0598156472315168 [Eh]
	 Singles Energy            =      -0.0000000000000000 [Eh]
	 Same-Spin Energy          =      -0.0683338242974324 [Eh]
	 Opposite-Spin Energy      =      -0.2156175846507136 [Eh]
	 Correlation Energy        =      -0.2839514089481460 [Eh]
	 Total Energy              =     -76.3437670561796580 [Eh]

	 ================> DF-SCS-MP2 Energies <==================
	-----------------------------------------------------------
	 SCS Same-Spin Scale       =       0.3333333333333333 [-]
	 SCS Opposite-Spin Scale   =       1.2000000000000000 [-]
	 SCS Same-Spin Energy      =      -0.0227779414324775 [Eh]
	 SCS Opposite-Spin Energy  =      -0.2587411015808563 [Eh]
	 SCS Correlation Energy    =      -0.2815190430133337 [Eh]
	 SCS Total Energy          =     -76.3413346902448495 [Eh]
	-----------------------------------------------------------

*** Psi4 exiting successfully. Buy a developer a beer!
