                               Psi4 1.9 release

  ==> Input File <==

--------------------------------------------------------------------------
MEMORY 60 GB

molecule dimer {
1 1
Na     0.000000     0.000000     0.000000
--
0 1
O      0.573445     0.522482    -2.425718
H      0.565546    -0.283950    -2.909351
H     -0.117345     1.111605    -2.808292
O     -1.679400    -0.610316     1.453133
H     -1.385658    -0.169377     2.284592
H     -1.324565    -1.507257     1.282268
O      0.799290     2.100325     0.839463
H      1.724281     2.237643     0.911781
H      0.337870     2.956704     0.693773
O      1.544445    -1.816388     0.444477
H      2.490067    -1.614678     0.281276
H      1.362461    -2.682268     0.137746

units ang
no_reorient
no_com
symmetry c1
}

set {
basis        aug-cc-pVTZ
scf_type     df
}

energy("mp2", bsse_type="cp")
--------------------------------------------------------------------------

                               Psi4 1.9 release
    Molecular point group: c1
  Charge       = 0
  Multiplicity = 1
  Basis Set: AUG-CC-PVTZ
    Blend: AUG-CC-PVTZ
  Basis Set: (AUG-CC-PVTZ AUX)
    Blend: AUG-CC-PVTZ-JKFIT + DEF2-UNIVERSAL-JKFIT
  @DF-RHF Final Energy:  -304.22550212802639
    Total Energy =                       -304.2255021280263918
 Dipole X            :        -24.7695436           25.6150430            0.8454994
 Dipole Y            :         -3.2783401            3.0561520           -0.2221881
 Dipole Z            :         -4.9810422            4.4685088           -0.5125335
 Magnitude           :                                                    1.0133743
  Basis Set: (AUG-CC-PVTZ AUX)
    Blend: AUG-CC-PVTZ-RI + DEF2-QZVPP-RI
	 Reference Energy          =    -304.2255021280263918 [Eh]
	 Singles Energy            =      -0.0000000000000000 [Eh]
	 Same-Spin Energy          =      -0.2749529387860952 [Eh]
	 Opposite-Spin Energy      =      -0.8648568482831602 [Eh]
	 Correlation Energy        =      -1.1398097870692554 [Eh]
	 Total Energy              =    -305.3653119150956741 [Eh]
	 SCS Total Energy          =    -305.3549813255615391 [Eh]
                               Psi4 1.9 release
    Molecular point group: c1
  Multiplicity = 1
  Basis Set: AUG-CC-PVTZ
    Blend: AUG-CC-PVTZ
  Basis Set: (AUG-CC-PVTZ AUX)
    Blend: AUG-CC-PVTZ-JKFIT + DEF2-UNIVERSAL-JKFIT
  @DF-RHF Final Energy:  -161.67608455399159
    Total Energy =                       -161.6760845539915863
  Basis Set: (AUG-CC-PVTZ AUX)
	 Singles Energy            =      -0.0000000000000000 [Eh]
	 Same-Spin Energy          =      -0.0047394794322378 [Eh]
	 Opposite-Spin Energy      =      -0.0153000718240236 [Eh]
	 Correlation Energy        =      -0.0200395512562614 [Eh]
	 Total Energy              =    -161.6961241052478613 [Eh]
	 SCS Total Energy          =    -161.6960244666578319 [Eh]
                               Psi4 1.9 release
    Molecular point group: c1

    Geometry (in Bohr), charge = 1, multiplicity = 1:

       Center              X                  Y                   Z               Mass
    ------------   -----------------  -----------------  -----------------  -----------------
         NA           0.000000000000     0.000000000000     0.000000000000    22.989769282000
         O            1.083653998013     0.987347885481    -4.583942677593    15.994914619570
         H            1.068727051348    -0.536587733324    -5.497876592827     1.007825032230
         H           -0.221749912192     2.100629009690    -5.306902760314     1.007825032230
         O           -3.173606055094    -1.153330089985     2.746023393865    15.994914619570
         H           -2.618514123550    -0.320076141952     4.317253188412     1.007825032230
         H           -2.503065085367    -2.848302930679     2.423135339439     1.007825032230
         O            1.510439194817     3.969039024452     1.586355162455    15.994914619570
         H            3.258418853331     4.228532436548     1.723016376396     1.007825032230
         H            0.638481766008     5.587360794046     1.311040963237     1.007825032230
         O            2.918578065833    -3.432475857568     0.839939799065    15.994914619570
         H            4.705544664040    -3.051299200802     0.531534605664     1.007825032230
         H            2.574678146617    -5.068751915080     0.260302214877     1.007825032230

  Charge       = 1
  Multiplicity = 1
  Basis Set: AUG-CC-PVTZ
    Blend: AUG-CC-PVTZ
  Basis Set: (AUG-CC-PVTZ AUX)
    Blend: AUG-CC-PVTZ-JKFIT + DEF2-UNIVERSAL-JKFIT

    Orbital Energies [Eh]
    ---------------------

    Doubly Occupied:

       1A    -40.594459     2A    -20.743041     3A    -20.733613
       4A    -20.731030     5A    -20.730866     6A     -2.915880
       7A     -1.640699     8A     -1.640041     9A     -1.639791
      10A     -1.530374    11A     -1.516554    12A     -1.514767
      13A     -1.505173    14A     -0.904487    15A     -0.894850
      16A     -0.893519    17A     -0.885654    18A     -0.768690
      19A     -0.755286    20A     -0.748128    21A     -0.729625
      22A     -0.692744    23A     -0.682869    24A     -0.680162
      25A     -0.677348

  @DF-RHF Final Energy:  -466.00891479939162

   => Energetics <=

    Nuclear Repulsion Energy =            209.3606480057524095
    One-Electron Energy =               -1057.2398130981530358
    Two-Electron Energy =                 381.8702502930090077
    Total Energy =                       -466.0089147993916185
 Dipole X            :        -24.6285918           25.6150430            0.9864511
 Dipole Y            :         -3.2479500            3.0561520           -0.1917980
 Dipole Z            :         -4.9220388            4.4685088           -0.4535300
 Magnitude           :                                                    1.1025252
  Basis Set: (AUG-CC-PVTZ AUX)
    Blend: AUG-CC-PVTZ-RI + DEF2-QZVPP-RI
	 Reference Energy          =    -466.0089147993916185 [Eh]
	 Singles Energy            =      -0.0000000000000000 [Eh]
	 Same-Spin Energy          =      -0.2790621714306605 [Eh]
	 Opposite-Spin Energy      =      -0.8761942265123306 [Eh]
	 Correlation Energy        =      -1.1552563979429911 [Eh]
	 Total Energy              =    -467.1641711973346105 [Eh]

	 ================> DF-SCS-MP2 Energies <==================
	-----------------------------------------------------------
	 SCS Same-Spin Scale       =       0.3333333333333333 [-]
	 SCS Opposite-Spin Scale   =       1.2000000000000000 [-]
	 SCS Same-Spin Energy      =      -0.0930207238102202 [Eh]
	 SCS Opposite-Spin Energy  =      -1.0514330718147966 [Eh]
	 SCS Correlation Energy    =      -1.1444537956250167 [Eh]
	 SCS Total Energy          =    -467.1533685950166159 [Eh]
	-----------------------------------------------------------

*** Psi4 exiting successfully. Buy a developer a beer!
