                               Psi4 1.8.2 release

  ==> Input File <==

--------------------------------------------------------------------------
MEMORY 60 GB

molecule dimer {
1 1
Na         0.000000     0.000000     0.000000
O          0.659986    -2.040507     0.606036
H          0.158925    -2.823573     0.524427
H          1.510866    -2.288362     0.337845
O          2.115452     0.634802     0.818018
H          2.351575     1.571131     0.886082
H          2.064804     0.316408     1.680790
O         -2.136022     0.705726    -0.204914
H         -2.636726     0.821809    -1.022408
H         -2.660104     0.011381     0.299743

units ang
no_reorient
no_com
symmetry c1
}

set {
basis        aug-cc-pVTZ
scf_type     df
}

energy("mp2")
--------------------------------------------------------------------------

    Molecular point group: c1

    Geometry (in Angstrom), charge = 1, multiplicity = 1:

       Center              X                  Y                   Z               Mass
    ------------   -----------------  -----------------  -----------------  -----------------
         NA           0.000000000000     0.000000000000     0.000000000000    22.989769282000
         O            0.659986000000    -2.040507000000     0.606036000000    15.994914619570
         H            0.158925000000    -2.823573000000     0.524427000000     1.007825032230
         H            1.510866000000    -2.288362000000     0.337845000000     1.007825032230
         O            2.115452000000     0.634802000000     0.818018000000    15.994914619570
         H            2.351575000000     1.571131000000     0.886082000000     1.007825032230
         H            2.064804000000     0.316408000000     1.680790000000     1.007825032230
         O           -2.136022000000     0.705726000000    -0.204914000000    15.994914619570
         H           -2.636726000000     0.821809000000    -1.022408000000     1.007825032230
         H           -2.660104000000     0.011381000000     0.299743000000     1.007825032230

  Charge       = 1
  Multiplicity = 1
  Basis Set: AUG-CC-PVTZ
    Blend: AUG-CC-PVTZ
  Basis Set: (AUG-CC-PVTZ AUX)
    Blend: AUG-CC-PVTZ-JKFIT + DEF2-UNIVERSAL-JKFIT

    Orbital Energies [Eh]
    ---------------------

    Doubly Occupied:

       1A    -40.607645     2A    -20.757287     3A    -20.748464
       4A    -20.739647     5A     -2.930745     6A     -1.655864
       7A     -1.655359     8A     -1.655142     9A     -1.557947
      10A     -1.537830    11A     -1.529205    12A     -0.921781
      13A     -0.904468    14A     -0.889413    15A     -0.798181
      16A     -0.780751    17A     -0.769156    18A     -0.707845
      19A     -0.702048    20A     -0.694574

  @DF-RHF Final Energy:  -389.94215877680909

   => Energetics <=

    Nuclear Repulsion Energy =            142.4826384452097443
    One-Electron Energy =                -819.7628842848857857
    Two-Electron Energy =                 287.3380870628669186
    Total Energy =                       -389.9421587768090944
 Dipole X            :        -11.4400332           11.1582054           -0.2818279
 Dipole Y            :         14.3424149          -15.1008733           -0.7584583
 Dipole Z            :        -23.2444542           23.5452297            0.3007756
 Magnitude           :                                                    0.8632218
  Basis Set: (AUG-CC-PVTZ AUX)
    Blend: AUG-CC-PVTZ-RI + DEF2-QZVPP-RI
	 Reference Energy          =    -389.9421587768090944 [Eh]
	 Singles Energy            =      -0.0000000000000000 [Eh]
	 Same-Spin Energy          =      -0.2094656679407053 [Eh]
	 Opposite-Spin Energy      =      -0.6582383338820360 [Eh]
	 Correlation Energy        =      -0.8677040018227413 [Eh]
	 Total Energy              =    -390.8098627786318389 [Eh]

	 ================> DF-SCS-MP2 Energies <==================
	-----------------------------------------------------------
	 SCS Same-Spin Scale       =       0.3333333333333333 [-]
	 SCS Opposite-Spin Scale   =       1.2000000000000000 [-]
	 SCS Same-Spin Energy      =      -0.0698218893135684 [Eh]
	 SCS Opposite-Spin Energy  =      -0.7898860006584432 [Eh]
	 SCS Correlation Energy    =      -0.8597078899720116 [Eh]
	 SCS Total Energy          =    -390.8018666667811090 [Eh]
	-----------------------------------------------------------

*** Psi4 exiting successfully. Buy a developer a beer!
