                               Psi4 1.8.2 release

  ==> Input File <==

--------------------------------------------------------------------------
MEMORY 60 GB

molecule dimer {
1 1
Na         0.000000     0.000000     0.000000
O         -0.034535     1.231489    -2.218136
H          0.606959     1.824112    -2.604967
H         -0.908760     1.375753    -2.636306
O          2.509633    -0.358357    -0.458430
H          2.814224    -0.209112     0.444792
H          2.813634     0.361272    -1.001100
O         -2.323793     0.459139     0.520834
H         -3.041218     0.076369     0.031045
H         -2.786487     1.059008     1.202974
O         -0.225495    -2.522497     0.781078
H         -0.490119    -2.643515     1.700931
H          0.498305    -3.103075     0.692877
O          0.964521     0.894478     1.841733
H          1.926174     0.986879     2.103443
H          0.445700     0.435486     2.501790

units ang
no_reorient
no_com
symmetry c1
}

set {
basis        aug-cc-pVTZ
scf_type     df
}

energy("mp2")
--------------------------------------------------------------------------

    Molecular point group: c1

    Geometry (in Angstrom), charge = 1, multiplicity = 1:

       Center              X                  Y                   Z               Mass
    ------------   -----------------  -----------------  -----------------  -----------------
         NA           0.000000000000     0.000000000000     0.000000000000    22.989769282000
         O           -0.034535000000     1.231489000000    -2.218136000000    15.994914619570
         H            0.606959000000     1.824112000000    -2.604967000000     1.007825032230
         H           -0.908760000000     1.375753000000    -2.636306000000     1.007825032230
         O            2.509633000000    -0.358357000000    -0.458430000000    15.994914619570
         H            2.814224000000    -0.209112000000     0.444792000000     1.007825032230
         H            2.813634000000     0.361272000000    -1.001100000000     1.007825032230
         O           -2.323793000000     0.459139000000     0.520834000000    15.994914619570
         H           -3.041218000000     0.076369000000     0.031045000000     1.007825032230
         H           -2.786487000000     1.059008000000     1.202974000000     1.007825032230
         O           -0.225495000000    -2.522497000000     0.781078000000    15.994914619570
         H           -0.490119000000    -2.643515000000     1.700931000000     1.007825032230
         H            0.498305000000    -3.103075000000     0.692877000000     1.007825032230
         O            0.964521000000     0.894478000000     1.841733000000    15.994914619570
         H            1.926174000000     0.986879000000     2.103443000000     1.007825032230
         H            0.445700000000     0.435486000000     2.501790000000     1.007825032230

  Charge       = 1
  Multiplicity = 1
  Basis Set: AUG-CC-PVTZ
    Blend: AUG-CC-PVTZ
  Basis Set: (AUG-CC-PVTZ AUX)
    Blend: AUG-CC-PVTZ-JKFIT + DEF2-UNIVERSAL-JKFIT

    Orbital Energies [Eh]
    ---------------------

    Doubly Occupied:

       1A    -40.565024     2A    -20.737687     3A    -20.727534
       4A    -20.713027     5A    -20.711170     6A    -20.710084
       7A     -2.885446     8A     -1.611337     9A     -1.609265
      10A     -1.608906    11A     -1.513858    12A     -1.504282
      13A     -1.500066    14A     -1.498046    15A     -1.493178
      16A     -0.897624    17A     -0.871928    18A     -0.868115
      19A     -0.863441    20A     -0.859942    21A     -0.755911
      22A     -0.748567    23A     -0.740843    24A     -0.732904
      25A     -0.726673    26A     -0.689164    27A     -0.669324
      28A     -0.658606    29A     -0.657410    30A     -0.656207

  @DF-RHF Final Energy:  -542.08490875394841

   => Energetics <=

    Nuclear Repulsion Energy =            292.8594575358428642
    One-Electron Energy =               -1328.3175910751313040
    Two-Electron Energy =                 493.3732247853399144
    Total Energy =                       -542.0849087539484117
 Dipole X            :        -16.9594533           17.0095382            0.0500850
 Dipole Y            :          4.6986543           -4.1627019            0.5359523
 Dipole Z            :        -10.6247141           11.6635994            1.0388853
 Magnitude           :                                                    1.1700582
  Basis Set: (AUG-CC-PVTZ AUX)
    Blend: AUG-CC-PVTZ-RI + DEF2-QZVPP-RI
	 Reference Energy          =    -542.0849087539484117 [Eh]
	 Singles Energy            =      -0.0000000000000000 [Eh]
	 Same-Spin Energy          =      -0.3496912932369649 [Eh]
	 Opposite-Spin Energy      =      -1.0962398116730692 [Eh]
	 Correlation Energy        =      -1.4459311049100341 [Eh]
	 Total Energy              =    -543.5308398588584851 [Eh]

	 ================> DF-SCS-MP2 Energies <==================
	-----------------------------------------------------------
	 SCS Same-Spin Scale       =       0.3333333333333333 [-]
	 SCS Opposite-Spin Scale   =       1.2000000000000000 [-]
	 SCS Same-Spin Energy      =      -0.1165637644123216 [Eh]
	 SCS Opposite-Spin Energy  =      -1.3154877740076829 [Eh]
	 SCS Correlation Energy    =      -1.4320515384200045 [Eh]
	 SCS Total Energy          =    -543.5169602923683669 [Eh]
	-----------------------------------------------------------

*** Psi4 exiting successfully. Buy a developer a beer!
