                               Psi4 1.9 release

  ==> Input File <==

--------------------------------------------------------------------------
MEMORY 60 GB

molecule dimer {
1 1
K      0.000000     0.000000     0.000000
--
0 1
O      0.614161    -2.662596    -1.000568
H     -0.113826    -3.251565    -1.198118
H      1.186112    -2.667876    -1.734079
O      0.729810     2.373837    -1.025151
H      1.167478     2.701220    -1.857432
H     -0.147525     2.842033    -0.995735
O     -1.008658     0.423253     2.460831
H     -0.735495    -0.358124     2.948601
H     -1.939879     0.354150     2.274018
O      2.850153    -0.237363     0.329338
H      3.197928    -1.122902     0.376841
H      3.494571     0.227443    -0.233883
O     -2.469746    -0.508728    -1.426203
H     -3.370408    -0.248234    -1.430514
H     -2.421727    -0.991925    -2.274776

units ang
no_reorient
no_com
symmetry c1
}

set {
basis        aug-cc-pVTZ
scf_type     df
}

energy("mp2", bsse_type="cp")
--------------------------------------------------------------------------

                               Psi4 1.9 release
    Molecular point group: c1
  Charge       = 0
  Multiplicity = 1
  Basis Set: AUG-CC-PVTZ
    Blend: AUG-CC-PVTZ
  Basis Set: (AUG-CC-PVTZ AUX)
    Blend: AUG-CC-PVTZ-JKFIT + DEF2-UNIVERSAL-JKFIT
  @DF-RHF Final Energy:  -380.28454410687283
    Total Energy =                       -380.2845441068728292
 Dipole X            :        -12.1825291           11.4195942           -0.7629349
 Dipole Y            :         13.1391634          -14.0001418           -0.8609784
 Dipole Z            :         15.9989058          -17.7995212           -1.8006154
 Magnitude           :                                                    2.1367193
  Basis Set: (AUG-CC-PVTZ AUX)
    Blend: AUG-CC-PVTZ-RI + DEF2-QZVPP-RI
	 Reference Energy          =    -380.2845441068728292 [Eh]
	 Singles Energy            =      -0.0000000000000000 [Eh]
	 Same-Spin Energy          =      -0.3436585426034912 [Eh]
	 Opposite-Spin Energy      =      -1.0810395465886691 [Eh]
	 Correlation Energy        =      -1.4246980891921601 [Eh]
	 Total Energy              =    -381.7092421960649631 [Eh]
	 SCS Total Energy          =    -381.6963444103137135 [Eh]
                               Psi4 1.9 release
    Molecular point group: c1
  Multiplicity = 1
  Basis Set: AUG-CC-PVTZ
    Blend: AUG-CC-PVTZ
  Basis Set: (AUG-CC-PVTZ AUX)
    Blend: AUG-CC-PVTZ-JKFIT + DEF2-UNIVERSAL-JKFIT
  @DF-RHF Final Energy:  -599.01751574383002
    Total Energy =                       -599.0175157438300175
  Basis Set: (AUG-CC-PVTZ AUX)
	 Singles Energy            =      -0.0000000000000000 [Eh]
	 Same-Spin Energy          =      -0.0361449974382420 [Eh]
	 Opposite-Spin Energy      =      -0.0874507444187750 [Eh]
	 Correlation Energy        =      -0.1235957418570170 [Eh]
	 Total Energy              =    -599.1411114856870199 [Eh]
	 SCS Total Energy          =    -599.1345049696119531 [Eh]
                               Psi4 1.9 release
    Molecular point group: c1

    Geometry (in Bohr), charge = 1, multiplicity = 1:

       Center              X                  Y                   Z               Mass
    ------------   -----------------  -----------------  -----------------  -----------------
         K            0.000000000000     0.000000000000     0.000000000000    38.963706486400
         O            1.160596086937    -5.031577222740    -1.890799489897    15.994914619570
         H           -0.215099965956    -6.144567329124    -2.264114885981     1.007825032230
         H            2.241426834119    -5.041554976682    -3.276934389908     1.007825032230
         O            1.379141023620     4.485901796478    -1.937254627239    15.994914619570
         H            2.206213677497     5.104566004609    -3.510037776661     1.007825032230
         H           -0.278781846658     5.370664009513    -1.881666443533     1.007825032230
         O           -1.906087374252     0.799832251778     4.650296631037    15.994914619570
         H           -1.389884116644    -0.676756278953     5.572048343251     1.007825032230
         H           -3.665840026527     0.669246507331     4.297271224361     1.007825032230
         O            5.386008585652    -0.448551062317     0.622358622706    15.994914619570
         H            6.043208088933    -2.121977245729     0.712126282844     1.007825032230
         H            6.603782115967     0.429804979153    -0.441974815400     1.007825032230
         O           -4.667143539445    -0.961356592352    -2.695133069306    15.994914619570
         H           -6.369148051052    -0.469094275027    -2.703279678633     1.007825032230
         H           -4.576400780627    -1.874466586995    -4.298703636764     1.007825032230

  Charge       = 1
  Multiplicity = 1
  Basis Set: AUG-CC-PVTZ
    Blend: AUG-CC-PVTZ
  Basis Set: (AUG-CC-PVTZ AUX)
    Blend: AUG-CC-PVTZ-JKFIT + DEF2-UNIVERSAL-JKFIT

    Orbital Energies [Eh]
    ---------------------

    Doubly Occupied:

       1A   -133.602465     2A    -20.717556     3A    -20.714455
       4A    -20.707395     5A    -20.706401     6A    -20.697186
       7A    -14.560062     8A    -11.589954     9A    -11.589910
      10A    -11.589856    11A     -1.822183    12A     -1.507273
      13A     -1.504384    14A     -1.496171    15A     -1.481872
      16A     -1.479677    17A     -1.032807    18A     -1.031778
      19A     -1.030418    20A     -0.876049    21A     -0.868768
      22A     -0.859601    23A     -0.842715    24A     -0.840809
      25A     -0.751241    26A     -0.732895    27A     -0.726907
      28A     -0.723327    29A     -0.721114    30A     -0.663955
      31A     -0.658493    32A     -0.656271    33A     -0.652978
      34A     -0.642251

  @DF-RHF Final Energy:  -979.40073031497604

   => Energetics <=

    Nuclear Repulsion Energy =            338.1101177421720649
    One-Electron Energy =               -2014.8633396870329761
    Two-Electron Energy =                 697.3524916298847529
    Total Energy =                       -979.4007303149760446
 Dipole X            :        -12.1158039           11.4195942           -0.6962097
 Dipole Y            :         13.1318404          -14.0001418           -0.8683014
 Dipole Z            :         15.9036227          -17.7995212           -1.8958985
 Magnitude           :                                                    2.1984282
  Basis Set: (AUG-CC-PVTZ AUX)
    Blend: AUG-CC-PVTZ-RI + DEF2-QZVPP-RI
	 Reference Energy          =    -979.4007303149760446 [Eh]
	 Singles Energy            =      -0.0000000000000000 [Eh]
	 Same-Spin Energy          =      -0.3826524018251771 [Eh]
	 Opposite-Spin Energy      =      -1.1677593616594073 [Eh]
	 Correlation Energy        =      -1.5504117634845844 [Eh]
	 Total Energy              =    -980.9511420784606344 [Eh]

	 ================> DF-SCS-MP2 Energies <==================
	-----------------------------------------------------------
	 SCS Same-Spin Scale       =       0.3333333333333333 [-]
	 SCS Opposite-Spin Scale   =       1.2000000000000000 [-]
	 SCS Same-Spin Energy      =      -0.1275508006083924 [Eh]
	 SCS Opposite-Spin Energy  =      -1.4013112339912888 [Eh]
	 SCS Correlation Energy    =      -1.5288620345996811 [Eh]
	 SCS Total Energy          =    -980.9295923495757279 [Eh]
	-----------------------------------------------------------

*** Psi4 exiting successfully. Buy a developer a beer!
