                               Psi4 1.9 release

  ==> Input File <==

--------------------------------------------------------------------------
MEMORY 60 GB

molecule dimer {
1 1
K      0.000000     0.000000     0.000000
--
0 1
O     -2.378824    -0.553695    -1.241651
H     -2.664634     0.170642    -1.832911
H     -3.267881    -0.958953    -1.026544
O     -0.572456     1.699591    -1.947811
H      0.254456     1.982503    -2.411827
H     -1.309166     1.752655    -2.525546
O      1.126668    -1.511622     1.935966
H      0.956395    -2.429284     2.079445
H      0.857351    -1.103993     2.793336
O     -1.604414     0.849184     2.083256
H     -2.481291     0.626327     1.722143
H     -1.459611     0.357911     2.901958

units ang
no_reorient
no_com
symmetry c1
}

set {
basis        aug-cc-pVTZ
scf_type     df
}

energy("mp2", bsse_type="cp")
--------------------------------------------------------------------------

                               Psi4 1.9 release
    Molecular point group: c1
  Charge       = 0
  Multiplicity = 1
  Basis Set: AUG-CC-PVTZ
    Blend: AUG-CC-PVTZ
  Basis Set: (AUG-CC-PVTZ AUX)
    Blend: AUG-CC-PVTZ-JKFIT + DEF2-UNIVERSAL-JKFIT
  @DF-RHF Final Energy:  -304.21889109210156
    Total Energy =                       -304.2188910921015577
 Dipole X            :         67.7017630          -69.0630440           -1.3612810
 Dipole Y            :         -8.4451349            8.0605739           -0.3845610
 Dipole Z            :        -15.7892068           15.7567897           -0.0324172
 Magnitude           :                                                    1.4149290
  Basis Set: (AUG-CC-PVTZ AUX)
    Blend: AUG-CC-PVTZ-RI + DEF2-QZVPP-RI
	 Reference Energy          =    -304.2188910921015577 [Eh]
	 Singles Energy            =      -0.0000000000000000 [Eh]
	 Same-Spin Energy          =      -0.2761131762019986 [Eh]
	 Opposite-Spin Energy      =      -0.8675384698841555 [Eh]
	 Correlation Energy        =      -1.1436516460861541 [Eh]
	 Total Energy              =    -305.3625427381876989 [Eh]
	 SCS Total Energy          =    -305.3519749813631847 [Eh]
                               Psi4 1.9 release
    Molecular point group: c1
  Multiplicity = 1
  Basis Set: AUG-CC-PVTZ
    Blend: AUG-CC-PVTZ
  Basis Set: (AUG-CC-PVTZ AUX)
    Blend: AUG-CC-PVTZ-JKFIT + DEF2-UNIVERSAL-JKFIT
  @DF-RHF Final Energy:  -599.01751451065456
    Total Energy =                       -599.0175145106545642
  Basis Set: (AUG-CC-PVTZ AUX)
	 Singles Energy            =      -0.0000000000000000 [Eh]
	 Same-Spin Energy          =      -0.0349531118419174 [Eh]
	 Opposite-Spin Energy      =      -0.0845564239745532 [Eh]
	 Correlation Energy        =      -0.1195095358164706 [Eh]
	 Total Energy              =    -599.1370240464710832 [Eh]
	 SCS Total Energy          =    -599.1306332567046411 [Eh]
                               Psi4 1.9 release
    Molecular point group: c1

    Geometry (in Bohr), charge = 1, multiplicity = 1:

       Center              X                  Y                   Z               Mass
    ------------   -----------------  -----------------  -----------------  -----------------
         K            0.000000000000     0.000000000000     0.000000000000    38.963706486400
         O           -4.495325860666    -1.046331907035    -2.346380333401    15.994914619570
         H           -5.035428484583     0.322466645500    -3.463699802339     1.007825032230
         H           -6.175400100587    -1.812158537186    -1.939887015732     1.007825032230
         O           -1.081785058875     3.211761515293    -3.680829334154    15.994914619570
         H            0.480852150979     3.746387712899    -4.557692491985     1.007825032230
         H           -2.473965192761     3.312037942414    -4.772590257246     1.007825032230
         O            2.129093954317    -2.856551585217     3.658445528198    15.994914619570
         H            1.807324617757    -4.590681440957     3.929581542953     1.007825032230
         H            1.620158583387    -2.086244414423     5.278640016382     1.007825032230
         O           -3.031903051850     1.604725190121     3.936783289217    15.994914619570
         H           -4.688960427563     1.183586494980     3.254378618874     1.007825032230
         H           -2.758265039706     0.676353767289     5.483905847581     1.007825032230

  Charge       = 1
  Multiplicity = 1
  Basis Set: AUG-CC-PVTZ
    Blend: AUG-CC-PVTZ
  Basis Set: (AUG-CC-PVTZ AUX)
    Blend: AUG-CC-PVTZ-JKFIT + DEF2-UNIVERSAL-JKFIT

    Orbital Energies [Eh]
    ---------------------

    Doubly Occupied:

       1A   -133.618951     2A    -20.731563     3A    -20.724240
       4A    -20.723866     5A    -20.719126     6A    -14.576793
       7A    -11.606706     8A    -11.606657     9A    -11.606502
      10A     -1.839574    11A     -1.511305    12A     -1.509109
      13A     -1.500869    14A     -1.498863    15A     -1.050377
      16A     -1.049101    17A     -1.048517    18A     -0.891361
      19A     -0.874490    20A     -0.865886    21A     -0.849274
      22A     -0.756463    23A     -0.749963    24A     -0.740160
      25A     -0.730794    26A     -0.673482    27A     -0.672630
      28A     -0.669434    29A     -0.662314

  @DF-RHF Final Energy:  -903.31854043801889

   => Energetics <=

    Nuclear Repulsion Energy =            257.7115425495003365
    One-Electron Energy =               -1749.9434222012871487
    Two-Electron Energy =                 588.9133392137679266
    Total Energy =                       -903.3185404380188857
 Dipole X            :         67.3113524          -69.0630440           -1.7516917
 Dipole Y            :         -8.4120254            8.0605739           -0.3514515
 Dipole Z            :        -15.7123516           15.7567897            0.0444380
 Magnitude           :                                                    1.7871532
  Basis Set: (AUG-CC-PVTZ AUX)
    Blend: AUG-CC-PVTZ-RI + DEF2-QZVPP-RI
	 Reference Energy          =    -903.3185404380188857 [Eh]
	 Singles Energy            =      -0.0000000000000000 [Eh]
	 Same-Spin Energy          =      -0.3137941463226414 [Eh]
	 Opposite-Spin Energy      =      -0.9515375278609763 [Eh]
	 Correlation Energy        =      -1.2653316741836178 [Eh]
	 Total Energy              =    -904.5838721122024708 [Eh]

	 ================> DF-SCS-MP2 Energies <==================
	-----------------------------------------------------------
	 SCS Same-Spin Scale       =       0.3333333333333333 [-]
	 SCS Opposite-Spin Scale   =       1.2000000000000000 [-]
	 SCS Same-Spin Energy      =      -0.1045980487742138 [Eh]
	 SCS Opposite-Spin Energy  =      -1.1418450334331716 [Eh]
	 SCS Correlation Energy    =      -1.2464430822073853 [Eh]
	 SCS Total Energy          =    -904.5649835202262921 [Eh]
	-----------------------------------------------------------

*** Psi4 exiting successfully. Buy a developer a beer!
