                               Psi4 1.9 release

  ==> Input File <==

--------------------------------------------------------------------------
MEMORY 60 GB

molecule dimer {
1 1
K          0.000000     0.000000     0.000000
O          1.752063    -1.955740    -0.896493
H          2.693070    -2.147140    -1.012955
H          1.399783    -2.564561    -0.243759
O         -2.037636    -1.672138     0.117504
H         -2.427489    -2.365114     0.675856
H         -2.816892    -1.155028    -0.141307
O          0.519565    -0.340148     2.890005
H          0.272037     0.564577     2.764165
H         -0.190010    -0.696801     3.468111
O         -1.943971     1.609727     0.991987
H         -2.039868     2.479130     0.578168
H         -2.271273     1.714132     1.898834
O         -0.866082     1.453293    -2.302765
H         -0.118946     2.054102    -2.495125
H         -1.462586     2.104021    -1.901122

units ang
no_reorient
no_com
symmetry c1
}

set {
basis        aug-cc-pVTZ
scf_type     df
}

energy("mp2")
--------------------------------------------------------------------------

    Molecular point group: c1

    Geometry (in Angstrom), charge = 1, multiplicity = 1:

       Center              X                  Y                   Z               Mass
    ------------   -----------------  -----------------  -----------------  -----------------
         K            0.000000000000     0.000000000000     0.000000000000    38.963706486400
         O            1.752063000000    -1.955740000000    -0.896493000000    15.994914619570
         H            2.693070000000    -2.147140000000    -1.012955000000     1.007825032230
         H            1.399783000000    -2.564561000000    -0.243759000000     1.007825032230
         O           -2.037636000000    -1.672138000000     0.117504000000    15.994914619570
         H           -2.427489000000    -2.365114000000     0.675856000000     1.007825032230
         H           -2.816892000000    -1.155028000000    -0.141307000000     1.007825032230
         O            0.519565000000    -0.340148000000     2.890005000000    15.994914619570
         H            0.272037000000     0.564577000000     2.764165000000     1.007825032230
         H           -0.190010000000    -0.696801000000     3.468111000000     1.007825032230
         O           -1.943971000000     1.609727000000     0.991987000000    15.994914619570
         H           -2.039868000000     2.479130000000     0.578168000000     1.007825032230
         H           -2.271273000000     1.714132000000     1.898834000000     1.007825032230
         O           -0.866082000000     1.453293000000    -2.302765000000    15.994914619570
         H           -0.118946000000     2.054102000000    -2.495125000000     1.007825032230
         H           -1.462586000000     2.104021000000    -1.901122000000     1.007825032230

  Charge       = 1
  Multiplicity = 1
  Basis Set: AUG-CC-PVTZ
    Blend: AUG-CC-PVTZ
  Basis Set: (AUG-CC-PVTZ AUX)
    Blend: AUG-CC-PVTZ-JKFIT + DEF2-UNIVERSAL-JKFIT

    Orbital Energies [Eh]
    ---------------------

    Doubly Occupied:

       1A   -133.613038     2A    -20.740614     3A    -20.720232
       4A    -20.715099     5A    -20.712332     6A    -20.699772
       7A    -14.570811     8A    -11.600712     9A    -11.600632
      10A    -11.600579    11A     -1.833502    12A     -1.522650
      13A     -1.499503    14A     -1.497155    15A     -1.496510
      16A     -1.483793    17A     -1.044838    18A     -1.042990
      19A     -1.042191    20A     -0.888971    21A     -0.857145
      22A     -0.856436    23A     -0.853372    24A     -0.843759
      25A     -0.762628    26A     -0.744795    27A     -0.742712
      28A     -0.731011    29A     -0.717318    30A     -0.686468
      31A     -0.662987    32A     -0.660417    33A     -0.655277
      34A     -0.645925

  @DF-RHF Final Energy:  -979.38854250789416

   => Energetics <=

    Nuclear Repulsion Energy =            345.8372229645025868
    One-Electron Energy =               -2029.7591813112383079
    Two-Electron Energy =                 704.5334158388415062
    Total Energy =                       -979.3885425078941580
 Dipole X            :         50.6513429          -52.1010003           -1.4496573
 Dipole Y            :         14.7572737          -13.7056734            1.0516003
 Dipole Z            :        -17.5484726           18.8835985            1.3351259
 Magnitude           :                                                    2.2338153
  Basis Set: (AUG-CC-PVTZ AUX)
    Blend: AUG-CC-PVTZ-RI + DEF2-QZVPP-RI
	 Reference Energy          =    -979.3885425078941580 [Eh]
	 Singles Energy            =      -0.0000000000000000 [Eh]
	 Same-Spin Energy          =      -0.3850015075869044 [Eh]
	 Opposite-Spin Energy      =      -1.1734410657725398 [Eh]
	 Correlation Energy        =      -1.5584425733594442 [Eh]
	 Total Energy              =    -980.9469850812536151 [Eh]

	 ================> DF-SCS-MP2 Energies <==================
	-----------------------------------------------------------
	 SCS Same-Spin Scale       =       0.3333333333333333 [-]
	 SCS Opposite-Spin Scale   =       1.2000000000000000 [-]
	 SCS Same-Spin Energy      =      -0.1283338358623015 [Eh]
	 SCS Opposite-Spin Energy  =      -1.4081292789270476 [Eh]
	 SCS Correlation Energy    =      -1.5364631147893490 [Eh]
	 SCS Total Energy          =    -980.9250056226835568 [Eh]
	-----------------------------------------------------------

*** Psi4 exiting successfully. Buy a developer a beer!
