                               Psi4 1.9 release

  ==> Input File <==

--------------------------------------------------------------------------
MEMORY 60 GB

molecule dimer {
0 1
Gh(K)      0.000000     0.000000     0.000000
Gh(O)      1.718018     0.231702     1.982918
Gh(H)      2.030510    -0.589138     2.359944
Gh(H)      1.757650     0.961818     2.605759
Gh(O)     -1.357838     1.036276    -2.176719
Gh(H)     -1.862644     1.908415    -2.195129
Gh(H)     -2.093985     0.377470    -2.470949
Gh(O)      0.093893    -2.699563    -1.187877
Gh(H)     -0.368393    -3.368385    -0.686177
Gh(H)      0.993326    -3.116036    -1.311465
O         -0.782278    -1.864644     1.959905
H         -0.286253    -2.712429     1.908728
H         -1.707732    -2.173103     2.104632

units ang
no_reorient
no_com
symmetry c1
}

set {
basis        aug-cc-pVTZ
scf_type     df
}

energy("mp2")
--------------------------------------------------------------------------

    Molecular point group: c1

    Geometry (in Angstrom), charge = 0, multiplicity = 1:

       Center              X                  Y                   Z               Mass
    ------------   -----------------  -----------------  -----------------  -----------------
      Gh(K)           0.000000000000     0.000000000000     0.000000000000    38.963706486400
      Gh(O)           1.718018000000     0.231702000000     1.982918000000    15.994914619570
      Gh(H)           2.030510000000    -0.589138000000     2.359944000000     1.007825032230
      Gh(H)           1.757650000000     0.961818000000     2.605759000000     1.007825032230
      Gh(O)          -1.357838000000     1.036276000000    -2.176719000000    15.994914619570
      Gh(H)          -1.862644000000     1.908415000000    -2.195129000000     1.007825032230
      Gh(H)          -2.093985000000     0.377470000000    -2.470949000000     1.007825032230
      Gh(O)           0.093893000000    -2.699563000000    -1.187877000000    15.994914619570
      Gh(H)          -0.368393000000    -3.368385000000    -0.686177000000     1.007825032230
      Gh(H)           0.993326000000    -3.116036000000    -1.311465000000     1.007825032230
         O           -0.782278000000    -1.864644000000     1.959905000000    15.994914619570
         H           -0.286253000000    -2.712429000000     1.908728000000     1.007825032230
         H           -1.707732000000    -2.173103000000     2.104632000000     1.007825032230

  Charge       = 0
  Multiplicity = 1
  Basis Set: AUG-CC-PVTZ
    Blend: AUG-CC-PVTZ
  Basis Set: (AUG-CC-PVTZ AUX)
    Blend: AUG-CC-PVTZ-JKFIT + DEF2-UNIVERSAL-JKFIT

    Orbital Energies [Eh]
    ---------------------

    Doubly Occupied:

       1A    -20.572919     2A     -1.341298     3A     -0.698560
       4A     -0.584060     5A     -0.508835

  @DF-RHF Final Energy:   -76.05728221148713

   => Energetics <=

    Nuclear Repulsion Energy =              8.9420942388424294
    One-Electron Energy =                -122.5874055450456268
    Two-Electron Energy =                  37.5880290947160773
    Total Energy =                        -76.0572822114871201
 Dipole X            :         15.3159697          -15.5944149           -0.2784452
 Dipole Y            :         36.6704703          -37.4216493           -0.7511790
 Dipole Z            :        -37.1525847           37.2136207            0.0610360
 Magnitude           :                                                    0.8034470
  Basis Set: (AUG-CC-PVTZ AUX)
    Blend: AUG-CC-PVTZ-RI + DEF2-QZVPP-RI
	 Reference Energy          =     -76.0572822114871343 [Eh]
	 Singles Energy            =      -0.0000000000000000 [Eh]
	 Same-Spin Energy          =      -0.0689177344890907 [Eh]
	 Opposite-Spin Energy      =      -0.2171736886114541 [Eh]
	 Correlation Energy        =      -0.2860914231005448 [Eh]
	 Total Energy              =     -76.3433736345876781 [Eh]

	 ================> DF-SCS-MP2 Energies <==================
	-----------------------------------------------------------
	 SCS Same-Spin Scale       =       0.3333333333333333 [-]
	 SCS Opposite-Spin Scale   =       1.2000000000000000 [-]
	 SCS Same-Spin Energy      =      -0.0229725781630302 [Eh]
	 SCS Opposite-Spin Energy  =      -0.2606084263337450 [Eh]
	 SCS Correlation Energy    =      -0.2835810044967752 [Eh]
	 SCS Total Energy          =     -76.3408632159839158 [Eh]
	-----------------------------------------------------------

*** Psi4 exiting successfully. Buy a developer a beer!
