                               Psi4 1.9 release

  ==> Input File <==

--------------------------------------------------------------------------
MEMORY 60 GB

molecule dimer {
0 1
Gh(K)      0.000000     0.000000     0.000000
Gh(O)      0.193604     2.456516    -0.745826
Gh(H)      1.027191     2.951756    -0.793227
Gh(H)     -0.562560     3.072946    -0.858144
Gh(O)     -1.232242    -2.233013     0.683210
Gh(H)     -1.372938    -2.937211    -0.025695
Gh(H)     -1.366802    -2.615033     1.557785
Gh(O)      2.594873     0.295506     0.744422
Gh(H)      2.858332     1.115974     1.121168
Gh(H)      3.402181    -0.102967     0.308189
O          0.305749    -1.494227    -2.346204
H         -0.487855    -1.900339    -2.732699
H          0.656706    -2.159673    -1.779934
Gh(O)      0.354684     0.631866     2.696786
Gh(H)      0.743905     1.438358     3.041235
Gh(H)      0.890030    -0.053433     3.042617
Gh(O)     -2.758490     0.097649    -0.258778
Gh(H)     -3.113201     0.864523    -0.650413
Gh(H)     -2.526952     0.402207     0.644990

units ang
no_reorient
no_com
symmetry c1
}

set {
basis        aug-cc-pVTZ
scf_type     df
}

energy("mp2")
--------------------------------------------------------------------------

    Molecular point group: c1

    Geometry (in Angstrom), charge = 0, multiplicity = 1:

       Center              X                  Y                   Z               Mass
    ------------   -----------------  -----------------  -----------------  -----------------
      Gh(K)           0.000000000000     0.000000000000     0.000000000000    38.963706486400
      Gh(O)           0.193604000000     2.456516000000    -0.745826000000    15.994914619570
      Gh(H)           1.027191000000     2.951756000000    -0.793227000000     1.007825032230
      Gh(H)          -0.562560000000     3.072946000000    -0.858144000000     1.007825032230
      Gh(O)          -1.232242000000    -2.233013000000     0.683210000000    15.994914619570
      Gh(H)          -1.372938000000    -2.937211000000    -0.025695000000     1.007825032230
      Gh(H)          -1.366802000000    -2.615033000000     1.557785000000     1.007825032230
      Gh(O)           2.594873000000     0.295506000000     0.744422000000    15.994914619570
      Gh(H)           2.858332000000     1.115974000000     1.121168000000     1.007825032230
      Gh(H)           3.402181000000    -0.102967000000     0.308189000000     1.007825032230
         O            0.305749000000    -1.494227000000    -2.346204000000    15.994914619570
         H           -0.487855000000    -1.900339000000    -2.732699000000     1.007825032230
         H            0.656706000000    -2.159673000000    -1.779934000000     1.007825032230
      Gh(O)           0.354684000000     0.631866000000     2.696786000000    15.994914619570
      Gh(H)           0.743905000000     1.438358000000     3.041235000000     1.007825032230
      Gh(H)           0.890030000000    -0.053433000000     3.042617000000     1.007825032230
      Gh(O)          -2.758490000000     0.097649000000    -0.258778000000    15.994914619570
      Gh(H)          -3.113201000000     0.864523000000    -0.650413000000     1.007825032230
      Gh(H)          -2.526952000000     0.402207000000     0.644990000000     1.007825032230

  Charge       = 0
  Multiplicity = 1
  Basis Set: AUG-CC-PVTZ
    Blend: AUG-CC-PVTZ
  Basis Set: (AUG-CC-PVTZ AUX)
    Blend: AUG-CC-PVTZ-JKFIT + DEF2-UNIVERSAL-JKFIT

    Orbital Energies [Eh]
    ---------------------

    Doubly Occupied:

       1A    -20.566954     2A     -1.354146     3A     -0.717891
       4A     -0.585174     5A     -0.510448

  @DF-RHF Final Energy:   -76.06026290684423

   => Energetics <=

    Nuclear Repulsion Energy =              9.2028668803478340
    One-Electron Energy =                -123.0570314544199988
    Two-Electron Energy =                  37.7939016672279422
    Total Energy =                        -76.0602629068442297
 Dipole X            :         -5.2317367            4.9413371           -0.2903995
 Dipole Y            :         29.5480232          -30.2617491           -0.7137260
 Dipole Z            :         44.1198052          -43.9971044            0.1227007
 Magnitude           :                                                    0.7802513
  Basis Set: (AUG-CC-PVTZ AUX)
    Blend: AUG-CC-PVTZ-RI + DEF2-QZVPP-RI
	 Reference Energy          =     -76.0602629068442297 [Eh]
	 Singles Energy            =      -0.0000000000000000 [Eh]
	 Same-Spin Energy          =      -0.0683759375213466 [Eh]
	 Opposite-Spin Energy      =      -0.2156168890267362 [Eh]
	 Correlation Energy        =      -0.2839928265480829 [Eh]
	 Total Energy              =     -76.3442557333923162 [Eh]

	 ================> DF-SCS-MP2 Energies <==================
	-----------------------------------------------------------
	 SCS Same-Spin Scale       =       0.3333333333333333 [-]
	 SCS Opposite-Spin Scale   =       1.2000000000000000 [-]
	 SCS Same-Spin Energy      =      -0.0227919791737822 [Eh]
	 SCS Opposite-Spin Energy  =      -0.2587402668320835 [Eh]
	 SCS Correlation Energy    =      -0.2815322460058657 [Eh]
	 SCS Total Energy          =     -76.3417951528500964 [Eh]
	-----------------------------------------------------------

*** Psi4 exiting successfully. Buy a developer a beer!
