                               Psi4 1.9 release

  ==> Input File <==

--------------------------------------------------------------------------
MEMORY 60 GB

molecule dimer {
0 1
Gh(K)      0.000000     0.000000     0.000000
Gh(O)     -1.202188     2.642841     0.692677
Gh(H)     -0.359877     2.846537     0.288544
Gh(H)     -1.204085     2.921992     1.633837
O         -1.785275    -1.619405     1.542860
H         -1.608427    -2.541342     1.315844
H         -2.705446    -1.468932     1.288631
Gh(O)      0.144826     0.555459     2.652150
Gh(H)     -0.007468     1.382754     3.068522
Gh(H)      0.885053     0.138197     3.140295
Gh(O)      0.561667     0.361770    -2.784131
Gh(H)      0.458919    -0.179426    -3.508356
Gh(H)      0.977542     1.097592    -3.183885
Gh(O)      1.915812    -1.620111     0.708210
Gh(H)      2.736568    -1.603689     1.185820
Gh(H)      2.168479    -1.743309    -0.203061
Gh(O)      1.244176     2.226543    -0.413552
Gh(H)      1.113277     2.980785    -0.948090
Gh(H)      2.029386     2.478591     0.106543

units ang
no_reorient
no_com
symmetry c1
}

set {
basis        aug-cc-pVTZ
scf_type     df
}

energy("mp2")
--------------------------------------------------------------------------

    Molecular point group: c1

    Geometry (in Angstrom), charge = 0, multiplicity = 1:

       Center              X                  Y                   Z               Mass
    ------------   -----------------  -----------------  -----------------  -----------------
      Gh(K)           0.000000000000     0.000000000000     0.000000000000    38.963706486400
      Gh(O)          -1.202188000000     2.642841000000     0.692677000000    15.994914619570
      Gh(H)          -0.359877000000     2.846537000000     0.288544000000     1.007825032230
      Gh(H)          -1.204085000000     2.921992000000     1.633837000000     1.007825032230
         O           -1.785275000000    -1.619405000000     1.542860000000    15.994914619570
         H           -1.608427000000    -2.541342000000     1.315844000000     1.007825032230
         H           -2.705446000000    -1.468932000000     1.288631000000     1.007825032230
      Gh(O)           0.144826000000     0.555459000000     2.652150000000    15.994914619570
      Gh(H)          -0.007468000000     1.382754000000     3.068522000000     1.007825032230
      Gh(H)           0.885053000000     0.138197000000     3.140295000000     1.007825032230
      Gh(O)           0.561667000000     0.361770000000    -2.784131000000    15.994914619570
      Gh(H)           0.458919000000    -0.179426000000    -3.508356000000     1.007825032230
      Gh(H)           0.977542000000     1.097592000000    -3.183885000000     1.007825032230
      Gh(O)           1.915812000000    -1.620111000000     0.708210000000    15.994914619570
      Gh(H)           2.736568000000    -1.603689000000     1.185820000000     1.007825032230
      Gh(H)           2.168479000000    -1.743309000000    -0.203061000000     1.007825032230
      Gh(O)           1.244176000000     2.226543000000    -0.413552000000    15.994914619570
      Gh(H)           1.113277000000     2.980785000000    -0.948090000000     1.007825032230
      Gh(H)           2.029386000000     2.478591000000     0.106543000000     1.007825032230

  Charge       = 0
  Multiplicity = 1
  Basis Set: AUG-CC-PVTZ
    Blend: AUG-CC-PVTZ
  Basis Set: (AUG-CC-PVTZ AUX)
    Blend: AUG-CC-PVTZ-JKFIT + DEF2-UNIVERSAL-JKFIT

    Orbital Energies [Eh]
    ---------------------

    Doubly Occupied:

       1A    -20.568344     2A     -1.348528     3A     -0.714099
       4A     -0.581957     5A     -0.509416

  @DF-RHF Final Energy:   -76.05997435736924

   => Energetics <=

    Nuclear Repulsion Energy =              9.1086546928141487
    One-Electron Energy =                -122.8925663680923321
    Two-Electron Energy =                  37.7239373179089270
    Total Energy =                        -76.0599743573692422
 Dipole X            :         34.6489352          -35.1414850           -0.4925497
 Dipole Y            :         31.5488013          -32.0601750           -0.5113737
 Dipole Z            :        -28.5651713           28.2464072           -0.3187640
 Magnitude           :                                                    0.7782794
  Basis Set: (AUG-CC-PVTZ AUX)
    Blend: AUG-CC-PVTZ-RI + DEF2-QZVPP-RI
	 Reference Energy          =     -76.0599743573692422 [Eh]
	 Singles Energy            =      -0.0000000000000000 [Eh]
	 Same-Spin Energy          =      -0.0685274104557199 [Eh]
	 Opposite-Spin Energy      =      -0.2159963792425232 [Eh]
	 Correlation Energy        =      -0.2845237896982431 [Eh]
	 Total Energy              =     -76.3444981470674833 [Eh]

	 ================> DF-SCS-MP2 Energies <==================
	-----------------------------------------------------------
	 SCS Same-Spin Scale       =       0.3333333333333333 [-]
	 SCS Opposite-Spin Scale   =       1.2000000000000000 [-]
	 SCS Same-Spin Energy      =      -0.0228424701519066 [Eh]
	 SCS Opposite-Spin Energy  =      -0.2591956550910278 [Eh]
	 SCS Correlation Energy    =      -0.2820381252429345 [Eh]
	 SCS Total Energy          =     -76.3420124826121764 [Eh]
	-----------------------------------------------------------

*** Psi4 exiting successfully. Buy a developer a beer!
