                               Psi4 1.9 release

  ==> Input File <==

--------------------------------------------------------------------------
MEMORY 60 GB

molecule dimer {
1 1
K          0.000000     0.000000     0.000000
Gh(O)     -2.253676    -1.392416     0.421368
Gh(H)     -3.137956    -1.215387     0.063811
Gh(H)     -2.021472    -2.191510    -0.025516
Gh(O)     -0.318217     0.409348    -2.718643
Gh(H)      0.311346     1.085045    -3.064275
Gh(H)     -0.323786    -0.455586    -3.131456
Gh(O)      1.052869    -1.442679     2.266862
Gh(H)      1.475362    -2.293476     2.206604
Gh(H)      1.643426    -0.997578     2.931710
Gh(O)      0.676884    -2.513134    -0.722992
Gh(H)     -0.026309    -3.165808    -0.916704
Gh(H)      1.255836    -2.918566    -0.007824

units ang
no_reorient
no_com
symmetry c1
}

set {
basis        aug-cc-pVTZ
scf_type     df
}

energy("mp2")
--------------------------------------------------------------------------

    Molecular point group: c1

    Geometry (in Angstrom), charge = 1, multiplicity = 1:

       Center              X                  Y                   Z               Mass
    ------------   -----------------  -----------------  -----------------  -----------------
         K            0.000000000000     0.000000000000     0.000000000000    38.963706486400
      Gh(O)          -2.253676000000    -1.392416000000     0.421368000000    15.994914619570
      Gh(H)          -3.137956000000    -1.215387000000     0.063811000000     1.007825032230
      Gh(H)          -2.021472000000    -2.191510000000    -0.025516000000     1.007825032230
      Gh(O)          -0.318217000000     0.409348000000    -2.718643000000    15.994914619570
      Gh(H)           0.311346000000     1.085045000000    -3.064275000000     1.007825032230
      Gh(H)          -0.323786000000    -0.455586000000    -3.131456000000     1.007825032230
      Gh(O)           1.052869000000    -1.442679000000     2.266862000000    15.994914619570
      Gh(H)           1.475362000000    -2.293476000000     2.206604000000     1.007825032230
      Gh(H)           1.643426000000    -0.997578000000     2.931710000000     1.007825032230
      Gh(O)           0.676884000000    -2.513134000000    -0.722992000000    15.994914619570
      Gh(H)          -0.026309000000    -3.165808000000    -0.916704000000     1.007825032230
      Gh(H)           1.255836000000    -2.918566000000    -0.007824000000     1.007825032230

  Charge       = 1
  Multiplicity = 1
  Basis Set: AUG-CC-PVTZ
    Blend: AUG-CC-PVTZ
  Basis Set: (AUG-CC-PVTZ AUX)
    Blend: AUG-CC-PVTZ-JKFIT + DEF2-UNIVERSAL-JKFIT

    Orbital Energies [Eh]
    ---------------------

    Doubly Occupied:

       1A   -133.752769     2A    -14.708410     3A    -11.738472
       4A    -11.738471     5A    -11.738470     6A     -1.963984
       7A     -1.170673     8A     -1.170661     9A     -1.170645

  @DF-RHF Final Energy:  -599.01751462165112

   => Energetics <=

    Nuclear Repulsion Energy =              0.0000000000000000
    One-Electron Energy =                -819.7299178844497192
    Two-Electron Energy =                 220.7124032627986310
    Total Energy =                       -599.0175146216511166
 Dipole X            :         -0.0000687            0.0000000           -0.0000687
 Dipole Y            :         -0.0004535            0.0000000           -0.0004535
 Dipole Z            :         -0.0001578            0.0000000           -0.0001578
 Magnitude           :                                                    0.0004851
  Basis Set: (AUG-CC-PVTZ AUX)
    Blend: AUG-CC-PVTZ-RI + DEF2-QZVPP-RI
	 Reference Energy          =    -599.0175146216511166 [Eh]
	 Singles Energy            =      -0.0000000000000000 [Eh]
	 Same-Spin Energy          =      -0.0346826028377071 [Eh]
	 Opposite-Spin Energy      =      -0.0835393502157703 [Eh]
	 Correlation Energy        =      -0.1182219530534774 [Eh]
	 Total Energy              =    -599.1357365747045378 [Eh]

	 ================> DF-SCS-MP2 Energies <==================
	-----------------------------------------------------------
	 SCS Same-Spin Scale       =       0.3333333333333333 [-]
	 SCS Opposite-Spin Scale   =       1.2000000000000000 [-]
	 SCS Same-Spin Energy      =      -0.0115608676125690 [Eh]
	 SCS Opposite-Spin Energy  =      -0.1002472202589243 [Eh]
	 SCS Correlation Energy    =      -0.1118080878714934 [Eh]
	 SCS Total Energy          =    -599.1293227095226257 [Eh]
	-----------------------------------------------------------

*** Psi4 exiting successfully. Buy a developer a beer!
