                               Psi4 1.9 release

  ==> Input File <==

--------------------------------------------------------------------------
MEMORY 60 GB

molecule dimer {
1 1
K          0.000000     0.000000     0.000000
Gh(O)     -1.997620    -2.162061    -0.813178
Gh(H)     -2.773802    -1.606737    -0.549995
Gh(H)     -1.592061    -2.558739    -0.032556
Gh(O)      0.414858    -0.225799    -2.631086
Gh(H)      1.352700    -0.013745    -2.767381
Gh(H)      0.050193    -0.688976    -3.401864
Gh(O)     -2.631714     0.983286    -0.637732
Gh(H)     -3.404075     1.007670    -0.141584
Gh(H)     -2.832941     1.458279    -1.450706
Gh(O)      1.202232    -0.677975     2.440207
Gh(H)      2.075392    -1.063868     2.278000
Gh(H)      0.927402    -1.109896     3.256085
Gh(O)     -0.234521    -2.746344     1.303637
Gh(H)     -0.487511    -2.096140     1.982125
Gh(H)      0.699833    -2.781795     1.295536
Gh(O)      0.306745     2.542586     1.554188
Gh(H)      0.463644     2.471048     2.452764
Gh(H)     -0.325900     3.267043     1.361577

units ang
no_reorient
no_com
symmetry c1
}

set {
basis        aug-cc-pVTZ
scf_type     df
}

energy("mp2")
--------------------------------------------------------------------------

    Molecular point group: c1

    Geometry (in Angstrom), charge = 1, multiplicity = 1:

       Center              X                  Y                   Z               Mass
    ------------   -----------------  -----------------  -----------------  -----------------
         K            0.000000000000     0.000000000000     0.000000000000    38.963706486400
      Gh(O)          -1.997620000000    -2.162061000000    -0.813178000000    15.994914619570
      Gh(H)          -2.773802000000    -1.606737000000    -0.549995000000     1.007825032230
      Gh(H)          -1.592061000000    -2.558739000000    -0.032556000000     1.007825032230
      Gh(O)           0.414858000000    -0.225799000000    -2.631086000000    15.994914619570
      Gh(H)           1.352700000000    -0.013745000000    -2.767381000000     1.007825032230
      Gh(H)           0.050193000000    -0.688976000000    -3.401864000000     1.007825032230
      Gh(O)          -2.631714000000     0.983286000000    -0.637732000000    15.994914619570
      Gh(H)          -3.404075000000     1.007670000000    -0.141584000000     1.007825032230
      Gh(H)          -2.832941000000     1.458279000000    -1.450706000000     1.007825032230
      Gh(O)           1.202232000000    -0.677975000000     2.440207000000    15.994914619570
      Gh(H)           2.075392000000    -1.063868000000     2.278000000000     1.007825032230
      Gh(H)           0.927402000000    -1.109896000000     3.256085000000     1.007825032230
      Gh(O)          -0.234521000000    -2.746344000000     1.303637000000    15.994914619570
      Gh(H)          -0.487511000000    -2.096140000000     1.982125000000     1.007825032230
      Gh(H)           0.699833000000    -2.781795000000     1.295536000000     1.007825032230
      Gh(O)           0.306745000000     2.542586000000     1.554188000000    15.994914619570
      Gh(H)           0.463644000000     2.471048000000     2.452764000000     1.007825032230
      Gh(H)          -0.325900000000     3.267043000000     1.361577000000     1.007825032230

  Charge       = 1
  Multiplicity = 1
  Basis Set: AUG-CC-PVTZ
    Blend: AUG-CC-PVTZ
  Basis Set: (AUG-CC-PVTZ AUX)
    Blend: AUG-CC-PVTZ-JKFIT + DEF2-UNIVERSAL-JKFIT

    Orbital Energies [Eh]
    ---------------------

    Doubly Occupied:

       1A   -133.752577     2A    -14.708259     3A    -11.738320
       4A    -11.738319     5A    -11.738319     6A     -1.963909
       7A     -1.170619     8A     -1.170603     9A     -1.170596

  @DF-RHF Final Energy:  -599.01751641827923

   => Energetics <=

    Nuclear Repulsion Energy =              0.0000000000000000
    One-Electron Energy =                -819.7319934956462930
    Two-Electron Energy =                 220.7144770773670075
    Total Energy =                       -599.0175164182792287
 Dipole X            :         -0.0000798            0.0000000           -0.0000798
 Dipole Y            :         -0.0001266            0.0000000           -0.0001266
 Dipole Z            :          0.0000112            0.0000000            0.0000112
 Magnitude           :                                                    0.0001501
  Basis Set: (AUG-CC-PVTZ AUX)
    Blend: AUG-CC-PVTZ-RI + DEF2-QZVPP-RI
	 Reference Energy          =    -599.0175164182792287 [Eh]
	 Singles Energy            =      -0.0000000000000000 [Eh]
	 Same-Spin Energy          =      -0.0372222492872874 [Eh]
	 Opposite-Spin Energy      =      -0.0906156929747908 [Eh]
	 Correlation Energy        =      -0.1278379422620783 [Eh]
	 Total Energy              =    -599.1453543605413188 [Eh]

	 ================> DF-SCS-MP2 Energies <==================
	-----------------------------------------------------------
	 SCS Same-Spin Scale       =       0.3333333333333333 [-]
	 SCS Opposite-Spin Scale   =       1.2000000000000000 [-]
	 SCS Same-Spin Energy      =      -0.0124074164290958 [Eh]
	 SCS Opposite-Spin Energy  =      -0.1087388315697490 [Eh]
	 SCS Correlation Energy    =      -0.1211462479988448 [Eh]
	 SCS Total Energy          =    -599.1386626662780372 [Eh]
	-----------------------------------------------------------

*** Psi4 exiting successfully. Buy a developer a beer!
