                               Psi4 1.9 release

  ==> Input File <==

--------------------------------------------------------------------------
MEMORY 60 GB

molecule dimer {
1 1
K      0.000000     0.000000     0.000000
--
0 1
O      2.160859     1.290133    -0.400753
H      1.851863     2.165893    -0.347882
H      2.858507     1.265871    -1.028996
O     -0.224116     2.890704    -0.587416
H      0.184621     3.724005    -0.298127
H     -0.628412     3.022379    -1.479339
O     -0.596279     0.293745     2.645164
H     -0.155475     0.327230     3.510654
H     -0.745470     1.203896     2.319434
O     -2.653038     0.116948    -0.474000
H     -3.072390     0.994919    -0.656688
H     -3.153251    -0.529245    -0.935285
O      0.199903    -1.131038    -2.302949
H      0.210418    -2.106909    -2.322390
H      1.094372    -1.077689    -2.576535
O      1.590735    -1.740659     0.686324
H      2.345406    -1.342599     1.136997
H      1.996290    -2.458499     0.178618

units ang
no_reorient
no_com
symmetry c1
}

set {
basis        aug-cc-pVTZ
scf_type     df
}

energy("mp2", bsse_type="cp")
--------------------------------------------------------------------------

                               Psi4 1.9 release
    Molecular point group: c1
  Charge       = 0
  Multiplicity = 1
  Basis Set: AUG-CC-PVTZ
    Blend: AUG-CC-PVTZ
  Basis Set: (AUG-CC-PVTZ AUX)
    Blend: AUG-CC-PVTZ-JKFIT + DEF2-UNIVERSAL-JKFIT
  @DF-RHF Final Energy:  -456.32911536700658
    Total Energy =                       -456.3291153670065796
 Dipole X            :        -11.4642908           12.4929624            1.0286716
 Dipole Y            :        -34.5845801           35.8063719            1.2217918
 Dipole Z            :         10.1948890          -11.2789797           -1.0840907
 Magnitude           :                                                    1.9303350
  Basis Set: (AUG-CC-PVTZ AUX)
    Blend: AUG-CC-PVTZ-RI + DEF2-QZVPP-RI
	 Reference Energy          =    -456.3291153670065796 [Eh]
	 Singles Energy            =      -0.0000000000000000 [Eh]
	 Same-Spin Energy          =      -0.4148006437440677 [Eh]
	 Opposite-Spin Energy      =      -1.3010203787013186 [Eh]
	 Correlation Energy        =      -1.7158210224453863 [Eh]
	 Total Energy              =    -458.0449363894519479 [Eh]
	 SCS Total Energy          =    -458.0286067026962087 [Eh]
                               Psi4 1.9 release
    Molecular point group: c1
  Multiplicity = 1
  Basis Set: AUG-CC-PVTZ
    Blend: AUG-CC-PVTZ
  Basis Set: (AUG-CC-PVTZ AUX)
    Blend: AUG-CC-PVTZ-JKFIT + DEF2-UNIVERSAL-JKFIT
  @DF-RHF Final Energy:  -599.01751756585224
    Total Energy =                       -599.0175175658522448
  Basis Set: (AUG-CC-PVTZ AUX)
	 Singles Energy            =      -0.0000000000000000 [Eh]
	 Same-Spin Energy          =      -0.0404001190649811 [Eh]
	 Opposite-Spin Energy      =      -0.0997981010209118 [Eh]
	 Correlation Energy        =      -0.1401982200858929 [Eh]
	 Total Energy              =    -599.1577157859381941 [Eh]
	 SCS Total Energy          =    -599.1507419934323480 [Eh]
                               Psi4 1.9 release
    Molecular point group: c1

    Geometry (in Bohr), charge = 1, multiplicity = 1:

       Center              X                  Y                   Z               Mass
    ------------   -----------------  -----------------  -----------------  -----------------
         K            0.000000000000     0.000000000000     0.000000000000    38.963706486400
         O            4.083431705731     2.437998035415    -0.757313413956    15.994914619570
         H            3.499513891869     4.092944587046    -0.657401703977     1.007825032230
         H            5.401795357704     2.392149500159    -1.944520624192     1.007825032230
         O           -0.423517860333     5.462638869765    -1.110055361712    15.994914619570
         H            0.348883127008     7.037349539836    -0.563378380604     1.007825032230
         H           -1.187526573951     5.711468557335    -2.795545556709     1.007825032230
         O           -1.126804004362     0.555097600723     4.998635516921    15.994914619570
         H           -0.293805169356     0.618375080034     6.634174581243     1.007825032230
         H           -1.408734134745     2.275033723534     4.383095026075     1.007825032230
         O           -5.013515220432     0.220999690920    -0.895730183467    15.994914619570
         H           -5.805975650595     1.880124427014    -1.240960469875     1.007825032230
         H           -5.958780794826    -1.000128103268    -1.767432499249     1.007825032230
         O            0.377761921657    -2.137352057486    -4.351942890897    15.994914619570
         H            0.397632391867    -3.981480981262    -4.388681056502     1.007825032230
         H            2.068063359370    -2.036537058419    -4.868945502656     1.007825032230
         O            3.006053488180    -3.289368787813     1.296964393329    15.994914619570
         H            4.432174993006    -2.537144406314     2.148612935467     1.007825032230
         H            3.772441366990    -4.645889789712     0.337539101077     1.007825032230

  Charge       = 1
  Multiplicity = 1
  Basis Set: AUG-CC-PVTZ
    Blend: AUG-CC-PVTZ
  Basis Set: (AUG-CC-PVTZ AUX)
    Blend: AUG-CC-PVTZ-JKFIT + DEF2-UNIVERSAL-JKFIT

    Orbital Energies [Eh]
    ---------------------

    Doubly Occupied:

       1A   -133.555300     2A    -20.721892     3A    -20.710799
       4A    -20.704804     5A    -20.700088     6A    -20.693925
       7A    -20.690830     8A    -14.514865     9A    -11.544582
      10A    -11.544485    11A    -11.544447    12A     -1.784048
      13A     -1.509457    14A     -1.508468    15A     -1.494948
      16A     -1.492704    17A     -1.479133    18A     -1.467496
      19A     -0.999385    20A     -0.997677    21A     -0.996367
      22A     -0.884996    23A     -0.866911    24A     -0.850247
      25A     -0.848400    26A     -0.841967    27A     -0.835652
      28A     -0.756097    29A     -0.736369    30A     -0.733886
      31A     -0.729885    32A     -0.713317    33A     -0.699496
      34A     -0.671193    35A     -0.662070    36A     -0.651539
      37A     -0.648921    38A     -0.640369    39A     -0.633554

  @DF-RHF Final Energy: -1055.45133473670398

   => Energetics <=

    Nuclear Repulsion Energy =            471.0969854027170527
    One-Electron Energy =               -2384.9754980691832316
    Two-Electron Energy =                 858.4271779297620242
    Total Energy =                      -1055.4513347367042115
 Dipole X            :        -11.2884430           12.4929624            1.2045194
 Dipole Y            :        -34.5511884           35.8063719            1.2551835
 Dipole Z            :         10.1172509          -11.2789797           -1.1617288
 Magnitude           :                                                    2.0918810
  Basis Set: (AUG-CC-PVTZ AUX)
    Blend: AUG-CC-PVTZ-RI + DEF2-QZVPP-RI
	 Reference Energy          =   -1055.4513347367039842 [Eh]
	 Singles Energy            =      -0.0000000000000000 [Eh]
	 Same-Spin Energy          =      -0.4600272619184220 [Eh]
	 Opposite-Spin Energy      =      -1.4003198580245297 [Eh]
	 Correlation Energy        =      -1.8603471199429518 [Eh]
	 Total Energy              =   -1057.3116818566468282 [Eh]

	 ================> DF-SCS-MP2 Energies <==================
	-----------------------------------------------------------
	 SCS Same-Spin Scale       =       0.3333333333333333 [-]
	 SCS Opposite-Spin Scale   =       1.2000000000000000 [-]
	 SCS Same-Spin Energy      =      -0.1533424206394740 [Eh]
	 SCS Opposite-Spin Energy  =      -1.6803838296294356 [Eh]
	 SCS Correlation Energy    =      -1.8337262502689096 [Eh]
	 SCS Total Energy          =   -1057.2850609869728942 [Eh]
	-----------------------------------------------------------

*** Psi4 exiting successfully. Buy a developer a beer!
