                               Psi4 1.9 release

  ==> Input File <==

--------------------------------------------------------------------------
MEMORY 60 GB

molecule dimer {
1 1
K          0.000000     0.000000     0.000000
O          1.380814     0.870128    -2.552071
H          0.720240     1.596362    -2.443970
H          1.177395     0.252244    -3.293213
O          1.273503     1.903801     1.295069
H          1.989230     1.514260     1.865592
H          0.801927     2.486720     1.867390
O         -2.462575     1.133906     0.643205
H         -2.766838     0.224028     0.624927
H         -2.781846     1.533607    -0.169164
O         -2.169681    -1.506407    -1.529652
H         -2.399596    -2.128795    -2.205315
H         -2.797931    -0.796605    -1.523323
O          1.163535    -1.097883     2.056202
H          2.105116    -0.983745     2.128536
H          0.817248    -1.314531     2.991563

units ang
no_reorient
no_com
symmetry c1
}

set {
basis        aug-cc-pVTZ
scf_type     df
}

energy("mp2")
--------------------------------------------------------------------------

    Molecular point group: c1

    Geometry (in Angstrom), charge = 1, multiplicity = 1:

       Center              X                  Y                   Z               Mass
    ------------   -----------------  -----------------  -----------------  -----------------
         K            0.000000000000     0.000000000000     0.000000000000    38.963706486400
         O            1.380814000000     0.870128000000    -2.552071000000    15.994914619570
         H            0.720240000000     1.596362000000    -2.443970000000     1.007825032230
         H            1.177395000000     0.252244000000    -3.293213000000     1.007825032230
         O            1.273503000000     1.903801000000     1.295069000000    15.994914619570
         H            1.989230000000     1.514260000000     1.865592000000     1.007825032230
         H            0.801927000000     2.486720000000     1.867390000000     1.007825032230
         O           -2.462575000000     1.133906000000     0.643205000000    15.994914619570
         H           -2.766838000000     0.224028000000     0.624927000000     1.007825032230
         H           -2.781846000000     1.533607000000    -0.169164000000     1.007825032230
         O           -2.169681000000    -1.506407000000    -1.529652000000    15.994914619570
         H           -2.399596000000    -2.128795000000    -2.205315000000     1.007825032230
         H           -2.797931000000    -0.796605000000    -1.523323000000     1.007825032230
         O            1.163535000000    -1.097883000000     2.056202000000    15.994914619570
         H            2.105116000000    -0.983745000000     2.128536000000     1.007825032230
         H            0.817248000000    -1.314531000000     2.991563000000     1.007825032230

  Charge       = 1
  Multiplicity = 1
  Basis Set: AUG-CC-PVTZ
    Blend: AUG-CC-PVTZ
  Basis Set: (AUG-CC-PVTZ AUX)
    Blend: AUG-CC-PVTZ-JKFIT + DEF2-UNIVERSAL-JKFIT

    Orbital Energies [Eh]
    ---------------------

    Doubly Occupied:

       1A   -133.615346     2A    -20.726722     3A    -20.726045
       4A    -20.717485     5A    -20.711411     6A    -20.702565
       7A    -14.573164     8A    -11.603023     9A    -11.603012
      10A    -11.602909    11A     -1.836047    12A     -1.514867
      13A     -1.510142    14A     -1.500629    15A     -1.494849
      16A     -1.468771    17A     -1.047316    18A     -1.045907
      19A     -1.044219    20A     -0.890054    21A     -0.878937
      22A     -0.868144    23A     -0.856621    24A     -0.852625
      25A     -0.744155    26A     -0.742986    27A     -0.738125
      28A     -0.734274    29A     -0.697434    30A     -0.676089
      31A     -0.673815    32A     -0.666278    33A     -0.651847
      34A     -0.642502

  @DF-RHF Final Energy:  -979.37728590550307

   => Energetics <=

    Nuclear Repulsion Energy =            341.8083228690752549
    One-Electron Energy =               -2021.6545783429173753
    Two-Electron Energy =                 700.4689695683390482
    Total Energy =                       -979.3772859055030722
 Dipole X            :         17.2239343          -18.2363995           -1.0124652
 Dipole Y            :        -24.3121857           24.2109916           -0.1011941
 Dipole Z            :          1.7441610           -1.6156270            0.1285340
 Magnitude           :                                                    1.0255959
  Basis Set: (AUG-CC-PVTZ AUX)
    Blend: AUG-CC-PVTZ-RI + DEF2-QZVPP-RI
	 Reference Energy          =    -979.3772859055030722 [Eh]
	 Singles Energy            =      -0.0000000000000000 [Eh]
	 Same-Spin Energy          =      -0.3846289804913993 [Eh]
	 Opposite-Spin Energy      =      -1.1722840166733575 [Eh]
	 Correlation Energy        =      -1.5569129971647568 [Eh]
	 Total Energy              =    -980.9341989026678448 [Eh]

	 ================> DF-SCS-MP2 Energies <==================
	-----------------------------------------------------------
	 SCS Same-Spin Scale       =       0.3333333333333333 [-]
	 SCS Opposite-Spin Scale   =       1.2000000000000000 [-]
	 SCS Same-Spin Energy      =      -0.1282096601637998 [Eh]
	 SCS Opposite-Spin Energy  =      -1.4067408200080289 [Eh]
	 SCS Correlation Energy    =      -1.5349504801718288 [Eh]
	 SCS Total Energy          =    -980.9122363856748734 [Eh]
	-----------------------------------------------------------

*** Psi4 exiting successfully. Buy a developer a beer!
