                               Psi4 1.9 release

  ==> Input File <==

--------------------------------------------------------------------------
MEMORY 60 GB

molecule dimer {
1 1
K      0.000000     0.000000     0.000000
--
0 1
O     -0.031652     2.144978    -1.608259
H      0.277586     1.427590    -2.192862
H     -1.017221     2.264700    -1.738852
O     -0.788931    -0.740656     2.321277
H     -1.501247    -0.231443     2.705598
H     -0.076222    -0.711789     2.986251
O     -1.974576    -1.628499    -1.490287
H     -2.671600    -1.230877    -0.969768
H     -2.022568    -2.568609    -1.304728
O     -0.874063     1.982276     2.140067
H     -1.510546     2.328273     1.516840
H     -1.133805     2.374863     2.943937
O      2.540164     1.201918     0.024099
H      2.914567     1.138412     0.906595
H      2.914729     2.003474    -0.363718

units ang
no_reorient
no_com
symmetry c1
}

set {
basis        aug-cc-pVTZ
scf_type     df
}

energy("mp2", bsse_type="cp")
--------------------------------------------------------------------------

                               Psi4 1.9 release
    Molecular point group: c1
  Charge       = 0
  Multiplicity = 1
  Basis Set: AUG-CC-PVTZ
    Blend: AUG-CC-PVTZ
  Basis Set: (AUG-CC-PVTZ AUX)
    Blend: AUG-CC-PVTZ-JKFIT + DEF2-UNIVERSAL-JKFIT
  @DF-RHF Final Energy:  -380.28552856228504
    Total Energy =                       -380.2855285622850374
 Dipole X            :         23.3318561          -24.2995933           -0.9677372
 Dipole Y            :        -56.9826073           57.5888934            0.6062861
 Dipole Z            :        -28.3521796           29.4503782            1.0981986
 Magnitude           :                                                    1.5843416
  Basis Set: (AUG-CC-PVTZ AUX)
    Blend: AUG-CC-PVTZ-RI + DEF2-QZVPP-RI
	 Reference Energy          =    -380.2855285622850374 [Eh]
	 Singles Energy            =      -0.0000000000000000 [Eh]
	 Same-Spin Energy          =      -0.3445513821383977 [Eh]
	 Opposite-Spin Energy      =      -1.0817337395419719 [Eh]
	 Correlation Energy        =      -1.4262851216803696 [Eh]
	 Total Energy              =    -381.7118136839654312 [Eh]
	 SCS Total Energy          =    -381.6984595104482310 [Eh]
                               Psi4 1.9 release
    Molecular point group: c1
  Multiplicity = 1
  Basis Set: AUG-CC-PVTZ
    Blend: AUG-CC-PVTZ
  Basis Set: (AUG-CC-PVTZ AUX)
    Blend: AUG-CC-PVTZ-JKFIT + DEF2-UNIVERSAL-JKFIT
  @DF-RHF Final Energy:  -599.01751617872287
    Total Energy =                       -599.0175161787228717
  Basis Set: (AUG-CC-PVTZ AUX)
	 Singles Energy            =      -0.0000000000000000 [Eh]
	 Same-Spin Energy          =      -0.0372716311409088 [Eh]
	 Opposite-Spin Energy      =      -0.0908462508669940 [Eh]
	 Correlation Energy        =      -0.1281178820079028 [Eh]
	 Total Energy              =    -599.1456340607307993 [Eh]
	 SCS Total Energy          =    -599.1389555568102878 [Eh]
                               Psi4 1.9 release
    Molecular point group: c1

    Geometry (in Bohr), charge = 1, multiplicity = 1:

       Center              X                  Y                   Z               Mass
    ------------   -----------------  -----------------  -----------------  -----------------
         K            0.000000000000     0.000000000000     0.000000000000    38.963706486400
         O           -0.059813611323     4.053420965132    -3.039169048803    15.994914619570
         H            0.524561516261     2.697754119442    -4.143908610924     1.007825032230
         H           -1.922269099064     4.279662756324    -3.285954052705     1.007825032230
         O           -1.490863521884    -1.399636993177     4.386577791324    15.994914619570
         H           -2.836945676665    -0.437363883654     5.112839225586     1.007825032230
         H           -0.144038704735    -1.345086269114     5.643196531875     1.007825032230
         O           -3.731407853902    -3.077417105582    -2.816234278330    15.994914619570
         H           -5.048592316773    -2.326020424125    -1.832595925233     1.007825032230
         H           -3.822099590115    -4.853967533386    -2.465578588216     1.007825032230
         O           -1.651739686396     3.745958745068     4.044140520130    15.994914619570
         H           -2.854518239906     4.399798315298     2.866412176139     1.007825032230
         H           -2.142580929675     4.487840655483     5.563234660602     1.007825032230
         O            4.800214273747     2.271295845258     0.045540509897    15.994914619570
         H            5.507733404297     2.151286897935     1.713216256709     1.007825032230
         H            5.508039539930     3.786017159475    -0.687327406899     1.007825032230

  Charge       = 1
  Multiplicity = 1
  Basis Set: AUG-CC-PVTZ
    Blend: AUG-CC-PVTZ
  Basis Set: (AUG-CC-PVTZ AUX)
    Blend: AUG-CC-PVTZ-JKFIT + DEF2-UNIVERSAL-JKFIT

    Orbital Energies [Eh]
    ---------------------

    Doubly Occupied:

       1A   -133.620589     2A    -20.721747     3A    -20.712980
       4A    -20.712910     5A    -20.710275     6A    -20.703385
       7A    -14.578423     8A    -11.608362     9A    -11.608231
      10A    -11.608119    11A     -1.841475    12A     -1.514890
      13A     -1.500264    14A     -1.497788    15A     -1.491786
      16A     -1.487753    17A     -1.053035    18A     -1.051963
      19A     -1.048342    20A     -0.873977    21A     -0.865999
      22A     -0.862888    23A     -0.862836    24A     -0.853943
      25A     -0.751293    26A     -0.737902    27A     -0.733647
      28A     -0.729636    29A     -0.722409    30A     -0.676532
      31A     -0.663980    32A     -0.659783    33A     -0.648703
      34A     -0.644419

  @DF-RHF Final Energy:  -979.37856990239084

   => Energetics <=

    Nuclear Repulsion Energy =            347.8368382472816620
    One-Electron Energy =               -2033.7102815013288364
    Two-Electron Energy =                 706.4948733516564516
    Total Energy =                       -979.3785699023908364
 Dipole X            :         23.2483862          -24.2995933           -1.0512071
 Dipole Y            :        -56.7152618           57.5888934            0.8736317
 Dipole Z            :        -28.1632261           29.4503782            1.2871522
 Magnitude           :                                                    1.8775061
  Basis Set: (AUG-CC-PVTZ AUX)
    Blend: AUG-CC-PVTZ-RI + DEF2-QZVPP-RI
	 Reference Energy          =    -979.3785699023908364 [Eh]
	 Singles Energy            =      -0.0000000000000000 [Eh]
	 Same-Spin Energy          =      -0.3852107764286087 [Eh]
	 Opposite-Spin Energy      =      -1.1728368208313191 [Eh]
	 Correlation Energy        =      -1.5580475972599279 [Eh]
	 Total Energy              =    -980.9366174996507652 [Eh]

	 ================> DF-SCS-MP2 Energies <==================
	-----------------------------------------------------------
	 SCS Same-Spin Scale       =       0.3333333333333333 [-]
	 SCS Opposite-Spin Scale   =       1.2000000000000000 [-]
	 SCS Same-Spin Energy      =      -0.1284035921428696 [Eh]
	 SCS Opposite-Spin Energy  =      -1.4074041849975829 [Eh]
	 SCS Correlation Energy    =      -1.5358077771404526 [Eh]
	 SCS Total Energy          =    -980.9143776795312988 [Eh]
	-----------------------------------------------------------

*** Psi4 exiting successfully. Buy a developer a beer!
