                               Psi4 1.9 release

  ==> Input File <==

--------------------------------------------------------------------------
MEMORY 60 GB

molecule dimer {
0 1
Gh(K)      0.000000     0.000000     0.000000
Gh(O)      0.704593     2.672626    -0.531703
Gh(H)      0.790074     2.936738     0.376140
Gh(H)      1.317312     3.212929    -0.980840
Gh(O)     -1.197713    -1.859512    -1.372910
Gh(H)     -2.150333    -1.931130    -1.386109
Gh(H)     -0.850128    -2.373238    -2.128254
Gh(O)      1.635817    -0.907089     2.354190
Gh(H)      1.210872    -0.164479     2.804010
Gh(H)      1.161959    -1.673206     2.621161
Gh(O)     -2.270673     1.300048     0.691387
Gh(H)     -2.299473     2.002233     0.085889
Gh(H)     -3.090296     0.843730     0.534633
O         -1.272935     0.782182    -2.104475
H         -2.212545     0.909979    -2.084347
H         -1.080709     0.099361    -2.764455
Gh(O)     -1.284125    -1.361771     2.068460
Gh(H)     -2.157382    -1.391156     1.631680
Gh(H)     -0.988509    -2.220408     2.362835
Gh(O)      2.443972    -0.416390    -1.317300
Gh(H)      3.116986    -1.065802    -1.491835
Gh(H)      2.085578    -0.177653    -2.185105

units ang
no_reorient
no_com
symmetry c1
}

set {
basis        aug-cc-pVTZ
scf_type     df
}

energy("mp2")
--------------------------------------------------------------------------

    Molecular point group: c1

    Geometry (in Angstrom), charge = 0, multiplicity = 1:

       Center              X                  Y                   Z               Mass
    ------------   -----------------  -----------------  -----------------  -----------------
      Gh(K)           0.000000000000     0.000000000000     0.000000000000    38.963706486400
      Gh(O)           0.704593000000     2.672626000000    -0.531703000000    15.994914619570
      Gh(H)           0.790074000000     2.936738000000     0.376140000000     1.007825032230
      Gh(H)           1.317312000000     3.212929000000    -0.980840000000     1.007825032230
      Gh(O)          -1.197713000000    -1.859512000000    -1.372910000000    15.994914619570
      Gh(H)          -2.150333000000    -1.931130000000    -1.386109000000     1.007825032230
      Gh(H)          -0.850128000000    -2.373238000000    -2.128254000000     1.007825032230
      Gh(O)           1.635817000000    -0.907089000000     2.354190000000    15.994914619570
      Gh(H)           1.210872000000    -0.164479000000     2.804010000000     1.007825032230
      Gh(H)           1.161959000000    -1.673206000000     2.621161000000     1.007825032230
      Gh(O)          -2.270673000000     1.300048000000     0.691387000000    15.994914619570
      Gh(H)          -2.299473000000     2.002233000000     0.085889000000     1.007825032230
      Gh(H)          -3.090296000000     0.843730000000     0.534633000000     1.007825032230
         O           -1.272935000000     0.782182000000    -2.104475000000    15.994914619570
         H           -2.212545000000     0.909979000000    -2.084347000000     1.007825032230
         H           -1.080709000000     0.099361000000    -2.764455000000     1.007825032230
      Gh(O)          -1.284125000000    -1.361771000000     2.068460000000    15.994914619570
      Gh(H)          -2.157382000000    -1.391156000000     1.631680000000     1.007825032230
      Gh(H)          -0.988509000000    -2.220408000000     2.362835000000     1.007825032230
      Gh(O)           2.443972000000    -0.416390000000    -1.317300000000    15.994914619570
      Gh(H)           3.116986000000    -1.065802000000    -1.491835000000     1.007825032230
      Gh(H)           2.085578000000    -0.177653000000    -2.185105000000     1.007825032230

  Charge       = 0
  Multiplicity = 1
  Basis Set: AUG-CC-PVTZ
    Blend: AUG-CC-PVTZ
  Basis Set: (AUG-CC-PVTZ AUX)
    Blend: AUG-CC-PVTZ-JKFIT + DEF2-UNIVERSAL-JKFIT

    Orbital Energies [Eh]
    ---------------------

    Doubly Occupied:

       1A    -20.565736     2A     -1.350485     3A     -0.723214
       4A     -0.578087     5A     -0.509223

  @DF-RHF Final Energy:   -76.06036530021107

   => Energetics <=

    Nuclear Repulsion Energy =              9.1742271977518008
    One-Electron Energy =                -123.0156908419679098
    Two-Electron Energy =                  37.7810983440050308
    Total Energy =                        -76.0603653002110747
 Dipole X            :         24.9634201          -25.4673363           -0.5039162
 Dipole Y            :        -14.1029169           13.7322542           -0.3706626
 Dipole Z            :         40.5497153          -40.9779589           -0.4282436
 Magnitude           :                                                    0.7580995
  Basis Set: (AUG-CC-PVTZ AUX)
    Blend: AUG-CC-PVTZ-RI + DEF2-QZVPP-RI
	 Reference Energy          =     -76.0603653002110747 [Eh]
	 Singles Energy            =      -0.0000000000000000 [Eh]
	 Same-Spin Energy          =      -0.0683983232918869 [Eh]
	 Opposite-Spin Energy      =      -0.2158775430009190 [Eh]
	 Correlation Energy        =      -0.2842758662928060 [Eh]
	 Total Energy              =     -76.3446411665038767 [Eh]

	 ================> DF-SCS-MP2 Energies <==================
	-----------------------------------------------------------
	 SCS Same-Spin Scale       =       0.3333333333333333 [-]
	 SCS Opposite-Spin Scale   =       1.2000000000000000 [-]
	 SCS Same-Spin Energy      =      -0.0227994410972956 [Eh]
	 SCS Opposite-Spin Energy  =      -0.2590530516011028 [Eh]
	 SCS Correlation Energy    =      -0.2818524926983985 [Eh]
	 SCS Total Energy          =     -76.3422177929094801 [Eh]
	-----------------------------------------------------------

*** Psi4 exiting successfully. Buy a developer a beer!
