                               Psi4 1.9 release

  ==> Input File <==

--------------------------------------------------------------------------
MEMORY 60 GB

molecule dimer {
0 1
Gh(K)      0.000000     0.000000     0.000000
Gh(O)     -1.624696     1.170589    -1.773297
Gh(H)     -2.481887     0.884131    -1.505250
Gh(H)     -1.740444     1.131366    -2.691646
Gh(O)      1.825084     2.002345    -0.856271
Gh(H)      2.736729     1.760906    -0.931498
Gh(H)      1.835268     2.896585    -0.440370
Gh(O)      2.864344    -0.844859     0.005723
Gh(H)      2.698983    -1.133793    -0.900163
Gh(H)      3.529909    -0.153569    -0.092673
O          0.154222    -1.854253     2.188230
H          0.676628    -2.434760     1.536156
H          0.442297    -1.788222     3.119830
Gh(O)     -1.619276     1.879651     1.526773
Gh(H)     -1.466252     1.473301     2.383724
Gh(H)     -2.509648     2.026489     1.441369
Gh(O)     -0.827346    -1.993974    -1.708939
Gh(H)     -1.116939    -1.685994    -2.556826
Gh(H)     -1.616419    -2.415908    -1.284760

units ang
no_reorient
no_com
symmetry c1
}

set {
basis        aug-cc-pVTZ
scf_type     df
}

energy("mp2")
--------------------------------------------------------------------------

    Molecular point group: c1

    Geometry (in Angstrom), charge = 0, multiplicity = 1:

       Center              X                  Y                   Z               Mass
    ------------   -----------------  -----------------  -----------------  -----------------
      Gh(K)           0.000000000000     0.000000000000     0.000000000000    38.963706486400
      Gh(O)          -1.624696000000     1.170589000000    -1.773297000000    15.994914619570
      Gh(H)          -2.481887000000     0.884131000000    -1.505250000000     1.007825032230
      Gh(H)          -1.740444000000     1.131366000000    -2.691646000000     1.007825032230
      Gh(O)           1.825084000000     2.002345000000    -0.856271000000    15.994914619570
      Gh(H)           2.736729000000     1.760906000000    -0.931498000000     1.007825032230
      Gh(H)           1.835268000000     2.896585000000    -0.440370000000     1.007825032230
      Gh(O)           2.864344000000    -0.844859000000     0.005723000000    15.994914619570
      Gh(H)           2.698983000000    -1.133793000000    -0.900163000000     1.007825032230
      Gh(H)           3.529909000000    -0.153569000000    -0.092673000000     1.007825032230
         O            0.154222000000    -1.854253000000     2.188230000000    15.994914619570
         H            0.676628000000    -2.434760000000     1.536156000000     1.007825032230
         H            0.442297000000    -1.788222000000     3.119830000000     1.007825032230
      Gh(O)          -1.619276000000     1.879651000000     1.526773000000    15.994914619570
      Gh(H)          -1.466252000000     1.473301000000     2.383724000000     1.007825032230
      Gh(H)          -2.509648000000     2.026489000000     1.441369000000     1.007825032230
      Gh(O)          -0.827346000000    -1.993974000000    -1.708939000000    15.994914619570
      Gh(H)          -1.116939000000    -1.685994000000    -2.556826000000     1.007825032230
      Gh(H)          -1.616419000000    -2.415908000000    -1.284760000000     1.007825032230

  Charge       = 0
  Multiplicity = 1
  Basis Set: AUG-CC-PVTZ
    Blend: AUG-CC-PVTZ
  Basis Set: (AUG-CC-PVTZ AUX)
    Blend: AUG-CC-PVTZ-JKFIT + DEF2-UNIVERSAL-JKFIT

    Orbital Energies [Eh]
    ---------------------

    Doubly Occupied:

       1A    -20.565760     2A     -1.324400     3A     -0.720779
       4A     -0.548447     5A     -0.501925

  @DF-RHF Final Energy:   -76.04882241321835

   => Energetics <=

    Nuclear Repulsion Energy =              8.7990209301885667
    One-Electron Energy =                -122.3730595619223465
    Two-Electron Energy =                  37.5252162185154390
    Total Energy =                        -76.0488224132183461
 Dipole X            :         -3.8938254            4.4459605            0.5521351
 Dipole Y            :         35.6628228          -36.0125221           -0.3496993
 Dipole Z            :        -41.6863657           41.8797816            0.1934158
 Magnitude           :                                                    0.6815809
  Basis Set: (AUG-CC-PVTZ AUX)
    Blend: AUG-CC-PVTZ-RI + DEF2-QZVPP-RI
	 Reference Energy          =     -76.0488224132183461 [Eh]
	 Singles Energy            =      -0.0000000000000000 [Eh]
	 Same-Spin Energy          =      -0.0690289565185862 [Eh]
	 Opposite-Spin Energy      =      -0.2171720637180204 [Eh]
	 Correlation Energy        =      -0.2862010202366067 [Eh]
	 Total Energy              =     -76.3350234334549498 [Eh]

	 ================> DF-SCS-MP2 Energies <==================
	-----------------------------------------------------------
	 SCS Same-Spin Scale       =       0.3333333333333333 [-]
	 SCS Opposite-Spin Scale   =       1.2000000000000000 [-]
	 SCS Same-Spin Energy      =      -0.0230096521728621 [Eh]
	 SCS Opposite-Spin Energy  =      -0.2606064764616245 [Eh]
	 SCS Correlation Energy    =      -0.2836161286344866 [Eh]
	 SCS Total Energy          =     -76.3324385418528379 [Eh]
	-----------------------------------------------------------

*** Psi4 exiting successfully. Buy a developer a beer!
