                               Psi4 1.9 release

  ==> Input File <==

--------------------------------------------------------------------------
MEMORY 60 GB

molecule dimer {
0 1
Gh(K)      0.000000     0.000000     0.000000
Gh(O)      1.886407     0.240145     1.661583
Gh(H)      1.920610    -0.405878     2.387775
Gh(H)      2.353759     1.017833     1.991534
Gh(O)     -0.633228    -1.707611     2.107517
Gh(H)     -1.150731    -2.494049     1.810318
Gh(H)      0.219587    -1.976046     2.382454
Gh(O)     -2.383593     0.511145    -0.855188
Gh(H)     -2.763257     1.011932    -0.148038
Gh(H)     -3.173879     0.141298    -1.269293
O         -0.850357    -2.107687    -1.303976
H         -1.442063    -2.761127    -0.786684
H         -0.824084    -2.400965    -2.266133

units ang
no_reorient
no_com
symmetry c1
}

set {
basis        aug-cc-pVTZ
scf_type     df
}

energy("mp2")
--------------------------------------------------------------------------

    Molecular point group: c1

    Geometry (in Angstrom), charge = 0, multiplicity = 1:

       Center              X                  Y                   Z               Mass
    ------------   -----------------  -----------------  -----------------  -----------------
      Gh(K)           0.000000000000     0.000000000000     0.000000000000    38.963706486400
      Gh(O)           1.886407000000     0.240145000000     1.661583000000    15.994914619570
      Gh(H)           1.920610000000    -0.405878000000     2.387775000000     1.007825032230
      Gh(H)           2.353759000000     1.017833000000     1.991534000000     1.007825032230
      Gh(O)          -0.633228000000    -1.707611000000     2.107517000000    15.994914619570
      Gh(H)          -1.150731000000    -2.494049000000     1.810318000000     1.007825032230
      Gh(H)           0.219587000000    -1.976046000000     2.382454000000     1.007825032230
      Gh(O)          -2.383593000000     0.511145000000    -0.855188000000    15.994914619570
      Gh(H)          -2.763257000000     1.011932000000    -0.148038000000     1.007825032230
      Gh(H)          -3.173879000000     0.141298000000    -1.269293000000     1.007825032230
         O           -0.850357000000    -2.107687000000    -1.303976000000    15.994914619570
         H           -1.442063000000    -2.761127000000    -0.786684000000     1.007825032230
         H           -0.824084000000    -2.400965000000    -2.266133000000     1.007825032230

  Charge       = 0
  Multiplicity = 1
  Basis Set: AUG-CC-PVTZ
    Blend: AUG-CC-PVTZ
  Basis Set: (AUG-CC-PVTZ AUX)
    Blend: AUG-CC-PVTZ-JKFIT + DEF2-UNIVERSAL-JKFIT

    Orbital Energies [Eh]
    ---------------------

    Doubly Occupied:

       1A    -20.574861     2A     -1.323813     3A     -0.693989
       4A     -0.566941     5A     -0.504770

  @DF-RHF Final Energy:   -76.05075061079938

   => Energetics <=

    Nuclear Repulsion Energy =              8.6712130098431661
    One-Electron Energy =                -122.1151759481814736
    Two-Electron Energy =                  37.3932123275389188
    Total Energy =                        -76.0507506107993834
 Dipole X            :         16.7721713          -17.1379319           -0.3657606
 Dipole Y            :         41.0044200          -41.6185496           -0.6141296
 Dipole Z            :         25.1912852          -25.4822482           -0.2909630
 Magnitude           :                                                    0.7717483
  Basis Set: (AUG-CC-PVTZ AUX)
    Blend: AUG-CC-PVTZ-RI + DEF2-QZVPP-RI
	 Reference Energy          =     -76.0507506107993834 [Eh]
	 Singles Energy            =      -0.0000000000000000 [Eh]
	 Same-Spin Energy          =      -0.0693144754563836 [Eh]
	 Opposite-Spin Energy      =      -0.2185105986316742 [Eh]
	 Correlation Energy        =      -0.2878250740880578 [Eh]
	 Total Energy              =     -76.3385756848874450 [Eh]

	 ================> DF-SCS-MP2 Energies <==================
	-----------------------------------------------------------
	 SCS Same-Spin Scale       =       0.3333333333333333 [-]
	 SCS Opposite-Spin Scale   =       1.2000000000000000 [-]
	 SCS Same-Spin Energy      =      -0.0231048251521279 [Eh]
	 SCS Opposite-Spin Energy  =      -0.2622127183580090 [Eh]
	 SCS Correlation Energy    =      -0.2853175435101368 [Eh]
	 SCS Total Energy          =     -76.3360681543095154 [Eh]
	-----------------------------------------------------------

*** Psi4 exiting successfully. Buy a developer a beer!
