                               Psi4 1.9 release

  ==> Input File <==

--------------------------------------------------------------------------
MEMORY 60 GB

molecule dimer {
0 1
Gh(K)      0.000000     0.000000     0.000000
Gh(O)      0.309615    -2.623382    -1.550755
Gh(H)      0.073529    -3.411695    -2.042004
Gh(H)      0.732044    -2.924054    -0.731434
O         -2.529295     1.007717     0.149432
H         -3.031134     1.319525    -0.599291
H         -2.665484     0.041905     0.322961
Gh(O)      1.728418     1.676356     0.611770
Gh(H)      1.306700     2.209773     1.232986
Gh(H)      2.018027     2.273752    -0.126886
Gh(O)      0.635505    -0.312124     2.701636
Gh(H)     -0.164451    -0.813360     3.054926
Gh(H)      0.947635     0.214693     3.417860
Gh(O)      0.007774     0.682534    -2.427733
Gh(H)     -0.877989     0.809481    -2.864264
Gh(H)      0.577915     0.435714    -3.144891

units ang
no_reorient
no_com
symmetry c1
}

set {
basis        aug-cc-pVTZ
scf_type     df
}

energy("mp2")
--------------------------------------------------------------------------

    Molecular point group: c1

    Geometry (in Angstrom), charge = 0, multiplicity = 1:

       Center              X                  Y                   Z               Mass
    ------------   -----------------  -----------------  -----------------  -----------------
      Gh(K)           0.000000000000     0.000000000000     0.000000000000    38.963706486400
      Gh(O)           0.309615000000    -2.623382000000    -1.550755000000    15.994914619570
      Gh(H)           0.073529000000    -3.411695000000    -2.042004000000     1.007825032230
      Gh(H)           0.732044000000    -2.924054000000    -0.731434000000     1.007825032230
         O           -2.529295000000     1.007717000000     0.149432000000    15.994914619570
         H           -3.031134000000     1.319525000000    -0.599291000000     1.007825032230
         H           -2.665484000000     0.041905000000     0.322961000000     1.007825032230
      Gh(O)           1.728418000000     1.676356000000     0.611770000000    15.994914619570
      Gh(H)           1.306700000000     2.209773000000     1.232986000000     1.007825032230
      Gh(H)           2.018027000000     2.273752000000    -0.126886000000     1.007825032230
      Gh(O)           0.635505000000    -0.312124000000     2.701636000000    15.994914619570
      Gh(H)          -0.164451000000    -0.813360000000     3.054926000000     1.007825032230
      Gh(H)           0.947635000000     0.214693000000     3.417860000000     1.007825032230
      Gh(O)           0.007774000000     0.682534000000    -2.427733000000    15.994914619570
      Gh(H)          -0.877989000000     0.809481000000    -2.864264000000     1.007825032230
      Gh(H)           0.577915000000     0.435714000000    -3.144891000000     1.007825032230

  Charge       = 0
  Multiplicity = 1
  Basis Set: AUG-CC-PVTZ
    Blend: AUG-CC-PVTZ
  Basis Set: (AUG-CC-PVTZ AUX)
    Blend: AUG-CC-PVTZ-JKFIT + DEF2-UNIVERSAL-JKFIT

    Orbital Energies [Eh]
    ---------------------

    Doubly Occupied:

       1A    -20.565777     2A     -1.340793     3A     -0.724043
       4A     -0.566449     5A     -0.506617

  @DF-RHF Final Energy:   -76.05730865689667

   => Energetics <=

    Nuclear Repulsion Energy =              9.0390479466481768
    One-Electron Energy =                -122.7853519473965349
    Two-Electron Energy =                  37.6889953438516869
    Total Energy =                        -76.0573086568966659
 Dipole X            :         48.5698700          -49.0024466           -0.4325766
 Dipole Y            :        -18.2454153           17.8072030           -0.4382124
 Dipole Z            :         -2.1283093            1.7368964           -0.3914129
 Magnitude           :                                                    0.7296277
  Basis Set: (AUG-CC-PVTZ AUX)
    Blend: AUG-CC-PVTZ-RI + DEF2-QZVPP-RI
	 Reference Energy          =     -76.0573086568966659 [Eh]
	 Singles Energy            =      -0.0000000000000000 [Eh]
	 Same-Spin Energy          =      -0.0685535193726737 [Eh]
	 Opposite-Spin Energy      =      -0.2160121020722073 [Eh]
	 Correlation Energy        =      -0.2845656214448810 [Eh]
	 Total Energy              =     -76.3418742783415496 [Eh]

	 ================> DF-SCS-MP2 Energies <==================
	-----------------------------------------------------------
	 SCS Same-Spin Scale       =       0.3333333333333333 [-]
	 SCS Opposite-Spin Scale   =       1.2000000000000000 [-]
	 SCS Same-Spin Energy      =      -0.0228511731242246 [Eh]
	 SCS Opposite-Spin Energy  =      -0.2592145224866487 [Eh]
	 SCS Correlation Energy    =      -0.2820656956108733 [Eh]
	 SCS Total Energy          =     -76.3393743525075337 [Eh]
	-----------------------------------------------------------

*** Psi4 exiting successfully. Buy a developer a beer!
