                               Psi4 1.9 release

  ==> Input File <==

--------------------------------------------------------------------------
MEMORY 60 GB

molecule dimer {
1 1
K      0.000000     0.000000     0.000000
--
0 1
O      1.380814     0.870128    -2.552071
H      0.720240     1.596362    -2.443970
H      1.177395     0.252244    -3.293213
O      1.273503     1.903801     1.295069
H      1.989230     1.514260     1.865592
H      0.801927     2.486720     1.867390
O     -2.462575     1.133906     0.643205
H     -2.766838     0.224028     0.624927
H     -2.781846     1.533607    -0.169164
O     -2.169681    -1.506407    -1.529652
H     -2.399596    -2.128795    -2.205315
H     -2.797931    -0.796605    -1.523323
O      1.163535    -1.097883     2.056202
H      2.105116    -0.983745     2.128536
H      0.817248    -1.314531     2.991563

units ang
no_reorient
no_com
symmetry c1
}

set {
basis        aug-cc-pVTZ
scf_type     df
}

energy("mp2", bsse_type="cp")
--------------------------------------------------------------------------

                               Psi4 1.9 release
    Molecular point group: c1
  Charge       = 0
  Multiplicity = 1
  Basis Set: AUG-CC-PVTZ
    Blend: AUG-CC-PVTZ
  Basis Set: (AUG-CC-PVTZ AUX)
    Blend: AUG-CC-PVTZ-JKFIT + DEF2-UNIVERSAL-JKFIT
  @DF-RHF Final Energy:  -380.27778464637754
    Total Energy =                       -380.2777846463775404
 Dipole X            :         17.2173411          -18.2363995           -1.0190584
 Dipole Y            :        -24.4352430           24.2109916           -0.2242514
 Dipole Z            :          1.5946838           -1.6156270           -0.0209432
 Magnitude           :                                                    1.0436509
  Basis Set: (AUG-CC-PVTZ AUX)
    Blend: AUG-CC-PVTZ-RI + DEF2-QZVPP-RI
	 Reference Energy          =    -380.2777846463775404 [Eh]
	 Singles Energy            =      -0.0000000000000000 [Eh]
	 Same-Spin Energy          =      -0.3444678051875718 [Eh]
	 Opposite-Spin Energy      =      -1.0826149664364240 [Eh]
	 Correlation Energy        =      -1.4270827716239958 [Eh]
	 Total Energy              =    -381.7048674180015269 [Eh]
	 SCS Total Energy          =    -381.6917452078304223 [Eh]
                               Psi4 1.9 release
    Molecular point group: c1
  Multiplicity = 1
  Basis Set: AUG-CC-PVTZ
    Blend: AUG-CC-PVTZ
  Basis Set: (AUG-CC-PVTZ AUX)
    Blend: AUG-CC-PVTZ-JKFIT + DEF2-UNIVERSAL-JKFIT
  @DF-RHF Final Energy:  -599.01751587025740
    Total Energy =                       -599.0175158702575118
  Basis Set: (AUG-CC-PVTZ AUX)
	 Singles Energy            =      -0.0000000000000000 [Eh]
	 Same-Spin Energy          =      -0.0368128206838062 [Eh]
	 Opposite-Spin Energy      =      -0.0894915887670919 [Eh]
	 Correlation Energy        =      -0.1263044094508981 [Eh]
	 Total Energy              =    -599.1438202797082795 [Eh]
	 SCS Total Energy          =    -599.1371767170059002 [Eh]
                               Psi4 1.9 release
    Molecular point group: c1

    Geometry (in Bohr), charge = 1, multiplicity = 1:

       Center              X                  Y                   Z               Mass
    ------------   -----------------  -----------------  -----------------  -----------------
         K            0.000000000000     0.000000000000     0.000000000000    38.963706486400
         O            2.609360290198     1.644303614092    -4.822715242723    15.994914619570
         H            1.361056344600     3.016686977088    -4.618433958835     1.007825032230
         H            2.224954091483     0.476672076790    -6.223270642797     1.007825032230
         O            2.406571889949     3.597662487373     2.447325723571    15.994914619570
         H            3.759099900544     2.861536682736     3.525457941845     1.007825032230
         H            1.515422402610     4.699219750698     3.528855669419     1.007825032230
         O           -4.653592313399     2.142771792013     1.215481292525    15.994914619570
         H           -5.228566053509     0.423351564434     1.180940878404     1.007825032230
         H           -5.256927063200     2.898097214085    -0.319673630287     1.007825032230
         O           -4.100102869609    -2.846696663473    -2.890623347259    15.994914619570
         H           -4.534579251744    -4.022839527244    -4.167441370364     1.007825032230
         H           -5.287323307928    -1.505365280170    -2.878663270611     1.007825032230
         O            2.198762487385    -2.074698187796     3.885658638619    15.994914619570
         H            3.978092702319    -1.859008627289     4.022350088178     1.007825032230
         H            1.544374896578    -2.484103573424     5.653234757053     1.007825032230

  Charge       = 1
  Multiplicity = 1
  Basis Set: AUG-CC-PVTZ
    Blend: AUG-CC-PVTZ
  Basis Set: (AUG-CC-PVTZ AUX)
    Blend: AUG-CC-PVTZ-JKFIT + DEF2-UNIVERSAL-JKFIT

    Orbital Energies [Eh]
    ---------------------

    Doubly Occupied:

       1A   -133.615346     2A    -20.726722     3A    -20.726045
       4A    -20.717485     5A    -20.711411     6A    -20.702565
       7A    -14.573164     8A    -11.603023     9A    -11.603012
      10A    -11.602909    11A     -1.836047    12A     -1.514867
      13A     -1.510142    14A     -1.500629    15A     -1.494849
      16A     -1.468771    17A     -1.047316    18A     -1.045907
      19A     -1.044219    20A     -0.890054    21A     -0.878937
      22A     -0.868144    23A     -0.856621    24A     -0.852625
      25A     -0.744155    26A     -0.742986    27A     -0.738125
      28A     -0.734274    29A     -0.697434    30A     -0.676089
      31A     -0.673815    32A     -0.666278    33A     -0.651847
      34A     -0.642502

  @DF-RHF Final Energy:  -979.37728590536642

   => Energetics <=

    Nuclear Repulsion Energy =            341.8083228690752549
    One-Electron Energy =               -2021.6545783428491632
    Two-Electron Energy =                 700.4689695684074877
    Total Energy =                       -979.3772859053664206
 Dipole X            :         17.2239343          -18.2363995           -1.0124652
 Dipole Y            :        -24.3121857           24.2109916           -0.1011941
 Dipole Z            :          1.7441610           -1.6156270            0.1285340
 Magnitude           :                                                    1.0255959
  Basis Set: (AUG-CC-PVTZ AUX)
    Blend: AUG-CC-PVTZ-RI + DEF2-QZVPP-RI
	 Reference Energy          =    -979.3772859053664206 [Eh]
	 Singles Energy            =      -0.0000000000000000 [Eh]
	 Same-Spin Energy          =      -0.3846289804877734 [Eh]
	 Opposite-Spin Energy      =      -1.1722840166646513 [Eh]
	 Correlation Energy        =      -1.5569129971524247 [Eh]
	 Total Energy              =    -980.9341989025188013 [Eh]

	 ================> DF-SCS-MP2 Energies <==================
	-----------------------------------------------------------
	 SCS Same-Spin Scale       =       0.3333333333333333 [-]
	 SCS Opposite-Spin Scale   =       1.2000000000000000 [-]
	 SCS Same-Spin Energy      =      -0.1282096601625911 [Eh]
	 SCS Opposite-Spin Energy  =      -1.4067408199975815 [Eh]
	 SCS Correlation Energy    =      -1.5349504801601725 [Eh]
	 SCS Total Energy          =    -980.9122363855266258 [Eh]
	-----------------------------------------------------------

*** Psi4 exiting successfully. Buy a developer a beer!
