                               Psi4 1.9 release

  ==> Input File <==

--------------------------------------------------------------------------
MEMORY 60 GB

molecule dimer {
0 1
Gh(K)      0.000000     0.000000     0.000000
Gh(O)      0.293827     2.618771    -0.398133
Gh(H)     -0.603386     2.977651    -0.383603
Gh(H)      0.504951     2.523150    -1.349400
Gh(O)      2.290662    -1.154012     1.170513
Gh(H)      2.200413    -1.828377     1.847435
Gh(H)      2.800025    -0.449315     1.581926
Gh(O)     -0.679679    -1.715755     2.067459
Gh(H)      0.176766    -2.136211     2.260417
Gh(H)     -1.317277    -2.272083     1.599994
O         -2.767030     0.221449     0.099673
H         -3.057655     0.587440     0.925810
H         -3.142942    -0.646895     0.189675

units ang
no_reorient
no_com
symmetry c1
}

set {
basis        aug-cc-pVTZ
scf_type     df
}

energy("mp2")
--------------------------------------------------------------------------

    Molecular point group: c1

    Geometry (in Angstrom), charge = 0, multiplicity = 1:

       Center              X                  Y                   Z               Mass
    ------------   -----------------  -----------------  -----------------  -----------------
      Gh(K)           0.000000000000     0.000000000000     0.000000000000    38.963706486400
      Gh(O)           0.293827000000     2.618771000000    -0.398133000000    15.994914619570
      Gh(H)          -0.603386000000     2.977651000000    -0.383603000000     1.007825032230
      Gh(H)           0.504951000000     2.523150000000    -1.349400000000     1.007825032230
      Gh(O)           2.290662000000    -1.154012000000     1.170513000000    15.994914619570
      Gh(H)           2.200413000000    -1.828377000000     1.847435000000     1.007825032230
      Gh(H)           2.800025000000    -0.449315000000     1.581926000000     1.007825032230
      Gh(O)          -0.679679000000    -1.715755000000     2.067459000000    15.994914619570
      Gh(H)           0.176766000000    -2.136211000000     2.260417000000     1.007825032230
      Gh(H)          -1.317277000000    -2.272083000000     1.599994000000     1.007825032230
         O           -2.767030000000     0.221449000000     0.099673000000    15.994914619570
         H           -3.057655000000     0.587440000000     0.925810000000     1.007825032230
         H           -3.142942000000    -0.646895000000     0.189675000000     1.007825032230

  Charge       = 0
  Multiplicity = 1
  Basis Set: AUG-CC-PVTZ
    Blend: AUG-CC-PVTZ
  Basis Set: (AUG-CC-PVTZ AUX)
    Blend: AUG-CC-PVTZ-JKFIT + DEF2-UNIVERSAL-JKFIT

    Orbital Energies [Eh]
    ---------------------

    Doubly Occupied:

       1A    -20.568224     2A     -1.361953     3A     -0.709633
       4A     -0.598149     5A     -0.512646

  @DF-RHF Final Energy:   -76.05957991639362

   => Energetics <=

    Nuclear Repulsion Energy =              9.2816388773695913
    One-Electron Energy =                -123.1812256275198791
    Two-Electron Energy =                  37.8400068337566680
    Total Energy =                        -76.0595799163936306
 Dipole X            :         53.1105521          -53.5488612           -0.4383091
 Dipole Y            :         -3.5653181            3.2354700           -0.3298481
 Dipole Z            :         -3.0127109            3.6147985            0.6020877
 Magnitude           :                                                    0.8145085
  Basis Set: (AUG-CC-PVTZ AUX)
    Blend: AUG-CC-PVTZ-RI + DEF2-QZVPP-RI
	 Reference Energy          =     -76.0595799163936164 [Eh]
	 Singles Energy            =      -0.0000000000000000 [Eh]
	 Same-Spin Energy          =      -0.0683975380138947 [Eh]
	 Opposite-Spin Energy      =      -0.2154787593506309 [Eh]
	 Correlation Energy        =      -0.2838762973645257 [Eh]
	 Total Energy              =     -76.3434562137581452 [Eh]

	 ================> DF-SCS-MP2 Energies <==================
	-----------------------------------------------------------
	 SCS Same-Spin Scale       =       0.3333333333333333 [-]
	 SCS Opposite-Spin Scale   =       1.2000000000000000 [-]
	 SCS Same-Spin Energy      =      -0.0227991793379649 [Eh]
	 SCS Opposite-Spin Energy  =      -0.2585745112207571 [Eh]
	 SCS Correlation Energy    =      -0.2813736905587220 [Eh]
	 SCS Total Energy          =     -76.3409536069523398 [Eh]
	-----------------------------------------------------------

*** Psi4 exiting successfully. Buy a developer a beer!
