                               Psi4 1.9 release

  ==> Input File <==

--------------------------------------------------------------------------
MEMORY 60 GB

molecule dimer {
1 1
K          0.000000     0.000000     0.000000
Gh(O)      1.478006     0.717897    -1.948128
Gh(H)      1.494997     0.601610    -2.908738
Gh(H)      2.334047     1.201082    -1.842671
Gh(O)     -2.661762     0.783294    -0.605565
Gh(H)     -3.465178     1.092006    -0.190818
Gh(H)     -2.885772     0.543165    -1.519228
Gh(O)     -0.002906     2.840525    -0.171305
Gh(H)     -0.856087     3.028844    -0.630236
Gh(H)      0.477889     3.665808    -0.151625

units ang
no_reorient
no_com
symmetry c1
}

set {
basis        aug-cc-pVTZ
scf_type     df
}

energy("mp2")
--------------------------------------------------------------------------

    Molecular point group: c1

    Geometry (in Angstrom), charge = 1, multiplicity = 1:

       Center              X                  Y                   Z               Mass
    ------------   -----------------  -----------------  -----------------  -----------------
         K            0.000000000000     0.000000000000     0.000000000000    38.963706486400
      Gh(O)           1.478006000000     0.717897000000    -1.948128000000    15.994914619570
      Gh(H)           1.494997000000     0.601610000000    -2.908738000000     1.007825032230
      Gh(H)           2.334047000000     1.201082000000    -1.842671000000     1.007825032230
      Gh(O)          -2.661762000000     0.783294000000    -0.605565000000    15.994914619570
      Gh(H)          -3.465178000000     1.092006000000    -0.190818000000     1.007825032230
      Gh(H)          -2.885772000000     0.543165000000    -1.519228000000     1.007825032230
      Gh(O)          -0.002906000000     2.840525000000    -0.171305000000    15.994914619570
      Gh(H)          -0.856087000000     3.028844000000    -0.630236000000     1.007825032230
      Gh(H)           0.477889000000     3.665808000000    -0.151625000000     1.007825032230

  Charge       = 1
  Multiplicity = 1
  Basis Set: AUG-CC-PVTZ
    Blend: AUG-CC-PVTZ
  Basis Set: (AUG-CC-PVTZ AUX)
    Blend: AUG-CC-PVTZ-JKFIT + DEF2-UNIVERSAL-JKFIT

    Orbital Energies [Eh]
    ---------------------

    Doubly Occupied:

       1A   -133.753127     2A    -14.708689     3A    -11.738757
       4A    -11.738756     5A    -11.738754     6A     -1.964099
       7A     -1.170779     8A     -1.170760     9A     -1.170735

  @DF-RHF Final Energy:  -599.01751298429213

   => Energetics <=

    Nuclear Repulsion Energy =              0.0000000000000000
    One-Electron Energy =                -819.7261157689341644
    Two-Electron Energy =                 220.7086027846420109
    Total Energy =                       -599.0175129842921251
 Dipole X            :         -0.0000524            0.0000000           -0.0000524
 Dipole Y            :          0.0003879            0.0000000            0.0003879
 Dipole Z            :         -0.0003311            0.0000000           -0.0003311
 Magnitude           :                                                    0.0005127
  Basis Set: (AUG-CC-PVTZ AUX)
    Blend: AUG-CC-PVTZ-RI + DEF2-QZVPP-RI
	 Reference Energy          =    -599.0175129842921251 [Eh]
	 Singles Energy            =      -0.0000000000000000 [Eh]
	 Same-Spin Energy          =      -0.0330916373967578 [Eh]
	 Opposite-Spin Energy      =      -0.0793545693985495 [Eh]
	 Correlation Energy        =      -0.1124462067953073 [Eh]
	 Total Energy              =    -599.1299591910874369 [Eh]

	 ================> DF-SCS-MP2 Energies <==================
	-----------------------------------------------------------
	 SCS Same-Spin Scale       =       0.3333333333333333 [-]
	 SCS Opposite-Spin Scale   =       1.2000000000000000 [-]
	 SCS Same-Spin Energy      =      -0.0110305457989193 [Eh]
	 SCS Opposite-Spin Energy  =      -0.0952254832782594 [Eh]
	 SCS Correlation Energy    =      -0.1062560290771787 [Eh]
	 SCS Total Energy          =    -599.1237690133692695 [Eh]
	-----------------------------------------------------------

*** Psi4 exiting successfully. Buy a developer a beer!
