                               Psi4 1.9 release

  ==> Input File <==

--------------------------------------------------------------------------
MEMORY 60 GB

molecule dimer {
0 1
Gh(K)      0.000000     0.000000     0.000000
O          2.308722    -0.254536     1.310408
H          2.584958    -1.137932     1.023431
H          3.054955     0.265354     1.083425
Gh(O)      1.477763     2.323870     0.122954
Gh(H)      2.452408     2.371039     0.056186
Gh(H)      1.158784     2.999385    -0.587734
Gh(O)     -1.887495     0.324605     2.201958
Gh(H)     -2.756344     0.421092     1.806993
Gh(H)     -1.987178     0.245204     3.192100
Gh(O)     -1.051549    -2.482539     0.576865
Gh(H)     -1.834601    -2.706293     0.062762
Gh(H)     -0.429524    -3.204685     0.325775
Gh(O)     -2.479303     0.827493    -1.047506
Gh(H)     -2.128857     1.517229    -1.644836
Gh(H)     -3.035895     1.330859    -0.414268
Gh(O)      0.867083    -1.961681    -1.538513
Gh(H)      1.235278    -2.602121    -0.912217
Gh(H)      1.575310    -2.005697    -2.206580

units ang
no_reorient
no_com
symmetry c1
}

set {
basis        aug-cc-pVTZ
scf_type     df
}

energy("mp2")
--------------------------------------------------------------------------

    Molecular point group: c1

    Geometry (in Angstrom), charge = 0, multiplicity = 1:

       Center              X                  Y                   Z               Mass
    ------------   -----------------  -----------------  -----------------  -----------------
      Gh(K)           0.000000000000     0.000000000000     0.000000000000    38.963706486400
         O            2.308722000000    -0.254536000000     1.310408000000    15.994914619570
         H            2.584958000000    -1.137932000000     1.023431000000     1.007825032230
         H            3.054955000000     0.265354000000     1.083425000000     1.007825032230
      Gh(O)           1.477763000000     2.323870000000     0.122954000000    15.994914619570
      Gh(H)           2.452408000000     2.371039000000     0.056186000000     1.007825032230
      Gh(H)           1.158784000000     2.999385000000    -0.587734000000     1.007825032230
      Gh(O)          -1.887495000000     0.324605000000     2.201958000000    15.994914619570
      Gh(H)          -2.756344000000     0.421092000000     1.806993000000     1.007825032230
      Gh(H)          -1.987178000000     0.245204000000     3.192100000000     1.007825032230
      Gh(O)          -1.051549000000    -2.482539000000     0.576865000000    15.994914619570
      Gh(H)          -1.834601000000    -2.706293000000     0.062762000000     1.007825032230
      Gh(H)          -0.429524000000    -3.204685000000     0.325775000000     1.007825032230
      Gh(O)          -2.479303000000     0.827493000000    -1.047506000000    15.994914619570
      Gh(H)          -2.128857000000     1.517229000000    -1.644836000000     1.007825032230
      Gh(H)          -3.035895000000     1.330859000000    -0.414268000000     1.007825032230
      Gh(O)           0.867083000000    -1.961681000000    -1.538513000000    15.994914619570
      Gh(H)           1.235278000000    -2.602121000000    -0.912217000000     1.007825032230
      Gh(H)           1.575310000000    -2.005697000000    -2.206580000000     1.007825032230

  Charge       = 0
  Multiplicity = 1
  Basis Set: AUG-CC-PVTZ
    Blend: AUG-CC-PVTZ
  Basis Set: (AUG-CC-PVTZ AUX)
    Blend: AUG-CC-PVTZ-JKFIT + DEF2-UNIVERSAL-JKFIT

    Orbital Energies [Eh]
    ---------------------

    Doubly Occupied:

       1A    -20.567357     2A     -1.357748     3A     -0.714933
       4A     -0.590603     5A     -0.511427

  @DF-RHF Final Energy:   -76.06004631964697

   => Energetics <=

    Nuclear Repulsion Energy =              9.2421771543902391
    One-Electron Energy =                -123.1203084899652680
    Two-Electron Energy =                  37.8180850159280624
    Total Energy =                        -76.0600463196469718
 Dipole X            :        -44.8818462           45.5607092            0.6788630
 Dipole Y            :          5.2619182           -5.4969601           -0.2350418
 Dipole Z            :        -24.1317487           23.7918787           -0.3398700
 Magnitude           :                                                    0.7947397
  Basis Set: (AUG-CC-PVTZ AUX)
    Blend: AUG-CC-PVTZ-RI + DEF2-QZVPP-RI
	 Reference Energy          =     -76.0600463196469718 [Eh]
	 Singles Energy            =      -0.0000000000000000 [Eh]
	 Same-Spin Energy          =      -0.0683789960336290 [Eh]
	 Opposite-Spin Energy      =      -0.2156300406875287 [Eh]
	 Correlation Energy        =      -0.2840090367211576 [Eh]
	 Total Energy              =     -76.3440553563681306 [Eh]

	 ================> DF-SCS-MP2 Energies <==================
	-----------------------------------------------------------
	 SCS Same-Spin Scale       =       0.3333333333333333 [-]
	 SCS Opposite-Spin Scale   =       1.2000000000000000 [-]
	 SCS Same-Spin Energy      =      -0.0227929986778763 [Eh]
	 SCS Opposite-Spin Energy  =      -0.2587560488250344 [Eh]
	 SCS Correlation Energy    =      -0.2815490475029108 [Eh]
	 SCS Total Energy          =     -76.3415953671498784 [Eh]
	-----------------------------------------------------------

*** Psi4 exiting successfully. Buy a developer a beer!
