                               Psi4 1.9 release

  ==> Input File <==

--------------------------------------------------------------------------
MEMORY 60 GB

molecule dimer {
1 1
K          0.000000     0.000000     0.000000
Gh(O)      0.895746    -2.809245     0.265910
Gh(H)      0.384997    -3.536149    -0.142487
Gh(H)      0.462734    -2.701620     1.110776
Gh(O)     -1.994843    -0.515921    -1.954607
Gh(H)     -2.538615    -1.207236    -1.506788
Gh(H)     -2.614613     0.221095    -1.966914
Gh(O)     -0.644379     2.208825    -1.255866
Gh(H)     -0.268331     2.958551    -0.857534
Gh(H)     -1.592764     2.260054    -1.104169

units ang
no_reorient
no_com
symmetry c1
}

set {
basis        aug-cc-pVTZ
scf_type     df
}

energy("mp2")
--------------------------------------------------------------------------

    Molecular point group: c1

    Geometry (in Angstrom), charge = 1, multiplicity = 1:

       Center              X                  Y                   Z               Mass
    ------------   -----------------  -----------------  -----------------  -----------------
         K            0.000000000000     0.000000000000     0.000000000000    38.963706486400
      Gh(O)           0.895746000000    -2.809245000000     0.265910000000    15.994914619570
      Gh(H)           0.384997000000    -3.536149000000    -0.142487000000     1.007825032230
      Gh(H)           0.462734000000    -2.701620000000     1.110776000000     1.007825032230
      Gh(O)          -1.994843000000    -0.515921000000    -1.954607000000    15.994914619570
      Gh(H)          -2.538615000000    -1.207236000000    -1.506788000000     1.007825032230
      Gh(H)          -2.614613000000     0.221095000000    -1.966914000000     1.007825032230
      Gh(O)          -0.644379000000     2.208825000000    -1.255866000000    15.994914619570
      Gh(H)          -0.268331000000     2.958551000000    -0.857534000000     1.007825032230
      Gh(H)          -1.592764000000     2.260054000000    -1.104169000000     1.007825032230

  Charge       = 1
  Multiplicity = 1
  Basis Set: AUG-CC-PVTZ
    Blend: AUG-CC-PVTZ
  Basis Set: (AUG-CC-PVTZ AUX)
    Blend: AUG-CC-PVTZ-JKFIT + DEF2-UNIVERSAL-JKFIT

    Orbital Energies [Eh]
    ---------------------

    Doubly Occupied:

       1A   -133.753043     2A    -14.708635     3A    -11.738699
       4A    -11.738696     5A    -11.738693     6A     -1.964096
       7A     -1.170800     8A     -1.170746     9A     -1.170694

  @DF-RHF Final Energy:  -599.01751241542183

   => Energetics <=

    Nuclear Repulsion Energy =              0.0000000000000000
    One-Electron Energy =                -819.7268234993076703
    Two-Electron Energy =                 220.7093110838858934
    Total Energy =                       -599.0175124154218338
 Dipole X            :         -0.0002461            0.0000000           -0.0002461
 Dipole Y            :         -0.0000197            0.0000000           -0.0000197
 Dipole Z            :         -0.0001972            0.0000000           -0.0001972
 Magnitude           :                                                    0.0003159
  Basis Set: (AUG-CC-PVTZ AUX)
    Blend: AUG-CC-PVTZ-RI + DEF2-QZVPP-RI
	 Reference Energy          =    -599.0175124154218338 [Eh]
	 Singles Energy            =      -0.0000000000000000 [Eh]
	 Same-Spin Energy          =      -0.0321733967417740 [Eh]
	 Opposite-Spin Energy      =      -0.0770564969043780 [Eh]
	 Correlation Energy        =      -0.1092298936461521 [Eh]
	 Total Energy              =    -599.1267423090679358 [Eh]

	 ================> DF-SCS-MP2 Energies <==================
	-----------------------------------------------------------
	 SCS Same-Spin Scale       =       0.3333333333333333 [-]
	 SCS Opposite-Spin Scale   =       1.2000000000000000 [-]
	 SCS Same-Spin Energy      =      -0.0107244655805913 [Eh]
	 SCS Opposite-Spin Energy  =      -0.0924677962852537 [Eh]
	 SCS Correlation Energy    =      -0.1031922618658450 [Eh]
	 SCS Total Energy          =    -599.1207046772876765 [Eh]
	-----------------------------------------------------------

*** Psi4 exiting successfully. Buy a developer a beer!
