                               Psi4 1.9 release

  ==> Input File <==

--------------------------------------------------------------------------
MEMORY 60 GB

molecule dimer {
0 1
Gh(K)      0.000000     0.000000     0.000000
Gh(O)      1.718018     0.231702     1.982918
Gh(H)      2.030510    -0.589138     2.359944
Gh(H)      1.757650     0.961818     2.605759
Gh(O)     -1.357838     1.036276    -2.176719
Gh(H)     -1.862644     1.908415    -2.195129
Gh(H)     -2.093985     0.377470    -2.470949
O          0.093893    -2.699563    -1.187877
H         -0.368393    -3.368385    -0.686177
H          0.993326    -3.116036    -1.311465
Gh(O)     -0.782278    -1.864644     1.959905
Gh(H)     -0.286253    -2.712429     1.908728
Gh(H)     -1.707732    -2.173103     2.104632

units ang
no_reorient
no_com
symmetry c1
}

set {
basis        aug-cc-pVTZ
scf_type     df
}

energy("mp2")
--------------------------------------------------------------------------

    Molecular point group: c1

    Geometry (in Angstrom), charge = 0, multiplicity = 1:

       Center              X                  Y                   Z               Mass
    ------------   -----------------  -----------------  -----------------  -----------------
      Gh(K)           0.000000000000     0.000000000000     0.000000000000    38.963706486400
      Gh(O)           1.718018000000     0.231702000000     1.982918000000    15.994914619570
      Gh(H)           2.030510000000    -0.589138000000     2.359944000000     1.007825032230
      Gh(H)           1.757650000000     0.961818000000     2.605759000000     1.007825032230
      Gh(O)          -1.357838000000     1.036276000000    -2.176719000000    15.994914619570
      Gh(H)          -1.862644000000     1.908415000000    -2.195129000000     1.007825032230
      Gh(H)          -2.093985000000     0.377470000000    -2.470949000000     1.007825032230
         O            0.093893000000    -2.699563000000    -1.187877000000    15.994914619570
         H           -0.368393000000    -3.368385000000    -0.686177000000     1.007825032230
         H            0.993326000000    -3.116036000000    -1.311465000000     1.007825032230
      Gh(O)          -0.782278000000    -1.864644000000     1.959905000000    15.994914619570
      Gh(H)          -0.286253000000    -2.712429000000     1.908728000000     1.007825032230
      Gh(H)          -1.707732000000    -2.173103000000     2.104632000000     1.007825032230

  Charge       = 0
  Multiplicity = 1
  Basis Set: AUG-CC-PVTZ
    Blend: AUG-CC-PVTZ
  Basis Set: (AUG-CC-PVTZ AUX)
    Blend: AUG-CC-PVTZ-JKFIT + DEF2-UNIVERSAL-JKFIT

    Orbital Energies [Eh]
    ---------------------

    Doubly Occupied:

       1A    -20.571560     2A     -1.345659     3A     -0.702542
       4A     -0.585674     5A     -0.509515

  @DF-RHF Final Energy:   -76.05756977829236

   => Energetics <=

    Nuclear Repulsion Energy =              9.0177156264340930
    One-Electron Energy =                -122.7206660221371521
    Two-Electron Energy =                  37.6453806174106944
    Total Energy =                        -76.0575697782923612
 Dipole X            :         -2.3224645            2.6004087            0.2779441
 Dipole Y            :         52.3555421          -53.0652576           -0.7097155
 Dipole Z            :         21.9828328          -21.7330939            0.2497389
 Magnitude           :                                                    0.8020714
  Basis Set: (AUG-CC-PVTZ AUX)
    Blend: AUG-CC-PVTZ-RI + DEF2-QZVPP-RI
	 Reference Energy          =     -76.0575697782923612 [Eh]
	 Singles Energy            =      -0.0000000000000000 [Eh]
	 Same-Spin Energy          =      -0.0687703369169184 [Eh]
	 Opposite-Spin Energy      =      -0.2167307140337904 [Eh]
	 Correlation Energy        =      -0.2855010509507088 [Eh]
	 Total Energy              =     -76.3430708292430751 [Eh]

	 ================> DF-SCS-MP2 Energies <==================
	-----------------------------------------------------------
	 SCS Same-Spin Scale       =       0.3333333333333333 [-]
	 SCS Opposite-Spin Scale   =       1.2000000000000000 [-]
	 SCS Same-Spin Energy      =      -0.0229234456389728 [Eh]
	 SCS Opposite-Spin Energy  =      -0.2600768568405485 [Eh]
	 SCS Correlation Energy    =      -0.2830003024795213 [Eh]
	 SCS Total Energy          =     -76.3405700807718830 [Eh]
	-----------------------------------------------------------

*** Psi4 exiting successfully. Buy a developer a beer!
