                               Psi4 1.9 release

  ==> Input File <==

--------------------------------------------------------------------------
MEMORY 60 GB

molecule dimer {
1 1
K      0.000000     0.000000     0.000000
--
0 1
O     -1.350579    -0.451019    -2.184171
H     -0.828374    -0.405480    -2.959027
H     -2.295838    -0.182448    -2.477727
O      0.811714    -2.953770    -0.024877
H      0.491865    -3.516386     0.715024
H      1.703134    -3.259401    -0.070729
O      1.439502    -0.931900     2.390588
H      1.923833    -1.620427     2.861863
H      0.879775    -0.561656     3.062076
O      2.556752     0.575285    -0.926306
H      2.963771     0.049734    -0.227753
H      2.591393     1.523133    -0.691197
O     -1.229385     2.374053     0.624562
H     -0.903017     3.116669     1.152358
H     -2.153941     2.270777     0.923160
O     -1.464224    -0.338413     2.131283
H     -1.017152    -0.390138     2.970331
H     -2.307745     0.086032     2.373066

units ang
no_reorient
no_com
symmetry c1
}

set {
basis        aug-cc-pVTZ
scf_type     df
}

energy("mp2", bsse_type="cp")
--------------------------------------------------------------------------

                               Psi4 1.9 release
    Molecular point group: c1
  Charge       = 0
  Multiplicity = 1
  Basis Set: AUG-CC-PVTZ
    Blend: AUG-CC-PVTZ
  Basis Set: (AUG-CC-PVTZ AUX)
    Blend: AUG-CC-PVTZ-JKFIT + DEF2-UNIVERSAL-JKFIT
  @DF-RHF Final Energy:  -456.32302632504417
    Total Energy =                       -456.3230263250441681
 Dipole X            :        -13.8246823           13.5265538           -0.2981285
 Dipole Y            :         31.9013437          -31.5503061            0.3510376
 Dipole Z            :        -42.5813464           44.8244492            2.2431028
 Magnitude           :                                                    2.2898948
  Basis Set: (AUG-CC-PVTZ AUX)
    Blend: AUG-CC-PVTZ-RI + DEF2-QZVPP-RI
	 Reference Energy          =    -456.3230263250441681 [Eh]
	 Singles Energy            =      -0.0000000000000000 [Eh]
	 Same-Spin Energy          =      -0.4147679167477102 [Eh]
	 Opposite-Spin Energy      =      -1.3023005559207583 [Eh]
	 Correlation Energy        =      -1.7170684726684686 [Eh]
	 Total Energy              =    -458.0400947977126407 [Eh]
	 SCS Total Energy          =    -458.0240429643982907 [Eh]
                               Psi4 1.9 release
    Molecular point group: c1
  Multiplicity = 1
  Basis Set: AUG-CC-PVTZ
    Blend: AUG-CC-PVTZ
  Basis Set: (AUG-CC-PVTZ AUX)
    Blend: AUG-CC-PVTZ-JKFIT + DEF2-UNIVERSAL-JKFIT
  @DF-RHF Final Energy:  -599.01751679710947
    Total Energy =                       -599.0175167971093515
  Basis Set: (AUG-CC-PVTZ AUX)
	 Singles Energy            =      -0.0000000000000000 [Eh]
	 Same-Spin Energy          =      -0.0383929933151123 [Eh]
	 Opposite-Spin Energy      =      -0.0939412354815743 [Eh]
	 Correlation Energy        =      -0.1323342287966866 [Eh]
	 Total Energy              =    -599.1498510259061732 [Eh]
	 SCS Total Energy          =    -599.1430439441256794 [Eh]
                               Psi4 1.9 release
    Molecular point group: c1

    Geometry (in Bohr), charge = 1, multiplicity = 1:

       Center              X                  Y                   Z               Mass
    ------------   -----------------  -----------------  -----------------  -----------------
         K            0.000000000000     0.000000000000     0.000000000000    38.963706486400
         O           -2.552224420795    -0.852302387378    -4.127485001167    15.994914619570
         H           -1.565399989450    -0.766246149351    -5.591750627835     1.007825032230
         H           -4.338505048419    -0.344776752138    -4.682225443652     1.007825032230
         O            1.533917152200    -5.581816337594    -0.047010716823    15.994914619570
         H            0.929490140698    -6.645006491394     1.351199533129     1.007825032230
         H            3.218456814955    -6.159375223043    -0.133658439128     1.007825032230
         O            2.720264537049    -1.761035776314     4.517556598806    15.994914619570
         H            3.635517481118    -3.062163236297     5.408137278581     1.007825032230
         H            1.662533802025    -1.061376016720     5.786485015337     1.007825032230
         O            4.831561050717     1.087131094084    -1.750464648368    15.994914619570
         H            5.600715488574     0.093983639124    -0.430390794251     1.007825032230
         H            4.897023053429     2.878304222647    -1.306173028738     1.007825032230
         O           -2.323200952746     4.486309977322     1.180251128368    15.994914619570
         H           -1.706454816633     5.889650833705     2.177641018480     1.007825032230
         H           -4.070358580395     4.291146621989     1.744519569978     1.007825032230
         O           -2.766982346322    -0.639507887295     4.027541165844    15.994914619570
         H           -1.922138707962    -0.737253971134     5.613112091957     1.007825032230
         H           -4.361006017395     0.162576918025     4.484444817636     1.007825032230

  Charge       = 1
  Multiplicity = 1
  Basis Set: AUG-CC-PVTZ
    Blend: AUG-CC-PVTZ
  Basis Set: (AUG-CC-PVTZ AUX)
    Blend: AUG-CC-PVTZ-JKFIT + DEF2-UNIVERSAL-JKFIT

    Orbital Energies [Eh]
    ---------------------

    Doubly Occupied:

       1A   -133.574914     2A    -20.721683     3A    -20.712971
       4A    -20.711510     5A    -20.697315     6A    -20.695703
       7A    -20.684487     8A    -14.533176     9A    -11.563009
      10A    -11.562942    11A    -11.562923    12A     -1.797589
      13A     -1.511639    14A     -1.501536    15A     -1.491430
      16A     -1.475150    17A     -1.474854    18A     -1.470528
      19A     -1.009543    20A     -1.009094    21A     -1.006885
      22A     -0.880988    23A     -0.853967    24A     -0.850332
      25A     -0.848667    26A     -0.837532    27A     -0.819234
      28A     -0.751333    29A     -0.739253    30A     -0.734113
      31A     -0.716440    32A     -0.713290    33A     -0.704047
      34A     -0.675036    35A     -0.660824    36A     -0.649156
      37A     -0.641669    38A     -0.640631    39A     -0.626127

  @DF-RHF Final Energy: -1055.45212813270427

   => Energetics <=

    Nuclear Repulsion Energy =            454.2417828209991058
    One-Electron Energy =               -2351.1647717499163264
    Two-Electron Energy =                 841.4708607962128326
    Total Energy =                      -1055.4521281327042743
 Dipole X            :        -13.8793477           13.5265538           -0.3527939
 Dipole Y            :         31.8342625          -31.5503061            0.2839563
 Dipole Z            :        -42.4052111           44.8244492            2.4192381
 Magnitude           :                                                    2.4612614
  Basis Set: (AUG-CC-PVTZ AUX)
    Blend: AUG-CC-PVTZ-RI + DEF2-QZVPP-RI
	 Reference Energy          =   -1055.4521281327042743 [Eh]
	 Singles Energy            =      -0.0000000000000000 [Eh]
	 Same-Spin Energy          =      -0.4567472722387151 [Eh]
	 Opposite-Spin Energy      =      -1.3951201839640124 [Eh]
	 Correlation Energy        =      -1.8518674562027275 [Eh]
	 Total Energy              =   -1057.3039955889069006 [Eh]

	 ================> DF-SCS-MP2 Energies <==================
	-----------------------------------------------------------
	 SCS Same-Spin Scale       =       0.3333333333333333 [-]
	 SCS Opposite-Spin Scale   =       1.2000000000000000 [-]
	 SCS Same-Spin Energy      =      -0.1522490907462384 [Eh]
	 SCS Opposite-Spin Energy  =      -1.6741442207568149 [Eh]
	 SCS Correlation Energy    =      -1.8263933115030533 [Eh]
	 SCS Total Energy          =   -1057.2785214442073993 [Eh]
	-----------------------------------------------------------

*** Psi4 exiting successfully. Buy a developer a beer!
