                               Psi4 1.9 release

  ==> Input File <==

--------------------------------------------------------------------------
MEMORY 60 GB

molecule dimer {
1 1
K          0.000000     0.000000     0.000000
Gh(O)     -0.015696    -0.345584    -2.941205
Gh(H)      0.515652    -0.599405    -3.713110
Gh(H)     -0.673237     0.300386    -3.283334
Gh(O)     -2.446947    -1.823863     0.179839
Gh(H)     -2.158831    -2.714217     0.379934
Gh(H)     -2.806161    -1.416264     1.005551
Gh(O)      2.301395     1.583890     1.081324
Gh(H)      1.387959     1.838924     0.873685
Gh(H)      2.218707     0.954213     1.825131
Gh(O)      2.051371    -1.795200    -0.845859
Gh(H)      2.285042    -2.269202    -0.005706
Gh(H)      2.857258    -1.807046    -1.325303
Gh(O)      1.560729     1.646549    -1.959294
Gh(H)      1.936631     0.802346    -2.208848
Gh(H)      2.350103     2.037956    -1.650044

units ang
no_reorient
no_com
symmetry c1
}

set {
basis        aug-cc-pVTZ
scf_type     df
}

energy("mp2")
--------------------------------------------------------------------------

    Molecular point group: c1

    Geometry (in Angstrom), charge = 1, multiplicity = 1:

       Center              X                  Y                   Z               Mass
    ------------   -----------------  -----------------  -----------------  -----------------
         K            0.000000000000     0.000000000000     0.000000000000    38.963706486400
      Gh(O)          -0.015696000000    -0.345584000000    -2.941205000000    15.994914619570
      Gh(H)           0.515652000000    -0.599405000000    -3.713110000000     1.007825032230
      Gh(H)          -0.673237000000     0.300386000000    -3.283334000000     1.007825032230
      Gh(O)          -2.446947000000    -1.823863000000     0.179839000000    15.994914619570
      Gh(H)          -2.158831000000    -2.714217000000     0.379934000000     1.007825032230
      Gh(H)          -2.806161000000    -1.416264000000     1.005551000000     1.007825032230
      Gh(O)           2.301395000000     1.583890000000     1.081324000000    15.994914619570
      Gh(H)           1.387959000000     1.838924000000     0.873685000000     1.007825032230
      Gh(H)           2.218707000000     0.954213000000     1.825131000000     1.007825032230
      Gh(O)           2.051371000000    -1.795200000000    -0.845859000000    15.994914619570
      Gh(H)           2.285042000000    -2.269202000000    -0.005706000000     1.007825032230
      Gh(H)           2.857258000000    -1.807046000000    -1.325303000000     1.007825032230
      Gh(O)           1.560729000000     1.646549000000    -1.959294000000    15.994914619570
      Gh(H)           1.936631000000     0.802346000000    -2.208848000000     1.007825032230
      Gh(H)           2.350103000000     2.037956000000    -1.650044000000     1.007825032230

  Charge       = 1
  Multiplicity = 1
  Basis Set: AUG-CC-PVTZ
    Blend: AUG-CC-PVTZ
  Basis Set: (AUG-CC-PVTZ AUX)
    Blend: AUG-CC-PVTZ-JKFIT + DEF2-UNIVERSAL-JKFIT

    Orbital Energies [Eh]
    ---------------------

    Doubly Occupied:

       1A   -133.752610     2A    -14.708287     3A    -11.738348
       4A    -11.738347     5A    -11.738344     6A     -1.963928
       7A     -1.170633     8A     -1.170621     9A     -1.170600

  @DF-RHF Final Energy:  -599.01751572708315

   => Energetics <=

    Nuclear Repulsion Energy =              0.0000000000000000
    One-Electron Energy =                -819.7315961579010946
    Two-Electron Energy =                 220.7140804308180293
    Total Energy =                       -599.0175157270830368
 Dipole X            :          0.0002522            0.0000000            0.0002522
 Dipole Y            :         -0.0000268            0.0000000           -0.0000268
 Dipole Z            :         -0.0001557            0.0000000           -0.0001557
 Magnitude           :                                                    0.0002976
  Basis Set: (AUG-CC-PVTZ AUX)
    Blend: AUG-CC-PVTZ-RI + DEF2-QZVPP-RI
	 Reference Energy          =    -599.0175157270831505 [Eh]
	 Singles Energy            =      -0.0000000000000000 [Eh]
	 Same-Spin Energy          =      -0.0360454356510172 [Eh]
	 Opposite-Spin Energy      =      -0.0873881621777021 [Eh]
	 Correlation Energy        =      -0.1234335978287193 [Eh]
	 Total Energy              =    -599.1409493249118441 [Eh]

	 ================> DF-SCS-MP2 Energies <==================
	-----------------------------------------------------------
	 SCS Same-Spin Scale       =       0.3333333333333333 [-]
	 SCS Opposite-Spin Scale   =       1.2000000000000000 [-]
	 SCS Same-Spin Energy      =      -0.0120151452170057 [Eh]
	 SCS Opposite-Spin Energy  =      -0.1048657946132425 [Eh]
	 SCS Correlation Energy    =      -0.1168809398302482 [Eh]
	 SCS Total Energy          =    -599.1343966669134034 [Eh]
	-----------------------------------------------------------

*** Psi4 exiting successfully. Buy a developer a beer!
