                               Psi4 1.9 release

  ==> Input File <==

--------------------------------------------------------------------------
MEMORY 60 GB

molecule dimer {
1 1
K          0.000000     0.000000     0.000000
O          2.433312    -0.711261    -0.876073
H          3.025721     0.045558    -0.738606
H          2.646594    -0.978885    -1.800154
O          0.729442     2.374627     0.909651
H          1.436876     2.682600     1.537697
H          0.607664     3.130167     0.287856
O         -0.423164    -2.596708     0.556853
H         -0.086692    -3.420156     0.268816
H         -0.158458    -2.540686     1.533756
O         -2.766398    -1.080563     0.470208
H         -2.207598    -1.857753     0.314154
H         -3.672582    -1.339756     0.204091
O         -0.915396    -1.287261    -2.285458
H         -1.083095    -2.273539    -2.500910
H         -0.460494    -0.980307    -3.123591

units ang
no_reorient
no_com
symmetry c1
}

set {
basis        aug-cc-pVTZ
scf_type     df
}

energy("mp2")
--------------------------------------------------------------------------

    Molecular point group: c1

    Geometry (in Angstrom), charge = 1, multiplicity = 1:

       Center              X                  Y                   Z               Mass
    ------------   -----------------  -----------------  -----------------  -----------------
         K            0.000000000000     0.000000000000     0.000000000000    38.963706486400
         O            2.433312000000    -0.711261000000    -0.876073000000    15.994914619570
         H            3.025721000000     0.045558000000    -0.738606000000     1.007825032230
         H            2.646594000000    -0.978885000000    -1.800154000000     1.007825032230
         O            0.729442000000     2.374627000000     0.909651000000    15.994914619570
         H            1.436876000000     2.682600000000     1.537697000000     1.007825032230
         H            0.607664000000     3.130167000000     0.287856000000     1.007825032230
         O           -0.423164000000    -2.596708000000     0.556853000000    15.994914619570
         H           -0.086692000000    -3.420156000000     0.268816000000     1.007825032230
         H           -0.158458000000    -2.540686000000     1.533756000000     1.007825032230
         O           -2.766398000000    -1.080563000000     0.470208000000    15.994914619570
         H           -2.207598000000    -1.857753000000     0.314154000000     1.007825032230
         H           -3.672582000000    -1.339756000000     0.204091000000     1.007825032230
         O           -0.915396000000    -1.287261000000    -2.285458000000    15.994914619570
         H           -1.083095000000    -2.273539000000    -2.500910000000     1.007825032230
         H           -0.460494000000    -0.980307000000    -3.123591000000     1.007825032230

  Charge       = 1
  Multiplicity = 1
  Basis Set: AUG-CC-PVTZ
    Blend: AUG-CC-PVTZ
  Basis Set: (AUG-CC-PVTZ AUX)
    Blend: AUG-CC-PVTZ-JKFIT + DEF2-UNIVERSAL-JKFIT

    Orbital Energies [Eh]
    ---------------------

    Doubly Occupied:

       1A   -133.601871     2A    -20.727387     3A    -20.722878
       4A    -20.721973     5A    -20.716154     6A    -20.666028
       7A    -14.559846     8A    -11.589822     9A    -11.589627
      10A    -11.589550    11A     -1.823152    12A     -1.511071
      13A     -1.498898    14A     -1.491731    15A     -1.471192
      16A     -1.444944    17A     -1.036026    18A     -1.032334
      19A     -1.031852    20A     -0.872982    21A     -0.854931
      22A     -0.852632    23A     -0.827436    24A     -0.819956
      25A     -0.746757    26A     -0.744173    27A     -0.739250
      28A     -0.726844    29A     -0.688732    30A     -0.668526
      31A     -0.666077    32A     -0.662720    33A     -0.649261
      34A     -0.609675

  @DF-RHF Final Energy:  -979.38175385064369

   => Energetics <=

    Nuclear Repulsion Energy =            351.8501444140970307
    One-Electron Energy =               -2042.5512154905361513
    Two-Electron Energy =                 711.3193172257954302
    Total Energy =                       -979.3817538506436904
 Dipole X            :         15.5899409          -14.1534742            1.4364667
 Dipole Y            :         63.2783951          -64.1412448           -0.8628497
 Dipole Z            :         24.9873361          -26.1074036           -1.1200675
 Magnitude           :                                                    2.0155638
  Basis Set: (AUG-CC-PVTZ AUX)
    Blend: AUG-CC-PVTZ-RI + DEF2-QZVPP-RI
	 Reference Energy          =    -979.3817538506436904 [Eh]
	 Singles Energy            =      -0.0000000000000000 [Eh]
	 Same-Spin Energy          =      -0.3881185303813373 [Eh]
	 Opposite-Spin Energy      =      -1.1797553192190577 [Eh]
	 Correlation Energy        =      -1.5678738496003950 [Eh]
	 Total Energy              =    -980.9496277002440365 [Eh]

	 ================> DF-SCS-MP2 Energies <==================
	-----------------------------------------------------------
	 SCS Same-Spin Scale       =       0.3333333333333333 [-]
	 SCS Opposite-Spin Scale   =       1.2000000000000000 [-]
	 SCS Same-Spin Energy      =      -0.1293728434604458 [Eh]
	 SCS Opposite-Spin Energy  =      -1.4157063830628693 [Eh]
	 SCS Correlation Energy    =      -1.5450792265233151 [Eh]
	 SCS Total Energy          =    -980.9268330771669753 [Eh]
	-----------------------------------------------------------

*** Psi4 exiting successfully. Buy a developer a beer!
