                               Psi4 1.9 release

  ==> Input File <==

--------------------------------------------------------------------------
MEMORY 60 GB

molecule dimer {
1 1
K          0.000000     0.000000     0.000000
O         -2.673776     0.948720     0.824417
H         -3.167263     0.143970     0.942318
H         -3.136901     1.459363     0.150868
O          0.110920     1.957449     2.167223
H          1.097248     2.052670     2.037989
H         -0.141234     1.268912     2.776564
O          1.687577    -1.962600     0.509768
H          1.167472    -2.750807     0.847882
H          2.480538    -2.345650     0.073359
O         -0.890535    -1.759466    -2.025758
H         -0.401801    -2.629097    -1.882489
H         -1.631369    -1.780708    -1.454003
O         -0.772890     1.155494    -2.301149
H         -0.888182     0.209431    -2.448873
H         -1.511275     1.637928    -2.717803

units ang
no_reorient
no_com
symmetry c1
}

set {
basis        aug-cc-pVTZ
scf_type     df
}

energy("mp2")
--------------------------------------------------------------------------

    Molecular point group: c1

    Geometry (in Angstrom), charge = 1, multiplicity = 1:

       Center              X                  Y                   Z               Mass
    ------------   -----------------  -----------------  -----------------  -----------------
         K            0.000000000000     0.000000000000     0.000000000000    38.963706486400
         O           -2.673776000000     0.948720000000     0.824417000000    15.994914619570
         H           -3.167263000000     0.143970000000     0.942318000000     1.007825032230
         H           -3.136901000000     1.459363000000     0.150868000000     1.007825032230
         O            0.110920000000     1.957449000000     2.167223000000    15.994914619570
         H            1.097248000000     2.052670000000     2.037989000000     1.007825032230
         H           -0.141234000000     1.268912000000     2.776564000000     1.007825032230
         O            1.687577000000    -1.962600000000     0.509768000000    15.994914619570
         H            1.167472000000    -2.750807000000     0.847882000000     1.007825032230
         H            2.480538000000    -2.345650000000     0.073359000000     1.007825032230
         O           -0.890535000000    -1.759466000000    -2.025758000000    15.994914619570
         H           -0.401801000000    -2.629097000000    -1.882489000000     1.007825032230
         H           -1.631369000000    -1.780708000000    -1.454003000000     1.007825032230
         O           -0.772890000000     1.155494000000    -2.301149000000    15.994914619570
         H           -0.888182000000     0.209431000000    -2.448873000000     1.007825032230
         H           -1.511275000000     1.637928000000    -2.717803000000     1.007825032230

  Charge       = 1
  Multiplicity = 1
  Basis Set: AUG-CC-PVTZ
    Blend: AUG-CC-PVTZ
  Basis Set: (AUG-CC-PVTZ AUX)
    Blend: AUG-CC-PVTZ-JKFIT + DEF2-UNIVERSAL-JKFIT

    Orbital Energies [Eh]
    ---------------------

    Doubly Occupied:

       1A   -133.628735     2A    -20.746695     3A    -20.743233
       4A    -20.709450     5A    -20.699018     6A    -20.696990
       7A    -14.586487     8A    -11.616464     9A    -11.616326
      10A    -11.616164    11A     -1.849195    12A     -1.529946
      13A     -1.510674    14A     -1.496843    15A     -1.481649
      16A     -1.471151    17A     -1.060931    18A     -1.059699
      19A     -1.055736    20A     -0.894646    21A     -0.873347
      22A     -0.865318    23A     -0.860670    24A     -0.856109
      25A     -0.763927    26A     -0.758460    27A     -0.728858
      28A     -0.711172    29A     -0.694884    30A     -0.692493
      31A     -0.681661    32A     -0.658287    33A     -0.644347
      34A     -0.640364

  @DF-RHF Final Energy:  -979.36915165100174

   => Energetics <=

    Nuclear Repulsion Energy =            347.4938768034718919
    One-Electron Energy =               -2032.7261893568140749
    Two-Electron Energy =                 705.8631609023403826
    Total Energy =                       -979.3691516510017436
 Dipole X            :         49.1865255          -49.9688922           -0.7823667
 Dipole Y            :         -2.3320383           -0.0325260           -2.3645643
 Dipole Z            :         15.5439200          -15.6434930           -0.0995730
 Magnitude           :                                                    2.4926244
  Basis Set: (AUG-CC-PVTZ AUX)
    Blend: AUG-CC-PVTZ-RI + DEF2-QZVPP-RI
	 Reference Energy          =    -979.3691516510017436 [Eh]
	 Singles Energy            =      -0.0000000000000000 [Eh]
	 Same-Spin Energy          =      -0.3866673976641577 [Eh]
	 Opposite-Spin Energy      =      -1.1764843142734882 [Eh]
	 Correlation Energy        =      -1.5631517119376459 [Eh]
	 Total Energy              =    -980.9323033629393649 [Eh]

	 ================> DF-SCS-MP2 Energies <==================
	-----------------------------------------------------------
	 SCS Same-Spin Scale       =       0.3333333333333333 [-]
	 SCS Opposite-Spin Scale   =       1.2000000000000000 [-]
	 SCS Same-Spin Energy      =      -0.1288891325547192 [Eh]
	 SCS Opposite-Spin Energy  =      -1.4117811771281858 [Eh]
	 SCS Correlation Energy    =      -1.5406703096829051 [Eh]
	 SCS Total Energy          =    -980.9098219606846669 [Eh]
	-----------------------------------------------------------

*** Psi4 exiting successfully. Buy a developer a beer!
