                               Psi4 1.9 release

  ==> Input File <==

--------------------------------------------------------------------------
MEMORY 60 GB

molecule dimer {
1 1
K          0.000000     0.000000     0.000000
O          0.819292    -2.789941     0.291306
H          1.195094    -2.776841    -0.566002
H         -0.077964    -3.026358     0.173959
O          1.764010    -0.126028     2.022779
H          1.754232     0.527948     2.711207
H          2.705527    -0.165887     1.849429
O          0.734762    -1.062837    -2.508725
H         -0.095661    -1.571347    -2.543715
H          0.877683    -0.850644    -3.477691
O         -1.962159    -1.257408    -1.533300
H         -1.941275    -2.118908    -1.072393
H         -2.659976    -0.760867    -1.081823
O         -1.800433     2.262698     0.326586
H         -2.152082     2.644699     1.205225
H         -2.536440     1.995678    -0.220888
O          2.083767     1.285735    -1.472343
H          2.549628     1.827404    -0.889650
H          2.615719     0.570403    -1.811064
O         -2.043898    -0.136581     1.786181
H         -2.602896    -0.897183     2.048392
H         -2.544444     0.705464     1.976021

units ang
no_reorient
no_com
symmetry c1
}

set {
basis        aug-cc-pVTZ
scf_type     df
}

energy("mp2")
--------------------------------------------------------------------------

    Molecular point group: c1

    Geometry (in Angstrom), charge = 1, multiplicity = 1:

       Center              X                  Y                   Z               Mass
    ------------   -----------------  -----------------  -----------------  -----------------
         K            0.000000000000     0.000000000000     0.000000000000    38.963706486400
         O            0.819292000000    -2.789941000000     0.291306000000    15.994914619570
         H            1.195094000000    -2.776841000000    -0.566002000000     1.007825032230
         H           -0.077964000000    -3.026358000000     0.173959000000     1.007825032230
         O            1.764010000000    -0.126028000000     2.022779000000    15.994914619570
         H            1.754232000000     0.527948000000     2.711207000000     1.007825032230
         H            2.705527000000    -0.165887000000     1.849429000000     1.007825032230
         O            0.734762000000    -1.062837000000    -2.508725000000    15.994914619570
         H           -0.095661000000    -1.571347000000    -2.543715000000     1.007825032230
         H            0.877683000000    -0.850644000000    -3.477691000000     1.007825032230
         O           -1.962159000000    -1.257408000000    -1.533300000000    15.994914619570
         H           -1.941275000000    -2.118908000000    -1.072393000000     1.007825032230
         H           -2.659976000000    -0.760867000000    -1.081823000000     1.007825032230
         O           -1.800433000000     2.262698000000     0.326586000000    15.994914619570
         H           -2.152082000000     2.644699000000     1.205225000000     1.007825032230
         H           -2.536440000000     1.995678000000    -0.220888000000     1.007825032230
         O            2.083767000000     1.285735000000    -1.472343000000    15.994914619570
         H            2.549628000000     1.827404000000    -0.889650000000     1.007825032230
         H            2.615719000000     0.570403000000    -1.811064000000     1.007825032230
         O           -2.043898000000    -0.136581000000     1.786181000000    15.994914619570
         H           -2.602896000000    -0.897183000000     2.048392000000     1.007825032230
         H           -2.544444000000     0.705464000000     1.976021000000     1.007825032230

  Charge       = 1
  Multiplicity = 1
  Basis Set: AUG-CC-PVTZ
    Blend: AUG-CC-PVTZ
  Basis Set: (AUG-CC-PVTZ AUX)
    Blend: AUG-CC-PVTZ-JKFIT + DEF2-UNIVERSAL-JKFIT

    Orbital Energies [Eh]
    ---------------------

    Doubly Occupied:

       1A   -133.576576     2A    -20.731085     3A    -20.719720
       4A    -20.714885     5A    -20.698205     6A    -20.694948
       7A    -20.689496     8A    -20.678361     9A    -14.534704
      10A    -11.564578    11A    -11.564495    12A    -11.564420
      13A     -1.798787    14A     -1.513156    15A     -1.493610
      16A     -1.492115    17A     -1.488716    18A     -1.482124
      19A     -1.479759    20A     -1.470018    21A     -1.011167
      22A     -1.009336    23A     -1.007749    24A     -0.877677
      25A     -0.866428    26A     -0.864833    27A     -0.860750
      28A     -0.853918    29A     -0.838619    30A     -0.827444
      31A     -0.750869    32A     -0.733661    33A     -0.729616
      34A     -0.719835    35A     -0.718324    36A     -0.711366
      37A     -0.695639    38A     -0.678625    39A     -0.667103
      40A     -0.647018    41A     -0.644748    42A     -0.642201
      43A     -0.637163    44A     -0.630953

  @DF-RHF Final Energy: -1131.50583011530830

   => Energetics <=

    Nuclear Repulsion Energy =            579.3951536750557807
    One-Electron Energy =               -2704.6523584948768075
    Two-Electron Energy =                 993.7513747045126138
    Total Energy =                      -1131.5058301153080720
 Dipole X            :         10.1989734          -11.6220557           -1.4230823
 Dipole Y            :         34.8052734          -34.9435588           -0.1382854
 Dipole Z            :         19.9604195          -19.6514906            0.3089289
 Magnitude           :                                                    1.4627793
  Basis Set: (AUG-CC-PVTZ AUX)
    Blend: AUG-CC-PVTZ-RI + DEF2-QZVPP-RI
	 Reference Energy          =   -1131.5058301153082994 [Eh]
	 Singles Energy            =      -0.0000000000000000 [Eh]
	 Same-Spin Energy          =      -0.5299497834298587 [Eh]
	 Opposite-Spin Energy      =      -1.6189073831791863 [Eh]
	 Correlation Energy        =      -2.1488571666090448 [Eh]
	 Total Energy              =   -1133.6546872819174041 [Eh]

	 ================> DF-SCS-MP2 Energies <==================
	-----------------------------------------------------------
	 SCS Same-Spin Scale       =       0.3333333333333333 [-]
	 SCS Opposite-Spin Scale   =       1.2000000000000000 [-]
	 SCS Same-Spin Energy      =      -0.1766499278099529 [Eh]
	 SCS Opposite-Spin Energy  =      -1.9426888598150234 [Eh]
	 SCS Correlation Energy    =      -2.1193387876249763 [Eh]
	 SCS Total Energy          =   -1133.6251689029331828 [Eh]
	-----------------------------------------------------------

*** Psi4 exiting successfully. Buy a developer a beer!
