                               Psi4 1.9 release

  ==> Input File <==

--------------------------------------------------------------------------
MEMORY 60 GB

molecule dimer {
1 1
K          0.000000     0.000000     0.000000
O         -1.578613    -2.113716     0.218354
H         -0.981947    -2.793452    -0.097712
H         -2.324957    -2.073157    -0.378677
O          1.295700    -2.515411    -0.325869
H          0.949642    -3.369730    -0.036852
H          2.279970    -2.442741    -0.095265
O          2.568601     0.147719    -0.427268
H          2.727281    -0.077392    -1.363704
H          3.370881     0.599596    -0.084938
O         -0.362166     2.669565     0.838638
H         -1.033657     3.293462     0.421097
H          0.445519     2.915189     0.370285

units ang
no_reorient
no_com
symmetry c1
}

set {
basis        aug-cc-pVTZ
scf_type     df
}

energy("mp2")
--------------------------------------------------------------------------

    Molecular point group: c1

    Geometry (in Angstrom), charge = 1, multiplicity = 1:

       Center              X                  Y                   Z               Mass
    ------------   -----------------  -----------------  -----------------  -----------------
         K            0.000000000000     0.000000000000     0.000000000000    38.963706486400
         O           -1.578613000000    -2.113716000000     0.218354000000    15.994914619570
         H           -0.981947000000    -2.793452000000    -0.097712000000     1.007825032230
         H           -2.324957000000    -2.073157000000    -0.378677000000     1.007825032230
         O            1.295700000000    -2.515411000000    -0.325869000000    15.994914619570
         H            0.949642000000    -3.369730000000    -0.036852000000     1.007825032230
         H            2.279970000000    -2.442741000000    -0.095265000000     1.007825032230
         O            2.568601000000     0.147719000000    -0.427268000000    15.994914619570
         H            2.727281000000    -0.077392000000    -1.363704000000     1.007825032230
         H            3.370881000000     0.599596000000    -0.084938000000     1.007825032230
         O           -0.362166000000     2.669565000000     0.838638000000    15.994914619570
         H           -1.033657000000     3.293462000000     0.421097000000     1.007825032230
         H            0.445519000000     2.915189000000     0.370285000000     1.007825032230

  Charge       = 1
  Multiplicity = 1
  Basis Set: AUG-CC-PVTZ
    Blend: AUG-CC-PVTZ
  Basis Set: (AUG-CC-PVTZ AUX)
    Blend: AUG-CC-PVTZ-JKFIT + DEF2-UNIVERSAL-JKFIT

    Orbital Energies [Eh]
    ---------------------

    Doubly Occupied:

       1A   -133.625000     2A    -20.737756     3A    -20.723812
       4A    -20.721163     5A    -20.715911     6A    -14.582911
       7A    -11.612891     8A    -11.612683     9A    -11.612640
      10A     -1.845863    11A     -1.514385    12A     -1.507321
      13A     -1.492208    14A     -1.491669    15A     -1.056903
      16A     -1.055867    17A     -1.053757    18A     -0.889517
      19A     -0.882784    20A     -0.859342    21A     -0.845698
      22A     -0.755361    23A     -0.738115    24A     -0.736524
      25A     -0.731166    26A     -0.683007    27A     -0.667904
      28A     -0.662773    29A     -0.660930

  @DF-RHF Final Energy:  -903.31329211421769

   => Energetics <=

    Nuclear Repulsion Energy =            257.0424025581377805
    One-Electron Energy =               -1748.5596574547239470
    Two-Electron Energy =                 588.2039627823684214
    Total Energy =                       -903.3132921142176883
 Dipole X            :        -38.0369258           39.3458138            1.3088880
 Dipole Y            :         34.5270894          -34.8521604           -0.3250710
 Dipole Z            :         -3.4050857            2.2016708           -1.2034150
 Magnitude           :                                                    1.8075028
  Basis Set: (AUG-CC-PVTZ AUX)
    Blend: AUG-CC-PVTZ-RI + DEF2-QZVPP-RI
	 Reference Energy          =    -903.3132921142176883 [Eh]
	 Singles Energy            =      -0.0000000000000000 [Eh]
	 Same-Spin Energy          =      -0.3146585568620114 [Eh]
	 Opposite-Spin Energy      =      -0.9532682431378955 [Eh]
	 Correlation Energy        =      -1.2679267999999069 [Eh]
	 Total Energy              =    -904.5812189142176294 [Eh]

	 ================> DF-SCS-MP2 Energies <==================
	-----------------------------------------------------------
	 SCS Same-Spin Scale       =       0.3333333333333333 [-]
	 SCS Opposite-Spin Scale   =       1.2000000000000000 [-]
	 SCS Same-Spin Energy      =      -0.1048861856206705 [Eh]
	 SCS Opposite-Spin Energy  =      -1.1439218917654745 [Eh]
	 SCS Correlation Energy    =      -1.2488080773861450 [Eh]
	 SCS Total Energy          =    -904.5621001916038040 [Eh]
	-----------------------------------------------------------

*** Psi4 exiting successfully. Buy a developer a beer!
