                               Psi4 1.9 release

  ==> Input File <==

--------------------------------------------------------------------------
MEMORY 60 GB

molecule dimer {
0 1
Gh(K)      0.000000     0.000000     0.000000
Gh(O)     -2.324873    -1.404209    -0.719175
Gh(H)     -2.508892    -2.382152    -0.757465
Gh(H)     -3.103411    -1.007604    -0.391341
O          0.928383    -2.282472     1.098452
H          1.810797    -2.654173     1.272065
H          0.418300    -2.312404     1.908116
Gh(O)      1.667709     2.265231     0.418502
Gh(H)      1.289449     2.964199     0.969759
Gh(H)      1.716548     2.696389    -0.446786

units ang
no_reorient
no_com
symmetry c1
}

set {
basis        aug-cc-pVTZ
scf_type     df
}

energy("mp2")
--------------------------------------------------------------------------

    Molecular point group: c1

    Geometry (in Angstrom), charge = 0, multiplicity = 1:

       Center              X                  Y                   Z               Mass
    ------------   -----------------  -----------------  -----------------  -----------------
      Gh(K)           0.000000000000     0.000000000000     0.000000000000    38.963706486400
      Gh(O)          -2.324873000000    -1.404209000000    -0.719175000000    15.994914619570
      Gh(H)          -2.508892000000    -2.382152000000    -0.757465000000     1.007825032230
      Gh(H)          -3.103411000000    -1.007604000000    -0.391341000000     1.007825032230
         O            0.928383000000    -2.282472000000     1.098452000000    15.994914619570
         H            1.810797000000    -2.654173000000     1.272065000000     1.007825032230
         H            0.418300000000    -2.312404000000     1.908116000000     1.007825032230
      Gh(O)           1.667709000000     2.265231000000     0.418502000000    15.994914619570
      Gh(H)           1.289449000000     2.964199000000     0.969759000000     1.007825032230
      Gh(H)           1.716548000000     2.696389000000    -0.446786000000     1.007825032230

  Charge       = 0
  Multiplicity = 1
  Basis Set: AUG-CC-PVTZ
    Blend: AUG-CC-PVTZ
  Basis Set: (AUG-CC-PVTZ AUX)
    Blend: AUG-CC-PVTZ-JKFIT + DEF2-UNIVERSAL-JKFIT

    Orbital Energies [Eh]
    ---------------------

    Doubly Occupied:

       1A    -20.566635     2A     -1.346616     3A     -0.721189
       4A     -0.575284     5A     -0.508427

  @DF-RHF Final Energy:   -76.05963431360136

   => Energetics <=

    Nuclear Repulsion Energy =              9.1094628517797656
    One-Electron Energy =                -122.9018886899741290
    Two-Electron Energy =                  37.7327915245929901
    Total Energy =                        -76.0596343136013786
 Dipole X            :        -17.9999914           18.2474997            0.2475083
 Dipole Y            :         43.6224422          -43.8914461           -0.2690039
 Dipole Z            :        -21.9556466           22.6158587            0.6602121
 Magnitude           :                                                    0.7546545
  Basis Set: (AUG-CC-PVTZ AUX)
    Blend: AUG-CC-PVTZ-RI + DEF2-QZVPP-RI
	 Reference Energy          =     -76.0596343136013644 [Eh]
	 Singles Energy            =      -0.0000000000000000 [Eh]
	 Same-Spin Energy          =      -0.0684428885450006 [Eh]
	 Opposite-Spin Energy      =      -0.2156005668670672 [Eh]
	 Correlation Energy        =      -0.2840434554120678 [Eh]
	 Total Energy              =     -76.3436777690134392 [Eh]

	 ================> DF-SCS-MP2 Energies <==================
	-----------------------------------------------------------
	 SCS Same-Spin Scale       =       0.3333333333333333 [-]
	 SCS Opposite-Spin Scale   =       1.2000000000000000 [-]
	 SCS Same-Spin Energy      =      -0.0228142961816669 [Eh]
	 SCS Opposite-Spin Energy  =      -0.2587206802404806 [Eh]
	 SCS Correlation Energy    =      -0.2815349764221475 [Eh]
	 SCS Total Energy          =     -76.3411692900235153 [Eh]
	-----------------------------------------------------------

*** Psi4 exiting successfully. Buy a developer a beer!
