                               Psi4 1.9 release

  ==> Input File <==

--------------------------------------------------------------------------
MEMORY 60 GB

molecule dimer {
1 1
K          0.000000     0.000000     0.000000
O         -1.350579    -0.451019    -2.184171
H         -0.828374    -0.405480    -2.959027
H         -2.295838    -0.182448    -2.477727
O          0.811714    -2.953770    -0.024877
H          0.491865    -3.516386     0.715024
H          1.703134    -3.259401    -0.070729
O          1.439502    -0.931900     2.390588
H          1.923833    -1.620427     2.861863
H          0.879775    -0.561656     3.062076
O          2.556752     0.575285    -0.926306
H          2.963771     0.049734    -0.227753
H          2.591393     1.523133    -0.691197
O         -1.229385     2.374053     0.624562
H         -0.903017     3.116669     1.152358
H         -2.153941     2.270777     0.923160
O         -1.464224    -0.338413     2.131283
H         -1.017152    -0.390138     2.970331
H         -2.307745     0.086032     2.373066

units ang
no_reorient
no_com
symmetry c1
}

set {
basis        aug-cc-pVTZ
scf_type     df
}

energy("mp2")
--------------------------------------------------------------------------

    Molecular point group: c1

    Geometry (in Angstrom), charge = 1, multiplicity = 1:

       Center              X                  Y                   Z               Mass
    ------------   -----------------  -----------------  -----------------  -----------------
         K            0.000000000000     0.000000000000     0.000000000000    38.963706486400
         O           -1.350579000000    -0.451019000000    -2.184171000000    15.994914619570
         H           -0.828374000000    -0.405480000000    -2.959027000000     1.007825032230
         H           -2.295838000000    -0.182448000000    -2.477727000000     1.007825032230
         O            0.811714000000    -2.953770000000    -0.024877000000    15.994914619570
         H            0.491865000000    -3.516386000000     0.715024000000     1.007825032230
         H            1.703134000000    -3.259401000000    -0.070729000000     1.007825032230
         O            1.439502000000    -0.931900000000     2.390588000000    15.994914619570
         H            1.923833000000    -1.620427000000     2.861863000000     1.007825032230
         H            0.879775000000    -0.561656000000     3.062076000000     1.007825032230
         O            2.556752000000     0.575285000000    -0.926306000000    15.994914619570
         H            2.963771000000     0.049734000000    -0.227753000000     1.007825032230
         H            2.591393000000     1.523133000000    -0.691197000000     1.007825032230
         O           -1.229385000000     2.374053000000     0.624562000000    15.994914619570
         H           -0.903017000000     3.116669000000     1.152358000000     1.007825032230
         H           -2.153941000000     2.270777000000     0.923160000000     1.007825032230
         O           -1.464224000000    -0.338413000000     2.131283000000    15.994914619570
         H           -1.017152000000    -0.390138000000     2.970331000000     1.007825032230
         H           -2.307745000000     0.086032000000     2.373066000000     1.007825032230

  Charge       = 1
  Multiplicity = 1
  Basis Set: AUG-CC-PVTZ
    Blend: AUG-CC-PVTZ
  Basis Set: (AUG-CC-PVTZ AUX)
    Blend: AUG-CC-PVTZ-JKFIT + DEF2-UNIVERSAL-JKFIT

    Orbital Energies [Eh]
    ---------------------

    Doubly Occupied:

       1A   -133.574914     2A    -20.721683     3A    -20.712971
       4A    -20.711510     5A    -20.697315     6A    -20.695703
       7A    -20.684487     8A    -14.533176     9A    -11.563009
      10A    -11.562942    11A    -11.562923    12A     -1.797589
      13A     -1.511639    14A     -1.501536    15A     -1.491430
      16A     -1.475150    17A     -1.474854    18A     -1.470528
      19A     -1.009543    20A     -1.009094    21A     -1.006885
      22A     -0.880988    23A     -0.853967    24A     -0.850332
      25A     -0.848667    26A     -0.837532    27A     -0.819234
      28A     -0.751333    29A     -0.739253    30A     -0.734113
      31A     -0.716440    32A     -0.713290    33A     -0.704047
      34A     -0.675036    35A     -0.660824    36A     -0.649156
      37A     -0.641669    38A     -0.640631    39A     -0.626127

  @DF-RHF Final Energy: -1055.45212813192779

   => Energetics <=

    Nuclear Repulsion Energy =            454.2417828209991058
    One-Electron Energy =               -2351.1647717505466062
    Two-Electron Energy =                 841.4708607976197072
    Total Energy =                      -1055.4521281319277932
 Dipole X            :        -13.8793477           13.5265538           -0.3527939
 Dipole Y            :         31.8342625          -31.5503061            0.2839563
 Dipole Z            :        -42.4052111           44.8244492            2.4192381
 Magnitude           :                                                    2.4612614
  Basis Set: (AUG-CC-PVTZ AUX)
    Blend: AUG-CC-PVTZ-RI + DEF2-QZVPP-RI
	 Reference Energy          =   -1055.4521281319277932 [Eh]
	 Singles Energy            =      -0.0000000000000000 [Eh]
	 Same-Spin Energy          =      -0.4567472722441174 [Eh]
	 Opposite-Spin Energy      =      -1.3951201839765577 [Eh]
	 Correlation Energy        =      -1.8518674562206749 [Eh]
	 Total Energy              =   -1057.3039955881483820 [Eh]

	 ================> DF-SCS-MP2 Energies <==================
	-----------------------------------------------------------
	 SCS Same-Spin Scale       =       0.3333333333333333 [-]
	 SCS Opposite-Spin Scale   =       1.2000000000000000 [-]
	 SCS Same-Spin Energy      =      -0.1522490907480391 [Eh]
	 SCS Opposite-Spin Energy  =      -1.6741442207718691 [Eh]
	 SCS Correlation Energy    =      -1.8263933115199082 [Eh]
	 SCS Total Energy          =   -1057.2785214434477439 [Eh]
	-----------------------------------------------------------

*** Psi4 exiting successfully. Buy a developer a beer!
