                               Psi4 1.9 release

  ==> Input File <==

--------------------------------------------------------------------------
MEMORY 60 GB

molecule dimer {
1 1
K          0.000000     0.000000     0.000000
O          2.447443     0.085993    -0.685068
H          2.680985    -0.837747    -0.449500
H          2.829525     0.251364    -1.547070
O         -0.233139     0.163157    -2.500787
H         -0.170321     1.052496    -2.894868
H         -0.081279    -0.518299    -3.176040
O          0.572340    -2.370612     0.170271
H          1.401491    -2.685494    -0.138462
H          0.365707    -2.920483     0.932021
O         -1.422337    -0.715469     2.174589
H         -1.861433     0.134559     2.211240
H         -0.761789    -0.679178     2.924485
O         -0.712298     2.966230    -0.259699
H         -1.087339     3.581553    -0.884928
H          0.231785     2.928736    -0.444753

units ang
no_reorient
no_com
symmetry c1
}

set {
basis        aug-cc-pVTZ
scf_type     df
}

energy("mp2")
--------------------------------------------------------------------------

    Molecular point group: c1

    Geometry (in Angstrom), charge = 1, multiplicity = 1:

       Center              X                  Y                   Z               Mass
    ------------   -----------------  -----------------  -----------------  -----------------
         K            0.000000000000     0.000000000000     0.000000000000    38.963706486400
         O            2.447443000000     0.085993000000    -0.685068000000    15.994914619570
         H            2.680985000000    -0.837747000000    -0.449500000000     1.007825032230
         H            2.829525000000     0.251364000000    -1.547070000000     1.007825032230
         O           -0.233139000000     0.163157000000    -2.500787000000    15.994914619570
         H           -0.170321000000     1.052496000000    -2.894868000000     1.007825032230
         H           -0.081279000000    -0.518299000000    -3.176040000000     1.007825032230
         O            0.572340000000    -2.370612000000     0.170271000000    15.994914619570
         H            1.401491000000    -2.685494000000    -0.138462000000     1.007825032230
         H            0.365707000000    -2.920483000000     0.932021000000     1.007825032230
         O           -1.422337000000    -0.715469000000     2.174589000000    15.994914619570
         H           -1.861433000000     0.134559000000     2.211240000000     1.007825032230
         H           -0.761789000000    -0.679178000000     2.924485000000     1.007825032230
         O           -0.712298000000     2.966230000000    -0.259699000000    15.994914619570
         H           -1.087339000000     3.581553000000    -0.884928000000     1.007825032230
         H            0.231785000000     2.928736000000    -0.444753000000     1.007825032230

  Charge       = 1
  Multiplicity = 1
  Basis Set: AUG-CC-PVTZ
    Blend: AUG-CC-PVTZ
  Basis Set: (AUG-CC-PVTZ AUX)
    Blend: AUG-CC-PVTZ-JKFIT + DEF2-UNIVERSAL-JKFIT

    Orbital Energies [Eh]
    ---------------------

    Doubly Occupied:

       1A   -133.586287     2A    -20.726264     3A    -20.726217
       4A    -20.719030     5A    -20.714283     6A    -20.705047
       7A    -14.545743     8A    -11.575458     9A    -11.575405
      10A    -11.575304    11A     -1.814377    12A     -1.524796
      13A     -1.510360    14A     -1.499710    15A     -1.491421
      16A     -1.491417    17A     -1.028885    18A     -1.026584
      19A     -1.026275    20A     -0.891325    21A     -0.875804
      22A     -0.874250    23A     -0.860641    24A     -0.851143
      25A     -0.756685    26A     -0.746878    27A     -0.734701
      28A     -0.729640    29A     -0.722790    30A     -0.681421
      31A     -0.676954    32A     -0.660497    33A     -0.657571
      34A     -0.650368

  @DF-RHF Final Energy:  -979.37981628038870

   => Energetics <=

    Nuclear Repulsion Energy =            360.1296096632916601
    One-Electron Energy =               -2058.5517797643219637
    Two-Electron Energy =                 719.0423538206416652
    Total Energy =                       -979.3798162803886953
 Dipole X            :        -15.0515883           16.5604335            1.5088452
 Dipole Y            :         -2.6361665            2.5358216           -0.1003449
 Dipole Z            :         22.1835045          -23.1934157           -1.0099112
 Magnitude           :                                                    1.8184069
  Basis Set: (AUG-CC-PVTZ AUX)
    Blend: AUG-CC-PVTZ-RI + DEF2-QZVPP-RI
	 Reference Energy          =    -979.3798162803886953 [Eh]
	 Singles Energy            =      -0.0000000000000000 [Eh]
	 Same-Spin Energy          =      -0.3882057637935253 [Eh]
	 Opposite-Spin Energy      =      -1.1787398987009614 [Eh]
	 Correlation Energy        =      -1.5669456624944869 [Eh]
	 Total Energy              =    -980.9467619428831995 [Eh]

	 ================> DF-SCS-MP2 Energies <==================
	-----------------------------------------------------------
	 SCS Same-Spin Scale       =       0.3333333333333333 [-]
	 SCS Opposite-Spin Scale   =       1.2000000000000000 [-]
	 SCS Same-Spin Energy      =      -0.1294019212645084 [Eh]
	 SCS Opposite-Spin Energy  =      -1.4144878784411536 [Eh]
	 SCS Correlation Energy    =      -1.5438897997056622 [Eh]
	 SCS Total Energy          =    -980.9237060800943482 [Eh]
	-----------------------------------------------------------

*** Psi4 exiting successfully. Buy a developer a beer!
