                               Psi4 1.9 release

  ==> Input File <==

--------------------------------------------------------------------------
MEMORY 60 GB

molecule dimer {
0 1
Gh(K)      0.000000     0.000000     0.000000
Gh(O)      0.118696    -2.770459     0.076879
Gh(H)     -0.333969    -3.135341     0.830822
Gh(H)      0.982084    -3.221411     0.111931
O          1.379726    -1.154328    -2.080253
H          2.056706    -1.833961    -2.058727
H          1.169543    -1.009891    -3.018870
Gh(O)      2.724284     0.265425     0.841619
Gh(H)      3.242030     1.067792     0.900161
Gh(H)      2.990826    -0.377309     1.498758
Gh(O)     -2.881305     0.223588     0.845452
Gh(H)     -3.728837     0.040709     1.280940
Gh(H)     -2.877352     1.133782     1.077537
Gh(O)      0.197582     1.855176     2.126719
Gh(H)     -0.684460     2.355019     2.158041
Gh(H)      0.495535     1.708267     3.013621
Gh(O)     -1.133798     2.421734    -1.164227
Gh(H)     -0.805925     2.041723    -2.060813
Gh(H)     -2.117470     2.513113    -1.178015

units ang
no_reorient
no_com
symmetry c1
}

set {
basis        aug-cc-pVTZ
scf_type     df
}

energy("mp2")
--------------------------------------------------------------------------

    Molecular point group: c1

    Geometry (in Angstrom), charge = 0, multiplicity = 1:

       Center              X                  Y                   Z               Mass
    ------------   -----------------  -----------------  -----------------  -----------------
      Gh(K)           0.000000000000     0.000000000000     0.000000000000    38.963706486400
      Gh(O)           0.118696000000    -2.770459000000     0.076879000000    15.994914619570
      Gh(H)          -0.333969000000    -3.135341000000     0.830822000000     1.007825032230
      Gh(H)           0.982084000000    -3.221411000000     0.111931000000     1.007825032230
         O            1.379726000000    -1.154328000000    -2.080253000000    15.994914619570
         H            2.056706000000    -1.833961000000    -2.058727000000     1.007825032230
         H            1.169543000000    -1.009891000000    -3.018870000000     1.007825032230
      Gh(O)           2.724284000000     0.265425000000     0.841619000000    15.994914619570
      Gh(H)           3.242030000000     1.067792000000     0.900161000000     1.007825032230
      Gh(H)           2.990826000000    -0.377309000000     1.498758000000     1.007825032230
      Gh(O)          -2.881305000000     0.223588000000     0.845452000000    15.994914619570
      Gh(H)          -3.728837000000     0.040709000000     1.280940000000     1.007825032230
      Gh(H)          -2.877352000000     1.133782000000     1.077537000000     1.007825032230
      Gh(O)           0.197582000000     1.855176000000     2.126719000000    15.994914619570
      Gh(H)          -0.684460000000     2.355019000000     2.158041000000     1.007825032230
      Gh(H)           0.495535000000     1.708267000000     3.013621000000     1.007825032230
      Gh(O)          -1.133798000000     2.421734000000    -1.164227000000    15.994914619570
      Gh(H)          -0.805925000000     2.041723000000    -2.060813000000     1.007825032230
      Gh(H)          -2.117470000000     2.513113000000    -1.178015000000     1.007825032230

  Charge       = 0
  Multiplicity = 1
  Basis Set: AUG-CC-PVTZ
    Blend: AUG-CC-PVTZ
  Basis Set: (AUG-CC-PVTZ AUX)
    Blend: AUG-CC-PVTZ-JKFIT + DEF2-UNIVERSAL-JKFIT

    Orbital Energies [Eh]
    ---------------------

    Doubly Occupied:

       1A    -20.567863     2A     -1.347846     3A     -0.716181
       4A     -0.579865     5A     -0.509092

  @DF-RHF Final Energy:   -76.05987836288868

   => Energetics <=

    Nuclear Repulsion Energy =              9.1069574739423267
    One-Electron Energy =                -122.8919742248471039
    Two-Electron Energy =                  37.7251383880161058
    Total Energy =                        -76.0598783628886679
 Dipole X            :        -26.6434664           26.9551612            0.3116947
 Dipole Y            :         22.4681025          -22.8250117           -0.3569091
 Dipole Z            :         40.4355698          -41.0441352           -0.6085654
 Magnitude           :                                                    0.7712909
  Basis Set: (AUG-CC-PVTZ AUX)
    Blend: AUG-CC-PVTZ-RI + DEF2-QZVPP-RI
	 Reference Energy          =     -76.0598783628886821 [Eh]
	 Singles Energy            =      -0.0000000000000000 [Eh]
	 Same-Spin Energy          =      -0.0685097487200824 [Eh]
	 Opposite-Spin Energy      =      -0.2159489672605262 [Eh]
	 Correlation Energy        =      -0.2844587159806086 [Eh]
	 Total Energy              =     -76.3443370788692874 [Eh]

	 ================> DF-SCS-MP2 Energies <==================
	-----------------------------------------------------------
	 SCS Same-Spin Scale       =       0.3333333333333333 [-]
	 SCS Opposite-Spin Scale   =       1.2000000000000000 [-]
	 SCS Same-Spin Energy      =      -0.0228365829066941 [Eh]
	 SCS Opposite-Spin Energy  =      -0.2591387607126314 [Eh]
	 SCS Correlation Energy    =      -0.2819753436193256 [Eh]
	 SCS Total Energy          =     -76.3418537065080045 [Eh]
	-----------------------------------------------------------

*** Psi4 exiting successfully. Buy a developer a beer!
