                               Psi4 1.9 release

  ==> Input File <==

--------------------------------------------------------------------------
MEMORY 60 GB

molecule dimer {
0 1
Gh(K)      0.000000     0.000000     0.000000
Gh(O)      0.913124     1.392044     2.215266
Gh(H)      0.107898     1.589882     2.707194
Gh(H)      1.074752     2.048582     1.547337
Gh(O)      2.026680    -1.153352    -1.012698
Gh(H)      2.858159    -1.449304    -0.567475
Gh(H)      2.342505    -0.543742    -1.689308
Gh(O)     -1.825857    -2.133558     0.355993
Gh(H)     -1.430944    -2.920093     0.805392
Gh(H)     -1.781389    -2.429058    -0.509967
Gh(O)     -1.999435     0.997352    -1.712310
Gh(H)     -1.916758     1.159308    -2.674599
Gh(H)     -2.643508     1.624790    -1.332880
O         -2.230302     0.207585     1.991219
H         -2.672649     0.382701     2.901728
H         -2.200317    -0.765324     1.906808

units ang
no_reorient
no_com
symmetry c1
}

set {
basis        aug-cc-pVTZ
scf_type     df
}

energy("mp2")
--------------------------------------------------------------------------

    Molecular point group: c1

    Geometry (in Angstrom), charge = 0, multiplicity = 1:

       Center              X                  Y                   Z               Mass
    ------------   -----------------  -----------------  -----------------  -----------------
      Gh(K)           0.000000000000     0.000000000000     0.000000000000    38.963706486400
      Gh(O)           0.913124000000     1.392044000000     2.215266000000    15.994914619570
      Gh(H)           0.107898000000     1.589882000000     2.707194000000     1.007825032230
      Gh(H)           1.074752000000     2.048582000000     1.547337000000     1.007825032230
      Gh(O)           2.026680000000    -1.153352000000    -1.012698000000    15.994914619570
      Gh(H)           2.858159000000    -1.449304000000    -0.567475000000     1.007825032230
      Gh(H)           2.342505000000    -0.543742000000    -1.689308000000     1.007825032230
      Gh(O)          -1.825857000000    -2.133558000000     0.355993000000    15.994914619570
      Gh(H)          -1.430944000000    -2.920093000000     0.805392000000     1.007825032230
      Gh(H)          -1.781389000000    -2.429058000000    -0.509967000000     1.007825032230
      Gh(O)          -1.999435000000     0.997352000000    -1.712310000000    15.994914619570
      Gh(H)          -1.916758000000     1.159308000000    -2.674599000000     1.007825032230
      Gh(H)          -2.643508000000     1.624790000000    -1.332880000000     1.007825032230
         O           -2.230302000000     0.207585000000     1.991219000000    15.994914619570
         H           -2.672649000000     0.382701000000     2.901728000000     1.007825032230
         H           -2.200317000000    -0.765324000000     1.906808000000     1.007825032230

  Charge       = 0
  Multiplicity = 1
  Basis Set: AUG-CC-PVTZ
    Blend: AUG-CC-PVTZ
  Basis Set: (AUG-CC-PVTZ AUX)
    Blend: AUG-CC-PVTZ-JKFIT + DEF2-UNIVERSAL-JKFIT

    Orbital Energies [Eh]
    ---------------------

    Doubly Occupied:

       1A    -20.574371     2A     -1.331733     3A     -0.695044
       4A     -0.574979     5A     -0.506729

  @DF-RHF Final Energy:   -76.05321510417903

   => Energetics <=

    Nuclear Repulsion Energy =              8.7864831995220101
    One-Electron Energy =                -122.3136797585510749
    Two-Electron Energy =                  37.4739814548500334
    Total Energy =                        -76.0532151041790314
 Dipole X            :         42.6608976          -42.9258508           -0.2649532
 Dipole Y            :         -2.9383400            2.4151777           -0.5231623
 Dipole Z            :        -38.6598699           39.1896846            0.5298147
 Magnitude           :                                                    0.7903180
  Basis Set: (AUG-CC-PVTZ AUX)
    Blend: AUG-CC-PVTZ-RI + DEF2-QZVPP-RI
	 Reference Energy          =     -76.0532151041790314 [Eh]
	 Singles Energy            =      -0.0000000000000000 [Eh]
	 Same-Spin Energy          =      -0.0691685841752356 [Eh]
	 Opposite-Spin Energy      =      -0.2182354384996683 [Eh]
	 Correlation Energy        =      -0.2874040226749038 [Eh]
	 Total Energy              =     -76.3406191268539374 [Eh]

	 ================> DF-SCS-MP2 Energies <==================
	-----------------------------------------------------------
	 SCS Same-Spin Scale       =       0.3333333333333333 [-]
	 SCS Opposite-Spin Scale   =       1.2000000000000000 [-]
	 SCS Same-Spin Energy      =      -0.0230561947250785 [Eh]
	 SCS Opposite-Spin Energy  =      -0.2618825261996019 [Eh]
	 SCS Correlation Energy    =      -0.2849387209246804 [Eh]
	 SCS Total Energy          =     -76.3381538251037171 [Eh]
	-----------------------------------------------------------

*** Psi4 exiting successfully. Buy a developer a beer!
