                               Psi4 1.9 release

  ==> Input File <==

--------------------------------------------------------------------------
MEMORY 60 GB

molecule dimer {
1 1
K          0.000000     0.000000     0.000000
O         -2.378824    -0.553695    -1.241651
H         -2.664634     0.170642    -1.832911
H         -3.267881    -0.958953    -1.026544
O         -0.572456     1.699591    -1.947811
H          0.254456     1.982503    -2.411827
H         -1.309166     1.752655    -2.525546
O          1.126668    -1.511622     1.935966
H          0.956395    -2.429284     2.079445
H          0.857351    -1.103993     2.793336
O         -1.604414     0.849184     2.083256
H         -2.481291     0.626327     1.722143
H         -1.459611     0.357911     2.901958

units ang
no_reorient
no_com
symmetry c1
}

set {
basis        aug-cc-pVTZ
scf_type     df
}

energy("mp2")
--------------------------------------------------------------------------

    Molecular point group: c1

    Geometry (in Angstrom), charge = 1, multiplicity = 1:

       Center              X                  Y                   Z               Mass
    ------------   -----------------  -----------------  -----------------  -----------------
         K            0.000000000000     0.000000000000     0.000000000000    38.963706486400
         O           -2.378824000000    -0.553695000000    -1.241651000000    15.994914619570
         H           -2.664634000000     0.170642000000    -1.832911000000     1.007825032230
         H           -3.267881000000    -0.958953000000    -1.026544000000     1.007825032230
         O           -0.572456000000     1.699591000000    -1.947811000000    15.994914619570
         H            0.254456000000     1.982503000000    -2.411827000000     1.007825032230
         H           -1.309166000000     1.752655000000    -2.525546000000     1.007825032230
         O            1.126668000000    -1.511622000000     1.935966000000    15.994914619570
         H            0.956395000000    -2.429284000000     2.079445000000     1.007825032230
         H            0.857351000000    -1.103993000000     2.793336000000     1.007825032230
         O           -1.604414000000     0.849184000000     2.083256000000    15.994914619570
         H           -2.481291000000     0.626327000000     1.722143000000     1.007825032230
         H           -1.459611000000     0.357911000000     2.901958000000     1.007825032230

  Charge       = 1
  Multiplicity = 1
  Basis Set: AUG-CC-PVTZ
    Blend: AUG-CC-PVTZ
  Basis Set: (AUG-CC-PVTZ AUX)
    Blend: AUG-CC-PVTZ-JKFIT + DEF2-UNIVERSAL-JKFIT

    Orbital Energies [Eh]
    ---------------------

    Doubly Occupied:

       1A   -133.618951     2A    -20.731563     3A    -20.724240
       4A    -20.723866     5A    -20.719126     6A    -14.576793
       7A    -11.606706     8A    -11.606657     9A    -11.606502
      10A     -1.839574    11A     -1.511305    12A     -1.509109
      13A     -1.500869    14A     -1.498863    15A     -1.050377
      16A     -1.049101    17A     -1.048517    18A     -0.891361
      19A     -0.874490    20A     -0.865886    21A     -0.849274
      22A     -0.756463    23A     -0.749963    24A     -0.740160
      25A     -0.730794    26A     -0.673482    27A     -0.672630
      28A     -0.669434    29A     -0.662314

  @DF-RHF Final Energy:  -903.31854043808801

   => Energetics <=

    Nuclear Repulsion Energy =            257.7115425495003365
    One-Electron Energy =               -1749.9434222012232567
    Two-Electron Energy =                 588.9133392136349130
    Total Energy =                       -903.3185404380880072
 Dipole X            :         67.3113524          -69.0630440           -1.7516917
 Dipole Y            :         -8.4120254            8.0605739           -0.3514515
 Dipole Z            :        -15.7123516           15.7567897            0.0444380
 Magnitude           :                                                    1.7871532
  Basis Set: (AUG-CC-PVTZ AUX)
    Blend: AUG-CC-PVTZ-RI + DEF2-QZVPP-RI
	 Reference Energy          =    -903.3185404380880072 [Eh]
	 Singles Energy            =      -0.0000000000000000 [Eh]
	 Same-Spin Energy          =      -0.3137941463219515 [Eh]
	 Opposite-Spin Energy      =      -0.9515375278603210 [Eh]
	 Correlation Energy        =      -1.2653316741822724 [Eh]
	 Total Energy              =    -904.5838721122702282 [Eh]

	 ================> DF-SCS-MP2 Energies <==================
	-----------------------------------------------------------
	 SCS Same-Spin Scale       =       0.3333333333333333 [-]
	 SCS Opposite-Spin Scale   =       1.2000000000000000 [-]
	 SCS Same-Spin Energy      =      -0.1045980487739838 [Eh]
	 SCS Opposite-Spin Energy  =      -1.1418450334323851 [Eh]
	 SCS Correlation Energy    =      -1.2464430822063690 [Eh]
	 SCS Total Energy          =    -904.5649835202943905 [Eh]
	-----------------------------------------------------------

*** Psi4 exiting successfully. Buy a developer a beer!
