                               Psi4 1.9 release

  ==> Input File <==

--------------------------------------------------------------------------
MEMORY 60 GB

molecule dimer {
0 1
Gh(K)      0.000000     0.000000     0.000000
Gh(O)      1.649798    -2.297513     0.068375
Gh(H)      0.966347    -3.009432     0.268920
Gh(H)      2.415982    -2.455505     0.666808
O         -1.651512     1.316542     1.618952
H         -2.531349     1.240121     2.010840
H         -1.216179     2.096571     2.037483
Gh(O)     -2.184128    -0.807746    -0.773576
Gh(H)     -2.827219    -1.529499    -0.681704
Gh(H)     -2.210682    -0.412574    -1.661052
Gh(O)      1.487946     1.247924     2.225563
Gh(H)      1.142883     1.150397     3.114392
Gh(H)      2.490161     1.303890     2.274317

units ang
no_reorient
no_com
symmetry c1
}

set {
basis        aug-cc-pVTZ
scf_type     df
}

energy("mp2")
--------------------------------------------------------------------------

    Molecular point group: c1

    Geometry (in Angstrom), charge = 0, multiplicity = 1:

       Center              X                  Y                   Z               Mass
    ------------   -----------------  -----------------  -----------------  -----------------
      Gh(K)           0.000000000000     0.000000000000     0.000000000000    38.963706486400
      Gh(O)           1.649798000000    -2.297513000000     0.068375000000    15.994914619570
      Gh(H)           0.966347000000    -3.009432000000     0.268920000000     1.007825032230
      Gh(H)           2.415982000000    -2.455505000000     0.666808000000     1.007825032230
         O           -1.651512000000     1.316542000000     1.618952000000    15.994914619570
         H           -2.531349000000     1.240121000000     2.010840000000     1.007825032230
         H           -1.216179000000     2.096571000000     2.037483000000     1.007825032230
      Gh(O)          -2.184128000000    -0.807746000000    -0.773576000000    15.994914619570
      Gh(H)          -2.827219000000    -1.529499000000    -0.681704000000     1.007825032230
      Gh(H)          -2.210682000000    -0.412574000000    -1.661052000000     1.007825032230
      Gh(O)           1.487946000000     1.247924000000     2.225563000000    15.994914619570
      Gh(H)           1.142883000000     1.150397000000     3.114392000000     1.007825032230
      Gh(H)           2.490161000000     1.303890000000     2.274317000000     1.007825032230

  Charge       = 0
  Multiplicity = 1
  Basis Set: AUG-CC-PVTZ
    Blend: AUG-CC-PVTZ
  Basis Set: (AUG-CC-PVTZ AUX)
    Blend: AUG-CC-PVTZ-JKFIT + DEF2-UNIVERSAL-JKFIT

    Orbital Energies [Eh]
    ---------------------

    Doubly Occupied:

       1A    -20.569299     2A     -1.342299     3A     -0.712050
       4A     -0.576420     5A     -0.508031

  @DF-RHF Final Energy:   -76.05845547982460

   => Energetics <=

    Nuclear Repulsion Energy =              9.0101378246970931
    One-Electron Energy =                -122.7209852574626865
    Two-Electron Energy =                  37.6523919529409881
    Total Energy =                        -76.0584554798246018
 Dipole X            :         31.7517509          -32.0490446           -0.2972937
 Dipole Y            :        -25.7442108           26.2086645            0.4644537
 Dipole Z            :        -31.5885081           32.1252289            0.5367207
 Magnitude           :                                                    0.7695258
  Basis Set: (AUG-CC-PVTZ AUX)
    Blend: AUG-CC-PVTZ-RI + DEF2-QZVPP-RI
	 Reference Energy          =     -76.0584554798246018 [Eh]
	 Singles Energy            =      -0.0000000000000000 [Eh]
	 Same-Spin Energy          =      -0.0686661015900123 [Eh]
	 Opposite-Spin Energy      =      -0.2163811005363929 [Eh]
	 Correlation Energy        =      -0.2850472021264052 [Eh]
	 Total Energy              =     -76.3435026819510085 [Eh]

	 ================> DF-SCS-MP2 Energies <==================
	-----------------------------------------------------------
	 SCS Same-Spin Scale       =       0.3333333333333333 [-]
	 SCS Opposite-Spin Scale   =       1.2000000000000000 [-]
	 SCS Same-Spin Energy      =      -0.0228887005300041 [Eh]
	 SCS Opposite-Spin Energy  =      -0.2596573206436715 [Eh]
	 SCS Correlation Energy    =      -0.2825460211736756 [Eh]
	 SCS Total Energy          =     -76.3410015009982743 [Eh]
	-----------------------------------------------------------

*** Psi4 exiting successfully. Buy a developer a beer!
