                               Psi4 1.9 release

  ==> Input File <==

--------------------------------------------------------------------------
MEMORY 60 GB

molecule dimer {
0 1
Gh(K)      0.000000     0.000000     0.000000
Gh(O)     -0.031652     2.144978    -1.608259
Gh(H)      0.277586     1.427590    -2.192862
Gh(H)     -1.017221     2.264700    -1.738852
Gh(O)     -0.788931    -0.740656     2.321277
Gh(H)     -1.501247    -0.231443     2.705598
Gh(H)     -0.076222    -0.711789     2.986251
Gh(O)     -1.974576    -1.628499    -1.490287
Gh(H)     -2.671600    -1.230877    -0.969768
Gh(H)     -2.022568    -2.568609    -1.304728
O         -0.874063     1.982276     2.140067
H         -1.510546     2.328273     1.516840
H         -1.133805     2.374863     2.943937
Gh(O)      2.540164     1.201918     0.024099
Gh(H)      2.914567     1.138412     0.906595
Gh(H)      2.914729     2.003474    -0.363718

units ang
no_reorient
no_com
symmetry c1
}

set {
basis        aug-cc-pVTZ
scf_type     df
}

energy("mp2")
--------------------------------------------------------------------------

    Molecular point group: c1

    Geometry (in Angstrom), charge = 0, multiplicity = 1:

       Center              X                  Y                   Z               Mass
    ------------   -----------------  -----------------  -----------------  -----------------
      Gh(K)           0.000000000000     0.000000000000     0.000000000000    38.963706486400
      Gh(O)          -0.031652000000     2.144978000000    -1.608259000000    15.994914619570
      Gh(H)           0.277586000000     1.427590000000    -2.192862000000     1.007825032230
      Gh(H)          -1.017221000000     2.264700000000    -1.738852000000     1.007825032230
      Gh(O)          -0.788931000000    -0.740656000000     2.321277000000    15.994914619570
      Gh(H)          -1.501247000000    -0.231443000000     2.705598000000     1.007825032230
      Gh(H)          -0.076222000000    -0.711789000000     2.986251000000     1.007825032230
      Gh(O)          -1.974576000000    -1.628499000000    -1.490287000000    15.994914619570
      Gh(H)          -2.671600000000    -1.230877000000    -0.969768000000     1.007825032230
      Gh(H)          -2.022568000000    -2.568609000000    -1.304728000000     1.007825032230
         O           -0.874063000000     1.982276000000     2.140067000000    15.994914619570
         H           -1.510546000000     2.328273000000     1.516840000000     1.007825032230
         H           -1.133805000000     2.374863000000     2.943937000000     1.007825032230
      Gh(O)           2.540164000000     1.201918000000     0.024099000000    15.994914619570
      Gh(H)           2.914567000000     1.138412000000     0.906595000000     1.007825032230
      Gh(H)           2.914729000000     2.003474000000    -0.363718000000     1.007825032230

  Charge       = 0
  Multiplicity = 1
  Basis Set: AUG-CC-PVTZ
    Blend: AUG-CC-PVTZ
  Basis Set: (AUG-CC-PVTZ AUX)
    Blend: AUG-CC-PVTZ-JKFIT + DEF2-UNIVERSAL-JKFIT

    Orbital Energies [Eh]
    ---------------------

    Doubly Occupied:

       1A    -20.565169     2A     -1.361989     3A     -0.722236
       4A     -0.590463     5A     -0.511950

  @DF-RHF Final Energy:   -76.06069453592708

   => Energetics <=

    Nuclear Repulsion Energy =              9.3327589916812350
    One-Electron Energy =                -123.2832916110588712
    Two-Electron Energy =                  37.8898380834505417
    Total Energy =                        -76.0606945359270981
 Dipole X            :         17.6139191          -18.2110167           -0.5970976
 Dipole Y            :        -38.3616545           38.8553089            0.4936544
 Dipole Z            :        -40.6580233           40.7827710            0.1247477
 Magnitude           :                                                    0.7847179
  Basis Set: (AUG-CC-PVTZ AUX)
    Blend: AUG-CC-PVTZ-RI + DEF2-QZVPP-RI
	 Reference Energy          =     -76.0606945359270838 [Eh]
	 Singles Energy            =      -0.0000000000000000 [Eh]
	 Same-Spin Energy          =      -0.0681943948394209 [Eh]
	 Opposite-Spin Energy      =      -0.2150737260356622 [Eh]
	 Correlation Energy        =      -0.2832681208750831 [Eh]
	 Total Energy              =     -76.3439626568021623 [Eh]

	 ================> DF-SCS-MP2 Energies <==================
	-----------------------------------------------------------
	 SCS Same-Spin Scale       =       0.3333333333333333 [-]
	 SCS Opposite-Spin Scale   =       1.2000000000000000 [-]
	 SCS Same-Spin Energy      =      -0.0227314649464736 [Eh]
	 SCS Opposite-Spin Energy  =      -0.2580884712427946 [Eh]
	 SCS Correlation Energy    =      -0.2808199361892683 [Eh]
	 SCS Total Energy          =     -76.3415144721163585 [Eh]
	-----------------------------------------------------------

*** Psi4 exiting successfully. Buy a developer a beer!
