                               Psi4 1.9 release

  ==> Input File <==

--------------------------------------------------------------------------
MEMORY 60 GB

molecule dimer {
1 1
K          0.000000     0.000000     0.000000
O         -0.347802    -2.893565    -0.197304
H         -0.264219    -2.627410    -1.107839
H         -1.076793    -3.520369    -0.191568
O          0.677953     2.028113    -2.098824
H          1.086568     2.053260    -2.956022
H         -0.287647     1.928353    -2.270876
O          0.133021    -0.422807     2.580598
H          0.877410    -0.317211     3.203899
H         -0.629250     0.024130     3.083095
O         -2.438966     0.372415     0.851527
H         -2.595398     1.157685     1.350948
H         -3.271474     0.106554     0.425933
O         -2.066921     1.281430    -1.668738
H         -2.570671     0.992410    -2.390640
H         -2.616813     1.957975    -1.327306
O          0.369724    -1.327390    -2.368648
H         -0.386802    -1.039991    -2.929204
H          1.195348    -0.840736    -2.656566

units ang
no_reorient
no_com
symmetry c1
}

set {
basis        aug-cc-pVTZ
scf_type     df
}

energy("mp2")
--------------------------------------------------------------------------

    Molecular point group: c1

    Geometry (in Angstrom), charge = 1, multiplicity = 1:

       Center              X                  Y                   Z               Mass
    ------------   -----------------  -----------------  -----------------  -----------------
         K            0.000000000000     0.000000000000     0.000000000000    38.963706486400
         O           -0.347802000000    -2.893565000000    -0.197304000000    15.994914619570
         H           -0.264219000000    -2.627410000000    -1.107839000000     1.007825032230
         H           -1.076793000000    -3.520369000000    -0.191568000000     1.007825032230
         O            0.677953000000     2.028113000000    -2.098824000000    15.994914619570
         H            1.086568000000     2.053260000000    -2.956022000000     1.007825032230
         H           -0.287647000000     1.928353000000    -2.270876000000     1.007825032230
         O            0.133021000000    -0.422807000000     2.580598000000    15.994914619570
         H            0.877410000000    -0.317211000000     3.203899000000     1.007825032230
         H           -0.629250000000     0.024130000000     3.083095000000     1.007825032230
         O           -2.438966000000     0.372415000000     0.851527000000    15.994914619570
         H           -2.595398000000     1.157685000000     1.350948000000     1.007825032230
         H           -3.271474000000     0.106554000000     0.425933000000     1.007825032230
         O           -2.066921000000     1.281430000000    -1.668738000000    15.994914619570
         H           -2.570671000000     0.992410000000    -2.390640000000     1.007825032230
         H           -2.616813000000     1.957975000000    -1.327306000000     1.007825032230
         O            0.369724000000    -1.327390000000    -2.368648000000    15.994914619570
         H           -0.386802000000    -1.039991000000    -2.929204000000     1.007825032230
         H            1.195348000000    -0.840736000000    -2.656566000000     1.007825032230

  Charge       = 1
  Multiplicity = 1
  Basis Set: AUG-CC-PVTZ
    Blend: AUG-CC-PVTZ
  Basis Set: (AUG-CC-PVTZ AUX)
    Blend: AUG-CC-PVTZ-JKFIT + DEF2-UNIVERSAL-JKFIT

    Orbital Energies [Eh]
    ---------------------

    Doubly Occupied:

       1A   -133.591181     2A    -20.731836     3A    -20.727718
       4A    -20.713475     5A    -20.705179     6A    -20.692317
       7A    -20.665246     8A    -14.549196     9A    -11.579059
      10A    -11.579036    11A    -11.578909    12A     -1.812859
      13A     -1.544668    14A     -1.505436    15A     -1.498273
      16A     -1.476154    17A     -1.471124    18A     -1.455930
      19A     -1.024802    20A     -1.024031    21A     -1.021284
      22A     -0.897294    23A     -0.879048    24A     -0.869145
      25A     -0.850663    26A     -0.831367    27A     -0.825717
      28A     -0.774558    29A     -0.736660    30A     -0.732631
      31A     -0.721897    32A     -0.718001    33A     -0.693452
      34A     -0.686384    35A     -0.673004    36A     -0.651257
      37A     -0.643836    38A     -0.636960    39A     -0.613692

  @DF-RHF Final Energy: -1055.44783352164359

   => Energetics <=

    Nuclear Repulsion Energy =            465.4571362480458561
    One-Electron Energy =               -2373.0433740866815242
    Two-Electron Energy =                 852.1384043169922506
    Total Energy =                      -1055.4478335216435880
 Dipole X            :         72.9717880          -75.4448003           -2.4730123
 Dipole Y            :         15.9406449          -14.7772463            1.1633985
 Dipole Z            :         57.1098871          -58.5385337           -1.4286467
 Magnitude           :                                                    3.0838803
  Basis Set: (AUG-CC-PVTZ AUX)
    Blend: AUG-CC-PVTZ-RI + DEF2-QZVPP-RI
	 Reference Energy          =   -1055.4478335216435880 [Eh]
	 Singles Energy            =      -0.0000000000000000 [Eh]
	 Same-Spin Energy          =      -0.4596499518486025 [Eh]
	 Opposite-Spin Energy      =      -1.3983448468235018 [Eh]
	 Correlation Energy        =      -1.8579947986721042 [Eh]
	 Total Energy              =   -1057.3058283203156407 [Eh]

	 ================> DF-SCS-MP2 Energies <==================
	-----------------------------------------------------------
	 SCS Same-Spin Scale       =       0.3333333333333333 [-]
	 SCS Opposite-Spin Scale   =       1.2000000000000000 [-]
	 SCS Same-Spin Energy      =      -0.1532166506162008 [Eh]
	 SCS Opposite-Spin Energy  =      -1.6780138161882021 [Eh]
	 SCS Correlation Energy    =      -1.8312304668044028 [Eh]
	 SCS Total Energy          =   -1057.2790639884478878 [Eh]
	-----------------------------------------------------------

*** Psi4 exiting successfully. Buy a developer a beer!
