                               Psi4 1.9 release

  ==> Input File <==

--------------------------------------------------------------------------
MEMORY 60 GB

molecule dimer {
1 1
K          0.000000     0.000000     0.000000
Gh(O)     -0.873977    -0.157326    -2.492460
Gh(H)     -1.740116    -0.052883    -2.878562
Gh(H)     -0.273500     0.375994    -3.026061
Gh(O)      2.608119     0.315616     0.527310
Gh(H)      3.312820    -0.307262     0.594493
Gh(H)      2.932642     0.856303    -0.199126
Gh(O)      0.725977    -2.654096    -0.373484
Gh(H)      1.317561    -2.978209    -1.023598
Gh(H)     -0.110315    -3.095978    -0.542861
Gh(O)     -2.649027    -1.197370     0.324003
Gh(H)     -2.756447    -1.934451    -0.241219
Gh(H)     -2.755054    -1.440674     1.244298
Gh(O)     -1.038712     2.794023    -0.587160
Gh(H)     -1.259782     2.719630    -1.535356
Gh(H)     -1.840414     2.377449    -0.164631

units ang
no_reorient
no_com
symmetry c1
}

set {
basis        aug-cc-pVTZ
scf_type     df
}

energy("mp2")
--------------------------------------------------------------------------

    Molecular point group: c1

    Geometry (in Angstrom), charge = 1, multiplicity = 1:

       Center              X                  Y                   Z               Mass
    ------------   -----------------  -----------------  -----------------  -----------------
         K            0.000000000000     0.000000000000     0.000000000000    38.963706486400
      Gh(O)          -0.873977000000    -0.157326000000    -2.492460000000    15.994914619570
      Gh(H)          -1.740116000000    -0.052883000000    -2.878562000000     1.007825032230
      Gh(H)          -0.273500000000     0.375994000000    -3.026061000000     1.007825032230
      Gh(O)           2.608119000000     0.315616000000     0.527310000000    15.994914619570
      Gh(H)           3.312820000000    -0.307262000000     0.594493000000     1.007825032230
      Gh(H)           2.932642000000     0.856303000000    -0.199126000000     1.007825032230
      Gh(O)           0.725977000000    -2.654096000000    -0.373484000000    15.994914619570
      Gh(H)           1.317561000000    -2.978209000000    -1.023598000000     1.007825032230
      Gh(H)          -0.110315000000    -3.095978000000    -0.542861000000     1.007825032230
      Gh(O)          -2.649027000000    -1.197370000000     0.324003000000    15.994914619570
      Gh(H)          -2.756447000000    -1.934451000000    -0.241219000000     1.007825032230
      Gh(H)          -2.755054000000    -1.440674000000     1.244298000000     1.007825032230
      Gh(O)          -1.038712000000     2.794023000000    -0.587160000000    15.994914619570
      Gh(H)          -1.259782000000     2.719630000000    -1.535356000000     1.007825032230
      Gh(H)          -1.840414000000     2.377449000000    -0.164631000000     1.007825032230

  Charge       = 1
  Multiplicity = 1
  Basis Set: AUG-CC-PVTZ
    Blend: AUG-CC-PVTZ
  Basis Set: (AUG-CC-PVTZ AUX)
    Blend: AUG-CC-PVTZ-JKFIT + DEF2-UNIVERSAL-JKFIT

    Orbital Energies [Eh]
    ---------------------

    Doubly Occupied:

       1A   -133.752500     2A    -14.708203     3A    -11.738263
       4A    -11.738261     5A    -11.738261     6A     -1.963895
       7A     -1.170604     8A     -1.170599     9A     -1.170575

  @DF-RHF Final Energy:  -599.01751615777744

   => Energetics <=

    Nuclear Repulsion Energy =              0.0000000000000000
    One-Electron Energy =                -819.7327117428844758
    Two-Electron Energy =                 220.7151955851069829
    Total Energy =                       -599.0175161577774361
 Dipole X            :         -0.0000633            0.0000000           -0.0000633
 Dipole Y            :         -0.0000855            0.0000000           -0.0000855
 Dipole Z            :         -0.0002366            0.0000000           -0.0002366
 Magnitude           :                                                    0.0002594
  Basis Set: (AUG-CC-PVTZ AUX)
    Blend: AUG-CC-PVTZ-RI + DEF2-QZVPP-RI
	 Reference Energy          =    -599.0175161577774361 [Eh]
	 Singles Energy            =      -0.0000000000000000 [Eh]
	 Same-Spin Energy          =      -0.0368174536559003 [Eh]
	 Opposite-Spin Energy      =      -0.0896211960360047 [Eh]
	 Correlation Energy        =      -0.1264386496919050 [Eh]
	 Total Energy              =    -599.1439548074692993 [Eh]

	 ================> DF-SCS-MP2 Energies <==================
	-----------------------------------------------------------
	 SCS Same-Spin Scale       =       0.3333333333333333 [-]
	 SCS Opposite-Spin Scale   =       1.2000000000000000 [-]
	 SCS Same-Spin Energy      =      -0.0122724845519668 [Eh]
	 SCS Opposite-Spin Energy  =      -0.1075454352432056 [Eh]
	 SCS Correlation Energy    =      -0.1198179197951724 [Eh]
	 SCS Total Energy          =    -599.1373340775726319 [Eh]
	-----------------------------------------------------------

*** Psi4 exiting successfully. Buy a developer a beer!
