                               Psi4 1.9 release

  ==> Input File <==

--------------------------------------------------------------------------
MEMORY 60 GB

molecule dimer {
0 1
Gh(K)      0.000000     0.000000     0.000000
O         -1.065191    -0.359975    -2.461163
H         -1.794196    -0.828061    -2.830220
H         -1.027565     0.480586    -2.947244
Gh(O)      2.344028     1.678726    -0.213882
Gh(H)      3.157394     1.389741    -0.585666
Gh(H)      2.557494     1.811841     0.674913
Gh(O)     -1.246221     2.415696    -0.621119
Gh(H)     -2.238963     2.335390    -0.711467
Gh(H)     -0.854818     2.401486    -1.478482
Gh(O)     -1.890709     0.266806     2.144480
Gh(H)     -1.944298     1.042797     2.694641
Gh(H)     -2.715672     0.216960     1.683755

units ang
no_reorient
no_com
symmetry c1
}

set {
basis        aug-cc-pVTZ
scf_type     df
}

energy("mp2")
--------------------------------------------------------------------------

    Molecular point group: c1

    Geometry (in Angstrom), charge = 0, multiplicity = 1:

       Center              X                  Y                   Z               Mass
    ------------   -----------------  -----------------  -----------------  -----------------
      Gh(K)           0.000000000000     0.000000000000     0.000000000000    38.963706486400
         O           -1.065191000000    -0.359975000000    -2.461163000000    15.994914619570
         H           -1.794196000000    -0.828061000000    -2.830220000000     1.007825032230
         H           -1.027565000000     0.480586000000    -2.947244000000     1.007825032230
      Gh(O)           2.344028000000     1.678726000000    -0.213882000000    15.994914619570
      Gh(H)           3.157394000000     1.389741000000    -0.585666000000     1.007825032230
      Gh(H)           2.557494000000     1.811841000000     0.674913000000     1.007825032230
      Gh(O)          -1.246221000000     2.415696000000    -0.621119000000    15.994914619570
      Gh(H)          -2.238963000000     2.335390000000    -0.711467000000     1.007825032230
      Gh(H)          -0.854818000000     2.401486000000    -1.478482000000     1.007825032230
      Gh(O)          -1.890709000000     0.266806000000     2.144480000000    15.994914619570
      Gh(H)          -1.944298000000     1.042797000000     2.694641000000     1.007825032230
      Gh(H)          -2.715672000000     0.216960000000     1.683755000000     1.007825032230

  Charge       = 0
  Multiplicity = 1
  Basis Set: AUG-CC-PVTZ
    Blend: AUG-CC-PVTZ
  Basis Set: (AUG-CC-PVTZ AUX)
    Blend: AUG-CC-PVTZ-JKFIT + DEF2-UNIVERSAL-JKFIT

    Orbital Energies [Eh]
    ---------------------

    Doubly Occupied:

       1A    -20.566608     2A     -1.353479     3A     -0.719689
       4A     -0.583380     5A     -0.510170

  @DF-RHF Final Energy:   -76.06027743271254

   => Energetics <=

    Nuclear Repulsion Energy =              9.2001266186432709
    One-Electron Energy =                -123.0541539322325235
    Two-Electron Energy =                  37.7937498808767174
    Total Energy =                        -76.0602774327125388
 Dipole X            :         20.9719964          -21.4357096           -0.4637131
 Dipole Y            :          6.3426362           -6.0986659            0.2439703
 Dipole Z            :         47.5548520          -48.1252168           -0.5703648
 Magnitude           :                                                    0.7745110
  Basis Set: (AUG-CC-PVTZ AUX)
    Blend: AUG-CC-PVTZ-RI + DEF2-QZVPP-RI
	 Reference Energy          =     -76.0602774327125388 [Eh]
	 Singles Energy            =      -0.0000000000000000 [Eh]
	 Same-Spin Energy          =      -0.0683510775156374 [Eh]
	 Opposite-Spin Energy      =      -0.2154375441373263 [Eh]
	 Correlation Energy        =      -0.2837886216529637 [Eh]
	 Total Energy              =     -76.3440660543654985 [Eh]

	 ================> DF-SCS-MP2 Energies <==================
	-----------------------------------------------------------
	 SCS Same-Spin Scale       =       0.3333333333333333 [-]
	 SCS Opposite-Spin Scale   =       1.2000000000000000 [-]
	 SCS Same-Spin Energy      =      -0.0227836925052125 [Eh]
	 SCS Opposite-Spin Energy  =      -0.2585250529647916 [Eh]
	 SCS Correlation Energy    =      -0.2813087454700040 [Eh]
	 SCS Total Energy          =     -76.3415861781825384 [Eh]
	-----------------------------------------------------------

*** Psi4 exiting successfully. Buy a developer a beer!
