                               Psi4 1.9 release

  ==> Input File <==

--------------------------------------------------------------------------
MEMORY 60 GB

molecule dimer {
1 1
K      0.000000     0.000000     0.000000
--
0 1
O      2.076023    -1.563908     0.741741
H      2.860617    -0.996316     0.828705
H      1.615351    -1.618906     1.563939
O     -1.095486     0.399597     2.643072
H     -0.801901     1.238172     2.228137
H     -2.076198     0.356254     2.753986
O     -2.028741     1.602653    -1.083314
H     -2.848075     1.047294    -0.966116
H     -1.766923     1.523944    -2.040760
O      0.327369     2.348814     1.409380
H      0.118789     3.251871     1.602415
H      1.209539     2.243806     1.770572
O      2.277164     1.411722    -0.881632
H      2.742637     1.640937    -0.087027
H      2.895810     0.946922    -1.465846
O      0.049667    -1.666994    -2.004447
H     -0.029129    -1.163117    -2.830753
H      0.898871    -2.063134    -2.055004

units ang
no_reorient
no_com
symmetry c1
}

set {
basis        aug-cc-pVTZ
scf_type     df
}

energy("mp2", bsse_type="cp")
--------------------------------------------------------------------------

                               Psi4 1.9 release
    Molecular point group: c1
  Charge       = 0
  Multiplicity = 1
  Basis Set: AUG-CC-PVTZ
    Blend: AUG-CC-PVTZ
  Basis Set: (AUG-CC-PVTZ AUX)
    Blend: AUG-CC-PVTZ-JKFIT + DEF2-UNIVERSAL-JKFIT
  @DF-RHF Final Energy:  -456.34254575443748
    Total Energy =                       -456.3425457544374808
 Dipole X            :        -32.2669245           33.3864642            1.1195397
 Dipole Y            :        -49.3179973           50.3853878            1.0673905
 Dipole Z            :        -15.2644754           14.9300609           -0.3344145
 Magnitude           :                                                    1.5825690
  Basis Set: (AUG-CC-PVTZ AUX)
    Blend: AUG-CC-PVTZ-RI + DEF2-QZVPP-RI
	 Reference Energy          =    -456.3425457544374808 [Eh]
	 Singles Energy            =      -0.0000000000000000 [Eh]
	 Same-Spin Energy          =      -0.4155266785525918 [Eh]
	 Opposite-Spin Energy      =      -1.3016310095018599 [Eh]
	 Correlation Energy        =      -1.7171576880544519 [Eh]
	 Total Energy              =    -458.0597034424919229 [Eh]
	 SCS Total Energy          =    -458.0430118586905905 [Eh]
                               Psi4 1.9 release
    Molecular point group: c1
  Multiplicity = 1
  Basis Set: AUG-CC-PVTZ
    Blend: AUG-CC-PVTZ
  Basis Set: (AUG-CC-PVTZ AUX)
    Blend: AUG-CC-PVTZ-JKFIT + DEF2-UNIVERSAL-JKFIT
  @DF-RHF Final Energy:  -599.01751734269249
    Total Energy =                       -599.0175173426924857
  Basis Set: (AUG-CC-PVTZ AUX)
	 Singles Energy            =      -0.0000000000000000 [Eh]
	 Same-Spin Energy          =      -0.0395180175437512 [Eh]
	 Opposite-Spin Energy      =      -0.0973692538178678 [Eh]
	 Correlation Energy        =      -0.1368872713616190 [Eh]
	 Total Energy              =    -599.1544046140541013 [Eh]
	 SCS Total Energy          =    -599.1475331197884771 [Eh]
                               Psi4 1.9 release
    Molecular point group: c1

    Geometry (in Bohr), charge = 1, multiplicity = 1:

       Center              X                  Y                   Z               Mass
    ------------   -----------------  -----------------  -----------------  -----------------
         K            0.000000000000     0.000000000000     0.000000000000    38.963706486400
         O            3.923114900151    -2.955357805413     1.401687346023    15.994914619570
         H            5.405782679829    -1.882764374412     1.566025488798     1.007825032230
         H            3.052570986484    -3.059288962860     2.955416386922     1.007825032230
         O           -2.070168514273     0.755128890555     4.994682209866    15.994914619570
         H           -1.515373269731     2.339805976210     4.210568699999     1.007825032230
         H           -3.923445602223     0.673222491099     5.204279293345     1.007825032230
         O           -3.833764869487     3.028575244143    -2.047166767874    15.994914619570
         H           -5.382081734763     1.979098832835    -1.825694645423     1.007825032230
         H           -3.339000554772     2.879836790535    -3.856477487789     1.007825032230
         O            0.618637751965     4.438615179641     2.663342206698    15.994914619570
         H            0.224478676717     6.145145585319     3.028125489326     1.007825032230
         H            2.285697448060     4.240178818659     3.345896165404     1.007825032230
         O            4.303216302752     2.667767945284    -1.666043023440    15.994914619570
         H            5.182832791547     3.100921519130    -0.164457195520     1.007825032230
         H            5.472287811362     1.789423242171    -2.770047482098     1.007825032230
         O            0.093857027473    -3.150162112781    -3.787855862996    15.994914619570
         H           -0.055045832308    -2.197972581864    -5.349347898818     1.007825032230
         H            1.698620012116    -3.898758220120    -3.883394746720     1.007825032230

  Charge       = 1
  Multiplicity = 1
  Basis Set: AUG-CC-PVTZ
    Blend: AUG-CC-PVTZ
  Basis Set: (AUG-CC-PVTZ AUX)
    Blend: AUG-CC-PVTZ-JKFIT + DEF2-UNIVERSAL-JKFIT

    Orbital Energies [Eh]
    ---------------------

    Doubly Occupied:

       1A   -133.597465     2A    -20.735294     3A    -20.722389
       4A    -20.716371     5A    -20.714707     6A    -20.712927
       7A    -20.679439     8A    -14.555882     9A    -11.585703
      10A    -11.585662    11A    -11.585549    12A     -1.820920
      13A     -1.533298    14A     -1.509745    15A     -1.506508
      16A     -1.505036    17A     -1.478109    18A     -1.453381
      19A     -1.033910    20A     -1.030751    21A     -1.030423
      22A     -0.893028    23A     -0.882650    24A     -0.879372
      25A     -0.867790    26A     -0.850657    27A     -0.843910
      28A     -0.765336    29A     -0.740052    30A     -0.739926
      31A     -0.729873    32A     -0.719268    33A     -0.697379
      34A     -0.675681    35A     -0.669295    36A     -0.663245
      37A     -0.661484    38A     -0.652910    39A     -0.625166

  @DF-RHF Final Energy: -1055.44514959973253

   => Energetics <=

    Nuclear Repulsion Energy =            464.1853934902573542
    One-Electron Energy =               -2369.9600936738115706
    Two-Electron Energy =                 850.3295505838217423
    Total Energy =                      -1055.4451495997323036
 Dipole X            :        -32.1103063           33.3864642            1.2761579
 Dipole Y            :        -49.1474440           50.3853878            1.2379438
 Dipole Z            :        -15.2774226           14.9300609           -0.3473617
 Magnitude           :                                                    1.8115584
  Basis Set: (AUG-CC-PVTZ AUX)
    Blend: AUG-CC-PVTZ-RI + DEF2-QZVPP-RI
	 Reference Energy          =   -1055.4451495997325310 [Eh]
	 Singles Energy            =      -0.0000000000000000 [Eh]
	 Same-Spin Energy          =      -0.4596875430245888 [Eh]
	 Opposite-Spin Energy      =      -1.4001115769781172 [Eh]
	 Correlation Energy        =      -1.8597991200027060 [Eh]
	 Total Energy              =   -1057.3049487197351937 [Eh]

	 ================> DF-SCS-MP2 Energies <==================
	-----------------------------------------------------------
	 SCS Same-Spin Scale       =       0.3333333333333333 [-]
	 SCS Opposite-Spin Scale   =       1.2000000000000000 [-]
	 SCS Same-Spin Energy      =      -0.1532291810081962 [Eh]
	 SCS Opposite-Spin Energy  =      -1.6801338923737406 [Eh]
	 SCS Correlation Energy    =      -1.8333630733819368 [Eh]
	 SCS Total Energy          =   -1057.2785126731143919 [Eh]
	-----------------------------------------------------------

*** Psi4 exiting successfully. Buy a developer a beer!
