                               Psi4 1.9 release

  ==> Input File <==

--------------------------------------------------------------------------
MEMORY 60 GB

molecule dimer {
1 1
K          0.000000     0.000000     0.000000
O          0.681155     2.280734     1.579374
H          1.434766     2.011871     2.145198
H          0.845222     3.254319     1.420636
O         -1.480588    -0.767019     2.170820
H         -1.496644    -0.560012     3.066086
H         -1.412629    -1.742263     2.240040
O          0.032695    -2.723352     0.280396
H         -0.173080    -3.362364    -0.391988
H         -0.080478    -3.178871     1.104535
O         -1.492386    -0.320905    -2.637511
H         -2.319056    -0.727991    -2.799845
H         -1.445518     0.545652    -3.153064
O          1.881515    -0.602297    -1.732872
H          1.948772     0.342778    -2.034686
H          1.337631    -1.036198    -2.474607

units ang
no_reorient
no_com
symmetry c1
}

set {
basis        aug-cc-pVTZ
scf_type     df
}

energy("mp2")
--------------------------------------------------------------------------

    Molecular point group: c1

    Geometry (in Angstrom), charge = 1, multiplicity = 1:

       Center              X                  Y                   Z               Mass
    ------------   -----------------  -----------------  -----------------  -----------------
         K            0.000000000000     0.000000000000     0.000000000000    38.963706486400
         O            0.681155000000     2.280734000000     1.579374000000    15.994914619570
         H            1.434766000000     2.011871000000     2.145198000000     1.007825032230
         H            0.845222000000     3.254319000000     1.420636000000     1.007825032230
         O           -1.480588000000    -0.767019000000     2.170820000000    15.994914619570
         H           -1.496644000000    -0.560012000000     3.066086000000     1.007825032230
         H           -1.412629000000    -1.742263000000     2.240040000000     1.007825032230
         O            0.032695000000    -2.723352000000     0.280396000000    15.994914619570
         H           -0.173080000000    -3.362364000000    -0.391988000000     1.007825032230
         H           -0.080478000000    -3.178871000000     1.104535000000     1.007825032230
         O           -1.492386000000    -0.320905000000    -2.637511000000    15.994914619570
         H           -2.319056000000    -0.727991000000    -2.799845000000     1.007825032230
         H           -1.445518000000     0.545652000000    -3.153064000000     1.007825032230
         O            1.881515000000    -0.602297000000    -1.732872000000    15.994914619570
         H            1.948772000000     0.342778000000    -2.034686000000     1.007825032230
         H            1.337631000000    -1.036198000000    -2.474607000000     1.007825032230

  Charge       = 1
  Multiplicity = 1
  Basis Set: AUG-CC-PVTZ
    Blend: AUG-CC-PVTZ
  Basis Set: (AUG-CC-PVTZ AUX)
    Blend: AUG-CC-PVTZ-JKFIT + DEF2-UNIVERSAL-JKFIT

    Orbital Energies [Eh]
    ---------------------

    Doubly Occupied:

       1A   -133.602349     2A    -20.714074     3A    -20.712551
       4A    -20.711864     5A    -20.711833     6A    -20.707207
       7A    -14.560125     8A    -11.590043     9A    -11.589966
      10A    -11.589859    11A     -1.822823    12A     -1.508038
      13A     -1.503597    14A     -1.489804    15A     -1.480030
      16A     -1.475156    17A     -1.033896    18A     -1.032703
      19A     -1.030943    20A     -0.876026    21A     -0.863626
      22A     -0.850249    23A     -0.839214    24A     -0.830273
      25A     -0.745759    26A     -0.740764    27A     -0.728478
      28A     -0.727124    29A     -0.719302    30A     -0.662062
      31A     -0.656491    32A     -0.655516    33A     -0.651857
      34A     -0.650567

  @DF-RHF Final Energy:  -979.38508717896570

   => Energetics <=

    Nuclear Repulsion Energy =            342.9140300781264159
    One-Electron Energy =               -2024.4698856441948465
    Two-Electron Energy =                 702.1707683871027257
    Total Energy =                       -979.3850871789657049
 Dipole X            :          7.8244233           -8.2805645           -0.4561412
 Dipole Y            :         40.3467517          -40.6589524           -0.3122007
 Dipole Z            :          6.6510771           -6.7955288           -0.1444517
 Magnitude           :                                                    0.5713146
  Basis Set: (AUG-CC-PVTZ AUX)
    Blend: AUG-CC-PVTZ-RI + DEF2-QZVPP-RI
	 Reference Energy          =    -979.3850871789657049 [Eh]
	 Singles Energy            =      -0.0000000000000000 [Eh]
	 Same-Spin Energy          =      -0.3847850960193431 [Eh]
	 Opposite-Spin Energy      =      -1.1729125190057634 [Eh]
	 Correlation Energy        =      -1.5576976150251065 [Eh]
	 Total Energy              =    -980.9427847939907679 [Eh]

	 ================> DF-SCS-MP2 Energies <==================
	-----------------------------------------------------------
	 SCS Same-Spin Scale       =       0.3333333333333333 [-]
	 SCS Opposite-Spin Scale   =       1.2000000000000000 [-]
	 SCS Same-Spin Energy      =      -0.1282616986731144 [Eh]
	 SCS Opposite-Spin Energy  =      -1.4074950228069161 [Eh]
	 SCS Correlation Energy    =      -1.5357567214800305 [Eh]
	 SCS Total Energy          =    -980.9208439004457887 [Eh]
	-----------------------------------------------------------

*** Psi4 exiting successfully. Buy a developer a beer!
