                               Psi4 1.9 release

  ==> Input File <==

--------------------------------------------------------------------------
MEMORY 60 GB

molecule dimer {
1 1
K          0.000000     0.000000     0.000000
O          1.395321     2.485796    -0.499111
H          0.475724     2.530364    -0.908150
H          1.541025     3.296659     0.059292
O         -0.298366     0.277828    -2.884288
H         -1.052425    -0.252557    -3.266455
H         -0.007761     0.938512    -3.499209
O         -0.844454     0.705415     2.485358
H         -0.439561     1.442536     2.982417
H         -0.765232    -0.044769     3.073039
O          2.206718    -0.416213    -1.515557
H          2.624132    -1.306624    -1.434775
H          1.710832    -0.523339    -2.322752
O          2.287985     0.406779     1.536207
H          1.848703     0.878967     2.243779
H          2.356853     1.050663     0.803187
O         -0.926946    -2.528131    -0.885140
H         -0.638585    -2.814555    -0.002462
H         -0.175227    -2.863224    -1.473137
O         -2.524902     0.657056     0.276186
H         -2.345141     0.830225     1.144007
H         -3.348189     0.216696     0.083786

units ang
no_reorient
no_com
symmetry c1
}

set {
basis        aug-cc-pVTZ
scf_type     df
}

energy("mp2")
--------------------------------------------------------------------------

    Molecular point group: c1

    Geometry (in Angstrom), charge = 1, multiplicity = 1:

       Center              X                  Y                   Z               Mass
    ------------   -----------------  -----------------  -----------------  -----------------
         K            0.000000000000     0.000000000000     0.000000000000    38.963706486400
         O            1.395321000000     2.485796000000    -0.499111000000    15.994914619570
         H            0.475724000000     2.530364000000    -0.908150000000     1.007825032230
         H            1.541025000000     3.296659000000     0.059292000000     1.007825032230
         O           -0.298366000000     0.277828000000    -2.884288000000    15.994914619570
         H           -1.052425000000    -0.252557000000    -3.266455000000     1.007825032230
         H           -0.007761000000     0.938512000000    -3.499209000000     1.007825032230
         O           -0.844454000000     0.705415000000     2.485358000000    15.994914619570
         H           -0.439561000000     1.442536000000     2.982417000000     1.007825032230
         H           -0.765232000000    -0.044769000000     3.073039000000     1.007825032230
         O            2.206718000000    -0.416213000000    -1.515557000000    15.994914619570
         H            2.624132000000    -1.306624000000    -1.434775000000     1.007825032230
         H            1.710832000000    -0.523339000000    -2.322752000000     1.007825032230
         O            2.287985000000     0.406779000000     1.536207000000    15.994914619570
         H            1.848703000000     0.878967000000     2.243779000000     1.007825032230
         H            2.356853000000     1.050663000000     0.803187000000     1.007825032230
         O           -0.926946000000    -2.528131000000    -0.885140000000    15.994914619570
         H           -0.638585000000    -2.814555000000    -0.002462000000     1.007825032230
         H           -0.175227000000    -2.863224000000    -1.473137000000     1.007825032230
         O           -2.524902000000     0.657056000000     0.276186000000    15.994914619570
         H           -2.345141000000     0.830225000000     1.144007000000     1.007825032230
         H           -3.348189000000     0.216696000000     0.083786000000     1.007825032230

  Charge       = 1
  Multiplicity = 1
  Basis Set: AUG-CC-PVTZ
    Blend: AUG-CC-PVTZ
  Basis Set: (AUG-CC-PVTZ AUX)
    Blend: AUG-CC-PVTZ-JKFIT + DEF2-UNIVERSAL-JKFIT

    Orbital Energies [Eh]
    ---------------------

    Doubly Occupied:

       1A   -133.586049     2A    -20.738406     3A    -20.717046
       4A    -20.716729     5A    -20.712627     6A    -20.691404
       7A    -20.683843     8A    -20.681130     9A    -14.544601
      10A    -11.574507    11A    -11.574317    12A    -11.574222
      13A     -1.810260    14A     -1.525776    15A     -1.491870
      16A     -1.491394    17A     -1.484329    18A     -1.479363
      19A     -1.475230    20A     -1.467626    21A     -1.023847
      22A     -1.021918    23A     -1.018508    24A     -0.891567
      25A     -0.885440    26A     -0.868433    27A     -0.850330
      28A     -0.839584    29A     -0.835160    30A     -0.829211
      31A     -0.763860    32A     -0.729172    33A     -0.727859
      34A     -0.724352    35A     -0.715140    36A     -0.704086
      37A     -0.697742    38A     -0.684873    39A     -0.658926
      40A     -0.655973    41A     -0.652375    42A     -0.641983
      43A     -0.636306    44A     -0.629051

  @DF-RHF Final Energy: -1131.50411036331002

   => Energetics <=

    Nuclear Repulsion Energy =            588.2618064998581531
    One-Electron Energy =               -2722.1189749997533909
    Two-Electron Energy =                1002.3530581365851049
    Total Energy =                      -1131.5041103633100192
 Dipole X            :        -23.5586575           22.9563854           -0.6022721
 Dipole Y            :        -30.1025044           30.4015246            0.2990203
 Dipole Z            :         27.3796405          -27.2275387            0.1521018
 Magnitude           :                                                    0.6894053
  Basis Set: (AUG-CC-PVTZ AUX)
    Blend: AUG-CC-PVTZ-RI + DEF2-QZVPP-RI
	 Reference Energy          =   -1131.5041103633100192 [Eh]
	 Singles Energy            =      -0.0000000000000000 [Eh]
	 Same-Spin Energy          =      -0.5333843121341227 [Eh]
	 Opposite-Spin Energy      =      -1.6261233735919767 [Eh]
	 Correlation Energy        =      -2.1595076857260995 [Eh]
	 Total Energy              =   -1133.6636180490361312 [Eh]

	 ================> DF-SCS-MP2 Energies <==================
	-----------------------------------------------------------
	 SCS Same-Spin Scale       =       0.3333333333333333 [-]
	 SCS Opposite-Spin Scale   =       1.2000000000000000 [-]
	 SCS Same-Spin Energy      =      -0.1777947707113742 [Eh]
	 SCS Opposite-Spin Energy  =      -1.9513480483103720 [Eh]
	 SCS Correlation Energy    =      -2.1291428190217463 [Eh]
	 SCS Total Energy          =   -1133.6332531823318277 [Eh]
	-----------------------------------------------------------

*** Psi4 exiting successfully. Buy a developer a beer!
