                               Psi4 1.9 release

  ==> Input File <==

--------------------------------------------------------------------------
MEMORY 60 GB

molecule dimer {
1 1
K      0.000000     0.000000     0.000000
--
0 1
O     -0.210079     2.249880    -1.822263
H     -0.999905     2.747073    -2.188873
H      0.437892     2.910845    -1.624153
O     -0.450115    -1.345599    -2.334771
H     -1.257746    -1.369664    -2.796646
H     -0.004945    -2.214472    -2.565938
O      0.686051     1.202628     2.117488
H      1.269892     0.636475     2.686024
H      0.056161     1.684988     2.688453

units ang
no_reorient
no_com
symmetry c1
}

set {
basis        aug-cc-pVTZ
scf_type     df
}

energy("mp2", bsse_type="cp")
--------------------------------------------------------------------------

                               Psi4 1.9 release
    Molecular point group: c1
  Charge       = 0
  Multiplicity = 1
  Basis Set: AUG-CC-PVTZ
    Blend: AUG-CC-PVTZ
  Basis Set: (AUG-CC-PVTZ AUX)
    Blend: AUG-CC-PVTZ-JKFIT + DEF2-UNIVERSAL-JKFIT
  @DF-RHF Final Energy:  -228.16670119227905
    Total Energy =                       -228.1667011922790493
 Dipole X            :          0.2020446           -0.5514126           -0.3493680
 Dipole Y            :        -40.0383093           40.1576572            0.1193479
 Dipole Z            :         38.2166928          -38.0165672            0.2001255
 Magnitude           :                                                    0.4199430
  Basis Set: (AUG-CC-PVTZ AUX)
    Blend: AUG-CC-PVTZ-RI + DEF2-QZVPP-RI
	 Reference Energy          =    -228.1667011922790493 [Eh]
	 Singles Energy            =      -0.0000000000000000 [Eh]
	 Same-Spin Energy          =      -0.2063632989799488 [Eh]
	 Opposite-Spin Energy      =      -0.6496399929062562 [Eh]
	 Correlation Energy        =      -0.8560032918862051 [Eh]
	 Total Energy              =    -229.0227044841652457 [Eh]
	 SCS Total Energy          =    -229.0150569500931965 [Eh]
                               Psi4 1.9 release
    Molecular point group: c1
  Multiplicity = 1
  Basis Set: AUG-CC-PVTZ
    Blend: AUG-CC-PVTZ
  Basis Set: (AUG-CC-PVTZ AUX)
    Blend: AUG-CC-PVTZ-JKFIT + DEF2-UNIVERSAL-JKFIT
  @DF-RHF Final Energy:  -599.01751265076439
    Total Energy =                       -599.0175126507643881
  Basis Set: (AUG-CC-PVTZ AUX)
	 Singles Energy            =      -0.0000000000000000 [Eh]
	 Same-Spin Energy          =      -0.0327564959269068 [Eh]
	 Opposite-Spin Energy      =      -0.0787677825552975 [Eh]
	 Correlation Energy        =      -0.1115242784822043 [Eh]
	 Total Energy              =    -599.1290369292465812 [Eh]
	 SCS Total Energy          =    -599.1229528218063933 [Eh]
                               Psi4 1.9 release
    Molecular point group: c1

    Geometry (in Bohr), charge = 1, multiplicity = 1:

       Center              X                  Y                   Z               Mass
    ------------   -----------------  -----------------  -----------------  -----------------
         K            0.000000000000     0.000000000000     0.000000000000    38.963706486400
         O           -0.396991774710     4.251657015145    -3.443577998555    15.994914619570
         H           -1.889546601476     5.191215616640    -4.136370493409     1.007825032230
         H            0.827495952529     5.500699843658    -3.069204355841     1.007825032230
         O           -0.850594074960    -2.542813584690    -4.412077755661    15.994914619570
         H           -2.376795475390    -2.588289843899    -5.284895009857     1.007825032230
         H           -0.009344695690    -4.184745592495    -4.848920074905     1.007825032230
         O            1.296448498096     2.272637550807     4.001472393943    15.994914619570
         H            2.399748088910     1.202763435701     5.075849726407     1.007825032230
         H            0.106128908932     3.184165844683     5.080439871165     1.007825032230

  Charge       = 1
  Multiplicity = 1
  Basis Set: AUG-CC-PVTZ
    Blend: AUG-CC-PVTZ
  Basis Set: (AUG-CC-PVTZ AUX)
    Blend: AUG-CC-PVTZ-JKFIT + DEF2-UNIVERSAL-JKFIT

    Orbital Energies [Eh]
    ---------------------

    Doubly Occupied:

       1A   -133.641542     2A    -20.737528     3A    -20.718860
       4A    -20.711742     5A    -14.599154     6A    -11.629160
       7A    -11.629028     8A    -11.628854     9A     -1.861066
      10A     -1.511084    11A     -1.503242    12A     -1.489034
      13A     -1.071921    14A     -1.069674    15A     -1.068965
      16A     -0.882541    17A     -0.864998    18A     -0.854051
      19A     -0.753640    20A     -0.742909    21A     -0.729725
      22A     -0.682075    23A     -0.664644    24A     -0.654388

  @DF-RHF Final Energy:  -827.25192934771349

   => Energetics <=

    Nuclear Repulsion Energy =            169.8509291459267558
    One-Electron Energy =               -1470.8060616650652719
    Two-Electron Energy =                 473.7032031714250024
    Total Energy =                       -827.2519293477134852
 Dipole X            :          0.1968532           -0.5514126           -0.3545594
 Dipole Y            :        -39.8275123           40.1576572            0.3301449
 Dipole Z            :         38.0830098          -38.0165672            0.0664426
 Magnitude           :                                                    0.4890017
  Basis Set: (AUG-CC-PVTZ AUX)
    Blend: AUG-CC-PVTZ-RI + DEF2-QZVPP-RI
	 Reference Energy          =    -827.2519293477134852 [Eh]
	 Singles Energy            =      -0.0000000000000000 [Eh]
	 Same-Spin Energy          =      -0.2411890371951991 [Eh]
	 Opposite-Spin Energy      =      -0.7277445350650378 [Eh]
	 Correlation Energy        =      -0.9689335722602368 [Eh]
	 Total Energy              =    -828.2208629199736833 [Eh]

	 ================> DF-SCS-MP2 Energies <==================
	-----------------------------------------------------------
	 SCS Same-Spin Scale       =       0.3333333333333333 [-]
	 SCS Opposite-Spin Scale   =       1.2000000000000000 [-]
	 SCS Same-Spin Energy      =      -0.0803963457317330 [Eh]
	 SCS Opposite-Spin Energy  =      -0.8732934420780453 [Eh]
	 SCS Correlation Energy    =      -0.9536897878097783 [Eh]
	 SCS Total Energy          =    -828.2056191355233068 [Eh]
	-----------------------------------------------------------

*** Psi4 exiting successfully. Buy a developer a beer!
