                               Psi4 1.9 release

  ==> Input File <==

--------------------------------------------------------------------------
MEMORY 60 GB

molecule dimer {
1 1
K          0.000000     0.000000     0.000000
O         -0.873977    -0.157326    -2.492460
H         -1.740116    -0.052883    -2.878562
H         -0.273500     0.375994    -3.026061
O          2.608119     0.315616     0.527310
H          3.312820    -0.307262     0.594493
H          2.932642     0.856303    -0.199126
O          0.725977    -2.654096    -0.373484
H          1.317561    -2.978209    -1.023598
H         -0.110315    -3.095978    -0.542861
O         -2.649027    -1.197370     0.324003
H         -2.756447    -1.934451    -0.241219
H         -2.755054    -1.440674     1.244298
O         -1.038712     2.794023    -0.587160
H         -1.259782     2.719630    -1.535356
H         -1.840414     2.377449    -0.164631

units ang
no_reorient
no_com
symmetry c1
}

set {
basis        aug-cc-pVTZ
scf_type     df
}

energy("mp2")
--------------------------------------------------------------------------

    Molecular point group: c1

    Geometry (in Angstrom), charge = 1, multiplicity = 1:

       Center              X                  Y                   Z               Mass
    ------------   -----------------  -----------------  -----------------  -----------------
         K            0.000000000000     0.000000000000     0.000000000000    38.963706486400
         O           -0.873977000000    -0.157326000000    -2.492460000000    15.994914619570
         H           -1.740116000000    -0.052883000000    -2.878562000000     1.007825032230
         H           -0.273500000000     0.375994000000    -3.026061000000     1.007825032230
         O            2.608119000000     0.315616000000     0.527310000000    15.994914619570
         H            3.312820000000    -0.307262000000     0.594493000000     1.007825032230
         H            2.932642000000     0.856303000000    -0.199126000000     1.007825032230
         O            0.725977000000    -2.654096000000    -0.373484000000    15.994914619570
         H            1.317561000000    -2.978209000000    -1.023598000000     1.007825032230
         H           -0.110315000000    -3.095978000000    -0.542861000000     1.007825032230
         O           -2.649027000000    -1.197370000000     0.324003000000    15.994914619570
         H           -2.756447000000    -1.934451000000    -0.241219000000     1.007825032230
         H           -2.755054000000    -1.440674000000     1.244298000000     1.007825032230
         O           -1.038712000000     2.794023000000    -0.587160000000    15.994914619570
         H           -1.259782000000     2.719630000000    -1.535356000000     1.007825032230
         H           -1.840414000000     2.377449000000    -0.164631000000     1.007825032230

  Charge       = 1
  Multiplicity = 1
  Basis Set: AUG-CC-PVTZ
    Blend: AUG-CC-PVTZ
  Basis Set: (AUG-CC-PVTZ AUX)
    Blend: AUG-CC-PVTZ-JKFIT + DEF2-UNIVERSAL-JKFIT

    Orbital Energies [Eh]
    ---------------------

    Doubly Occupied:

       1A   -133.613062     2A    -20.729296     3A    -20.714460
       4A    -20.712513     5A    -20.711104     6A    -20.709620
       7A    -14.570794     8A    -11.600745     9A    -11.600603
      10A    -11.600531    11A     -1.833357    12A     -1.518453
      13A     -1.508496    14A     -1.507449    15A     -1.505834
      16A     -1.478520    17A     -1.045228    18A     -1.042316
      19A     -1.041848    20A     -0.890724    21A     -0.885141
      22A     -0.872355    23A     -0.857751    24A     -0.832733
      25A     -0.754570    26A     -0.747710    27A     -0.737954
      28A     -0.731377    29A     -0.722349    30A     -0.679325
      31A     -0.666305    32A     -0.661708    33A     -0.660144
      34A     -0.646712

  @DF-RHF Final Energy:  -979.39186340969957

   => Energetics <=

    Nuclear Repulsion Energy =            345.0215542441806633
    One-Electron Energy =               -2028.0446632926584698
    Two-Electron Energy =                 703.6312456387782959
    Total Energy =                       -979.3918634096995675
 Dipole X            :         24.0538010          -24.5542792           -0.5004783
 Dipole Y            :         18.8914982          -20.1696233           -1.2781251
 Dipole Z            :         52.1136686          -54.0215082           -1.9078396
 Magnitude           :                                                    2.3503051
  Basis Set: (AUG-CC-PVTZ AUX)
    Blend: AUG-CC-PVTZ-RI + DEF2-QZVPP-RI
	 Reference Energy          =    -979.3918634096995675 [Eh]
	 Singles Energy            =      -0.0000000000000000 [Eh]
	 Same-Spin Energy          =      -0.3836715715953158 [Eh]
	 Opposite-Spin Energy      =      -1.1700335228993246 [Eh]
	 Correlation Energy        =      -1.5537050944946404 [Eh]
	 Total Energy              =    -980.9455685041941706 [Eh]

	 ================> DF-SCS-MP2 Energies <==================
	-----------------------------------------------------------
	 SCS Same-Spin Scale       =       0.3333333333333333 [-]
	 SCS Opposite-Spin Scale   =       1.2000000000000000 [-]
	 SCS Same-Spin Energy      =      -0.1278905238651052 [Eh]
	 SCS Opposite-Spin Energy  =      -1.4040402274791894 [Eh]
	 SCS Correlation Energy    =      -1.5319307513442948 [Eh]
	 SCS Total Energy          =    -980.9237941610438156 [Eh]
	-----------------------------------------------------------

*** Psi4 exiting successfully. Buy a developer a beer!
