                               Psi4 1.9 release

  ==> Input File <==

--------------------------------------------------------------------------
MEMORY 60 GB

molecule dimer {
0 1
Gh(K)      0.000000     0.000000     0.000000
Gh(O)      0.681155     2.280734     1.579374
Gh(H)      1.434766     2.011871     2.145198
Gh(H)      0.845222     3.254319     1.420636
Gh(O)     -1.480588    -0.767019     2.170820
Gh(H)     -1.496644    -0.560012     3.066086
Gh(H)     -1.412629    -1.742263     2.240040
Gh(O)      0.032695    -2.723352     0.280396
Gh(H)     -0.173080    -3.362364    -0.391988
Gh(H)     -0.080478    -3.178871     1.104535
O         -1.492386    -0.320905    -2.637511
H         -2.319056    -0.727991    -2.799845
H         -1.445518     0.545652    -3.153064
Gh(O)      1.881515    -0.602297    -1.732872
Gh(H)      1.948772     0.342778    -2.034686
Gh(H)      1.337631    -1.036198    -2.474607

units ang
no_reorient
no_com
symmetry c1
}

set {
basis        aug-cc-pVTZ
scf_type     df
}

energy("mp2")
--------------------------------------------------------------------------

    Molecular point group: c1

    Geometry (in Angstrom), charge = 0, multiplicity = 1:

       Center              X                  Y                   Z               Mass
    ------------   -----------------  -----------------  -----------------  -----------------
      Gh(K)           0.000000000000     0.000000000000     0.000000000000    38.963706486400
      Gh(O)           0.681155000000     2.280734000000     1.579374000000    15.994914619570
      Gh(H)           1.434766000000     2.011871000000     2.145198000000     1.007825032230
      Gh(H)           0.845222000000     3.254319000000     1.420636000000     1.007825032230
      Gh(O)          -1.480588000000    -0.767019000000     2.170820000000    15.994914619570
      Gh(H)          -1.496644000000    -0.560012000000     3.066086000000     1.007825032230
      Gh(H)          -1.412629000000    -1.742263000000     2.240040000000     1.007825032230
      Gh(O)           0.032695000000    -2.723352000000     0.280396000000    15.994914619570
      Gh(H)          -0.173080000000    -3.362364000000    -0.391988000000     1.007825032230
      Gh(H)          -0.080478000000    -3.178871000000     1.104535000000     1.007825032230
         O           -1.492386000000    -0.320905000000    -2.637511000000    15.994914619570
         H           -2.319056000000    -0.727991000000    -2.799845000000     1.007825032230
         H           -1.445518000000     0.545652000000    -3.153064000000     1.007825032230
      Gh(O)           1.881515000000    -0.602297000000    -1.732872000000    15.994914619570
      Gh(H)           1.948772000000     0.342778000000    -2.034686000000     1.007825032230
      Gh(H)           1.337631000000    -1.036198000000    -2.474607000000     1.007825032230

  Charge       = 0
  Multiplicity = 1
  Basis Set: AUG-CC-PVTZ
    Blend: AUG-CC-PVTZ
  Basis Set: (AUG-CC-PVTZ AUX)
    Blend: AUG-CC-PVTZ-JKFIT + DEF2-UNIVERSAL-JKFIT

    Orbital Energies [Eh]
    ---------------------

    Doubly Occupied:

       1A    -20.567398     2A     -1.343974     3A     -0.718105
       4A     -0.572871     5A     -0.507804

  @DF-RHF Final Energy:   -76.05637370605017

   => Energetics <=

    Nuclear Repulsion Energy =              9.0524967583290792
    One-Electron Energy =                -122.7974306271552933
    Two-Electron Energy =                  37.6885601627760423
    Total Energy =                        -76.0563737060501666
 Dipole X            :         29.1483344          -29.6756203           -0.5272859
 Dipole Y            :          5.4941409           -5.1959513            0.2981896
 Dipole Z            :         50.6718499          -51.1227552           -0.4509053
 Magnitude           :                                                    0.7551576
  Basis Set: (AUG-CC-PVTZ AUX)
    Blend: AUG-CC-PVTZ-RI + DEF2-QZVPP-RI
	 Reference Energy          =     -76.0563737060501666 [Eh]
	 Singles Energy            =      -0.0000000000000000 [Eh]
	 Same-Spin Energy          =      -0.0685557586782079 [Eh]
	 Opposite-Spin Energy      =      -0.2160575923386022 [Eh]
	 Correlation Energy        =      -0.2846133510168101 [Eh]
	 Total Energy              =     -76.3409870570669824 [Eh]

	 ================> DF-SCS-MP2 Energies <==================
	-----------------------------------------------------------
	 SCS Same-Spin Scale       =       0.3333333333333333 [-]
	 SCS Opposite-Spin Scale   =       1.2000000000000000 [-]
	 SCS Same-Spin Energy      =      -0.0228519195594026 [Eh]
	 SCS Opposite-Spin Energy  =      -0.2592691108063226 [Eh]
	 SCS Correlation Energy    =      -0.2821210303657253 [Eh]
	 SCS Total Energy          =     -76.3384947364158961 [Eh]
	-----------------------------------------------------------

*** Psi4 exiting successfully. Buy a developer a beer!
