                               Psi4 1.9 release

  ==> Input File <==

--------------------------------------------------------------------------
MEMORY 60 GB

molecule dimer {
0 1
Gh(K)      0.000000     0.000000     0.000000
Gh(O)     -2.635555    -0.276395     1.367629
Gh(H)     -2.296026    -0.337391     2.286535
Gh(H)     -3.490352    -0.708308     1.251761
O          2.756429    -0.515741    -0.495604
H          3.405562    -0.731420     0.158018
H          2.773624     0.411513    -0.812172
Gh(O)      0.329265     0.299331    -2.532931
Gh(H)      0.307016    -0.242145    -3.289589
Gh(H)      0.466834     1.212367    -2.850108
Gh(O)      0.201952     1.346168     2.493417
Gh(H)     -0.355586     2.214469     2.733889
Gh(H)     -0.029793     0.631912     3.061578
Gh(O)     -1.125899    -2.279212    -1.110246
Gh(H)     -1.831871    -2.461089    -1.782069
Gh(H)     -0.507812    -3.042224    -1.253317

units ang
no_reorient
no_com
symmetry c1
}

set {
basis        aug-cc-pVTZ
scf_type     df
}

energy("mp2")
--------------------------------------------------------------------------

    Molecular point group: c1

    Geometry (in Angstrom), charge = 0, multiplicity = 1:

       Center              X                  Y                   Z               Mass
    ------------   -----------------  -----------------  -----------------  -----------------
      Gh(K)           0.000000000000     0.000000000000     0.000000000000    38.963706486400
      Gh(O)          -2.635555000000    -0.276395000000     1.367629000000    15.994914619570
      Gh(H)          -2.296026000000    -0.337391000000     2.286535000000     1.007825032230
      Gh(H)          -3.490352000000    -0.708308000000     1.251761000000     1.007825032230
         O            2.756429000000    -0.515741000000    -0.495604000000    15.994914619570
         H            3.405562000000    -0.731420000000     0.158018000000     1.007825032230
         H            2.773624000000     0.411513000000    -0.812172000000     1.007825032230
      Gh(O)           0.329265000000     0.299331000000    -2.532931000000    15.994914619570
      Gh(H)           0.307016000000    -0.242145000000    -3.289589000000     1.007825032230
      Gh(H)           0.466834000000     1.212367000000    -2.850108000000     1.007825032230
      Gh(O)           0.201952000000     1.346168000000     2.493417000000    15.994914619570
      Gh(H)          -0.355586000000     2.214469000000     2.733889000000     1.007825032230
      Gh(H)          -0.029793000000     0.631912000000     3.061578000000     1.007825032230
      Gh(O)          -1.125899000000    -2.279212000000    -1.110246000000    15.994914619570
      Gh(H)          -1.831871000000    -2.461089000000    -1.782069000000     1.007825032230
      Gh(H)          -0.507812000000    -3.042224000000    -1.253317000000     1.007825032230

  Charge       = 0
  Multiplicity = 1
  Basis Set: AUG-CC-PVTZ
    Blend: AUG-CC-PVTZ
  Basis Set: (AUG-CC-PVTZ AUX)
    Blend: AUG-CC-PVTZ-JKFIT + DEF2-UNIVERSAL-JKFIT

    Orbital Energies [Eh]
    ---------------------

    Doubly Occupied:

       1A    -20.562935     2A     -1.343535     3A     -0.733772
       4A     -0.563090     5A     -0.506539

  @DF-RHF Final Energy:   -76.05735190455636

   => Energetics <=

    Nuclear Repulsion Energy =              9.1198544852883607
    One-Electron Energy =                -122.9346686022870472
    Two-Electron Energy =                  37.7574622124423271
    Total Energy =                        -76.0573519045563557
 Dipole X            :        -52.8892484           53.3481364            0.4588880
 Dipole Y            :          8.8868562           -8.4014105            0.4854456
 Dipole Z            :          8.9620780           -8.7286185            0.2334595
 Magnitude           :                                                    0.7076292
  Basis Set: (AUG-CC-PVTZ AUX)
    Blend: AUG-CC-PVTZ-RI + DEF2-QZVPP-RI
	 Reference Energy          =     -76.0573519045563557 [Eh]
	 Singles Energy            =      -0.0000000000000000 [Eh]
	 Same-Spin Energy          =      -0.0684000795780816 [Eh]
	 Opposite-Spin Energy      =      -0.2154283290360872 [Eh]
	 Correlation Energy        =      -0.2838284086141688 [Eh]
	 Total Energy              =     -76.3411803131705256 [Eh]

	 ================> DF-SCS-MP2 Energies <==================
	-----------------------------------------------------------
	 SCS Same-Spin Scale       =       0.3333333333333333 [-]
	 SCS Opposite-Spin Scale   =       1.2000000000000000 [-]
	 SCS Same-Spin Energy      =      -0.0228000265260272 [Eh]
	 SCS Opposite-Spin Energy  =      -0.2585139948433047 [Eh]
	 SCS Correlation Energy    =      -0.2813140213693319 [Eh]
	 SCS Total Energy          =     -76.3386659259256817 [Eh]
	-----------------------------------------------------------

*** Psi4 exiting successfully. Buy a developer a beer!
