                               Psi4 1.9 release

  ==> Input File <==

--------------------------------------------------------------------------
MEMORY 60 GB

molecule dimer {
1 1
K      0.000000     0.000000     0.000000
--
0 1
O     -0.765719     1.087653     2.167467
H     -0.366710     0.618826     2.934654
H     -0.375078     1.956726     2.261313
O      0.783235     0.249805    -2.652016
H      0.810836     1.128177    -3.198673
H      1.673506    -0.176047    -2.638363
O      1.949027     1.313741     0.855188
H      2.577772     1.693311     0.164076
H      1.560359     2.078643     1.367190
O     -1.376289    -2.236190     1.521680
H     -1.917950    -2.202670     2.374185
H     -1.844766    -2.998636     1.080903
O     -1.599232     1.945142    -1.540209
H     -0.917197     2.521554    -1.161089
H     -1.775862     2.352459    -2.354892

units ang
no_reorient
no_com
symmetry c1
}

set {
basis        aug-cc-pVTZ
scf_type     df
}

energy("mp2", bsse_type="cp")
--------------------------------------------------------------------------

                               Psi4 1.9 release
    Molecular point group: c1
  Charge       = 0
  Multiplicity = 1
  Basis Set: AUG-CC-PVTZ
    Blend: AUG-CC-PVTZ
  Basis Set: (AUG-CC-PVTZ AUX)
    Blend: AUG-CC-PVTZ-JKFIT + DEF2-UNIVERSAL-JKFIT
  @DF-RHF Final Energy:  -380.25519418102817
    Total Energy =                       -380.2551941810281733
 Dipole X            :         17.2318638          -16.3402993            0.8915645
 Dipole Y            :        -47.5660449           48.8561308            1.2900859
 Dipole Z            :         -6.8524033            6.8902892            0.0378859
 Magnitude           :                                                    1.5686441
  Basis Set: (AUG-CC-PVTZ AUX)
    Blend: AUG-CC-PVTZ-RI + DEF2-QZVPP-RI
	 Reference Energy          =    -380.2551941810281733 [Eh]
	 Singles Energy            =      -0.0000000000000000 [Eh]
	 Same-Spin Energy          =      -0.3471139225231933 [Eh]
	 Opposite-Spin Energy      =      -1.0900652799536021 [Eh]
	 Correlation Energy        =      -1.4371792024767953 [Eh]
	 Total Energy              =    -381.6923733835049575 [Eh]
	 SCS Total Energy          =    -381.6789771578135628 [Eh]
                               Psi4 1.9 release
    Molecular point group: c1
  Multiplicity = 1
  Basis Set: AUG-CC-PVTZ
    Blend: AUG-CC-PVTZ
  Basis Set: (AUG-CC-PVTZ AUX)
    Blend: AUG-CC-PVTZ-JKFIT + DEF2-UNIVERSAL-JKFIT
  @DF-RHF Final Energy:  -599.01751616180013
    Total Energy =                       -599.0175161618001312
  Basis Set: (AUG-CC-PVTZ AUX)
	 Singles Energy            =      -0.0000000000000000 [Eh]
	 Same-Spin Energy          =      -0.0372324224494257 [Eh]
	 Opposite-Spin Energy      =      -0.0907492283526071 [Eh]
	 Correlation Energy        =      -0.1279816508020328 [Eh]
	 Total Energy              =    -599.1454978126021160 [Eh]
	 SCS Total Energy          =    -599.1388260433063806 [Eh]
                               Psi4 1.9 release
    Molecular point group: c1

    Geometry (in Bohr), charge = 1, multiplicity = 1:

       Center              X                  Y                   Z               Mass
    ------------   -----------------  -----------------  -----------------  -----------------
         K            0.000000000000     0.000000000000     0.000000000000    38.963706486400
         O           -1.446999199059     2.055366289533     4.095919015968    15.994914619570
         H           -0.692981467467     1.169411659313     5.545692332979     1.007825032230
         H           -0.708794695684     3.697676242563     4.273262253937     1.007825032230
         O            1.480099641873     0.472063034770    -5.011583920332    15.994914619570
         H            1.532257972662     2.131945551041    -6.044615934897     1.007825032230
         H            3.162468009310    -0.332680615208    -4.985783489541     1.007825032230
         O            3.683127241123     2.482610689785     1.616071105778    15.994914619570
         H            4.871283093874     3.199894035225     0.310058703761     1.007825032230
         H            2.948651167393     3.928065982600     2.583614661465     1.007825032230
         O           -2.600809279480    -4.225786664488     2.875558450587    15.994914619570
         H           -3.624400222322    -4.162443044762     4.486559421170     1.007825032230
         H           -3.486102505556    -5.666600789938     2.042610638186     1.007825032230
         O           -3.022110491068     3.675785655125    -2.910573185965    15.994914619570
         H           -1.733251133092     4.765046470553    -2.194140217282     1.007825032230
         H           -3.355892816608     4.445503231368    -4.450100935032     1.007825032230

  Charge       = 1
  Multiplicity = 1
  Basis Set: AUG-CC-PVTZ
    Blend: AUG-CC-PVTZ
  Basis Set: (AUG-CC-PVTZ AUX)
    Blend: AUG-CC-PVTZ-JKFIT + DEF2-UNIVERSAL-JKFIT

    Orbital Energies [Eh]
    ---------------------

    Doubly Occupied:

       1A   -133.599648     2A    -20.741987     3A    -20.727619
       4A    -20.718420     5A    -20.704146     6A    -20.702752
       7A    -14.558069     8A    -11.587938     9A    -11.587809
      10A    -11.587736    11A     -1.823050    12A     -1.514009
      13A     -1.504147    14A     -1.498135    15A     -1.473179
      16A     -1.463287    17A     -1.035871    18A     -1.033520
      19A     -1.031887    20A     -0.877238    21A     -0.861558
      22A     -0.857062    23A     -0.846995    24A     -0.809738
      25A     -0.753786    26A     -0.747744    27A     -0.730580
      28A     -0.722876    29A     -0.715516    30A     -0.683517
      31A     -0.672310    32A     -0.656964    33A     -0.646462
      34A     -0.638249

  @DF-RHF Final Energy:  -979.35859848232610

   => Energetics <=

    Nuclear Repulsion Energy =            349.3745854773152359
    One-Electron Energy =               -2037.2387536888959403
    Two-Electron Energy =                 708.5055697292547165
    Total Energy =                       -979.3585984823261015
 Dipole X            :         17.2341861          -16.3402993            0.8938868
 Dipole Y            :        -47.2445541           48.8561308            1.6115767
 Dipole Z            :         -6.7744230            6.8902892            0.1158662
 Magnitude           :                                                    1.8465205
  Basis Set: (AUG-CC-PVTZ AUX)
    Blend: AUG-CC-PVTZ-RI + DEF2-QZVPP-RI
	 Reference Energy          =    -979.3585984823261015 [Eh]
	 Singles Energy            =      -0.0000000000000000 [Eh]
	 Same-Spin Energy          =      -0.3878870204668679 [Eh]
	 Opposite-Spin Energy      =      -1.1801641774752130 [Eh]
	 Correlation Energy        =      -1.5680511979420808 [Eh]
	 Total Energy              =    -980.9266496802681559 [Eh]

	 ================> DF-SCS-MP2 Energies <==================
	-----------------------------------------------------------
	 SCS Same-Spin Scale       =       0.3333333333333333 [-]
	 SCS Opposite-Spin Scale   =       1.2000000000000000 [-]
	 SCS Same-Spin Energy      =      -0.1292956734889560 [Eh]
	 SCS Opposite-Spin Energy  =      -1.4161970129702555 [Eh]
	 SCS Correlation Energy    =      -1.5454926864592113 [Eh]
	 SCS Total Energy          =    -980.9040911687852713 [Eh]
	-----------------------------------------------------------

*** Psi4 exiting successfully. Buy a developer a beer!
