                               Psi4 1.9 release

  ==> Input File <==

--------------------------------------------------------------------------
MEMORY 60 GB

molecule dimer {
0 1
Gh(K)      0.000000     0.000000     0.000000
Gh(O)     -1.350579    -0.451019    -2.184171
Gh(H)     -0.828374    -0.405480    -2.959027
Gh(H)     -2.295838    -0.182448    -2.477727
Gh(O)      0.811714    -2.953770    -0.024877
Gh(H)      0.491865    -3.516386     0.715024
Gh(H)      1.703134    -3.259401    -0.070729
Gh(O)      1.439502    -0.931900     2.390588
Gh(H)      1.923833    -1.620427     2.861863
Gh(H)      0.879775    -0.561656     3.062076
O          2.556752     0.575285    -0.926306
H          2.963771     0.049734    -0.227753
H          2.591393     1.523133    -0.691197
Gh(O)     -1.229385     2.374053     0.624562
Gh(H)     -0.903017     3.116669     1.152358
Gh(H)     -2.153941     2.270777     0.923160
Gh(O)     -1.464224    -0.338413     2.131283
Gh(H)     -1.017152    -0.390138     2.970331
Gh(H)     -2.307745     0.086032     2.373066

units ang
no_reorient
no_com
symmetry c1
}

set {
basis        aug-cc-pVTZ
scf_type     df
}

energy("mp2")
--------------------------------------------------------------------------

    Molecular point group: c1

    Geometry (in Angstrom), charge = 0, multiplicity = 1:

       Center              X                  Y                   Z               Mass
    ------------   -----------------  -----------------  -----------------  -----------------
      Gh(K)           0.000000000000     0.000000000000     0.000000000000    38.963706486400
      Gh(O)          -1.350579000000    -0.451019000000    -2.184171000000    15.994914619570
      Gh(H)          -0.828374000000    -0.405480000000    -2.959027000000     1.007825032230
      Gh(H)          -2.295838000000    -0.182448000000    -2.477727000000     1.007825032230
      Gh(O)           0.811714000000    -2.953770000000    -0.024877000000    15.994914619570
      Gh(H)           0.491865000000    -3.516386000000     0.715024000000     1.007825032230
      Gh(H)           1.703134000000    -3.259401000000    -0.070729000000     1.007825032230
      Gh(O)           1.439502000000    -0.931900000000     2.390588000000    15.994914619570
      Gh(H)           1.923833000000    -1.620427000000     2.861863000000     1.007825032230
      Gh(H)           0.879775000000    -0.561656000000     3.062076000000     1.007825032230
         O            2.556752000000     0.575285000000    -0.926306000000    15.994914619570
         H            2.963771000000     0.049734000000    -0.227753000000     1.007825032230
         H            2.591393000000     1.523133000000    -0.691197000000     1.007825032230
      Gh(O)          -1.229385000000     2.374053000000     0.624562000000    15.994914619570
      Gh(H)          -0.903017000000     3.116669000000     1.152358000000     1.007825032230
      Gh(H)          -2.153941000000     2.270777000000     0.923160000000     1.007825032230
      Gh(O)          -1.464224000000    -0.338413000000     2.131283000000    15.994914619570
      Gh(H)          -1.017152000000    -0.390138000000     2.970331000000     1.007825032230
      Gh(H)          -2.307745000000     0.086032000000     2.373066000000     1.007825032230

  Charge       = 0
  Multiplicity = 1
  Basis Set: AUG-CC-PVTZ
    Blend: AUG-CC-PVTZ
  Basis Set: (AUG-CC-PVTZ AUX)
    Blend: AUG-CC-PVTZ-JKFIT + DEF2-UNIVERSAL-JKFIT

    Orbital Energies [Eh]
    ---------------------

    Doubly Occupied:

       1A    -20.566923     2A     -1.343031     3A     -0.720122
       4A     -0.571982     5A     -0.507595

  @DF-RHF Final Energy:   -76.05886689092476

   => Energetics <=

    Nuclear Repulsion Energy =              9.0555340125027097
    One-Electron Energy =                -122.8094931220047670
    Two-Electron Energy =                  37.6950922185773081
    Total Energy =                        -76.0588668909247474
 Dipole X            :        -48.8534703           49.1502269            0.2967566
 Dipole Y            :        -11.3879505           11.6693366            0.2813861
 Dipole Z            :         16.3666365          -15.7402810            0.6263555
 Magnitude           :                                                    0.7480400
  Basis Set: (AUG-CC-PVTZ AUX)
    Blend: AUG-CC-PVTZ-RI + DEF2-QZVPP-RI
	 Reference Energy          =     -76.0588668909247616 [Eh]
	 Singles Energy            =      -0.0000000000000000 [Eh]
	 Same-Spin Energy          =      -0.0685472177762445 [Eh]
	 Opposite-Spin Energy      =      -0.2160511434611744 [Eh]
	 Correlation Energy        =      -0.2845983612374189 [Eh]
	 Total Energy              =     -76.3434652521621757 [Eh]

	 ================> DF-SCS-MP2 Energies <==================
	-----------------------------------------------------------
	 SCS Same-Spin Scale       =       0.3333333333333333 [-]
	 SCS Opposite-Spin Scale   =       1.2000000000000000 [-]
	 SCS Same-Spin Energy      =      -0.0228490725920815 [Eh]
	 SCS Opposite-Spin Energy  =      -0.2592613721534092 [Eh]
	 SCS Correlation Energy    =      -0.2821104447454907 [Eh]
	 SCS Total Energy          =     -76.3409773356702459 [Eh]
	-----------------------------------------------------------

*** Psi4 exiting successfully. Buy a developer a beer!
