                               Psi4 1.9 release

  ==> Input File <==

--------------------------------------------------------------------------
MEMORY 60 GB

molecule dimer {
0 1
Gh(K)      0.000000     0.000000     0.000000
Gh(O)      0.681155     2.280734     1.579374
Gh(H)      1.434766     2.011871     2.145198
Gh(H)      0.845222     3.254319     1.420636
Gh(O)     -1.480588    -0.767019     2.170820
Gh(H)     -1.496644    -0.560012     3.066086
Gh(H)     -1.412629    -1.742263     2.240040
O          0.032695    -2.723352     0.280396
H         -0.173080    -3.362364    -0.391988
H         -0.080478    -3.178871     1.104535
Gh(O)     -1.492386    -0.320905    -2.637511
Gh(H)     -2.319056    -0.727991    -2.799845
Gh(H)     -1.445518     0.545652    -3.153064
Gh(O)      1.881515    -0.602297    -1.732872
Gh(H)      1.948772     0.342778    -2.034686
Gh(H)      1.337631    -1.036198    -2.474607

units ang
no_reorient
no_com
symmetry c1
}

set {
basis        aug-cc-pVTZ
scf_type     df
}

energy("mp2")
--------------------------------------------------------------------------

    Molecular point group: c1

    Geometry (in Angstrom), charge = 0, multiplicity = 1:

       Center              X                  Y                   Z               Mass
    ------------   -----------------  -----------------  -----------------  -----------------
      Gh(K)           0.000000000000     0.000000000000     0.000000000000    38.963706486400
      Gh(O)           0.681155000000     2.280734000000     1.579374000000    15.994914619570
      Gh(H)           1.434766000000     2.011871000000     2.145198000000     1.007825032230
      Gh(H)           0.845222000000     3.254319000000     1.420636000000     1.007825032230
      Gh(O)          -1.480588000000    -0.767019000000     2.170820000000    15.994914619570
      Gh(H)          -1.496644000000    -0.560012000000     3.066086000000     1.007825032230
      Gh(H)          -1.412629000000    -1.742263000000     2.240040000000     1.007825032230
         O            0.032695000000    -2.723352000000     0.280396000000    15.994914619570
         H           -0.173080000000    -3.362364000000    -0.391988000000     1.007825032230
         H           -0.080478000000    -3.178871000000     1.104535000000     1.007825032230
      Gh(O)          -1.492386000000    -0.320905000000    -2.637511000000    15.994914619570
      Gh(H)          -2.319056000000    -0.727991000000    -2.799845000000     1.007825032230
      Gh(H)          -1.445518000000     0.545652000000    -3.153064000000     1.007825032230
      Gh(O)           1.881515000000    -0.602297000000    -1.732872000000    15.994914619570
      Gh(H)           1.948772000000     0.342778000000    -2.034686000000     1.007825032230
      Gh(H)           1.337631000000    -1.036198000000    -2.474607000000     1.007825032230

  Charge       = 0
  Multiplicity = 1
  Basis Set: AUG-CC-PVTZ
    Blend: AUG-CC-PVTZ
  Basis Set: (AUG-CC-PVTZ AUX)
    Blend: AUG-CC-PVTZ-JKFIT + DEF2-UNIVERSAL-JKFIT

    Orbital Energies [Eh]
    ---------------------

    Doubly Occupied:

       1A    -20.565279     2A     -1.357036     3A     -0.723992
       4A     -0.584620     5A     -0.510737

  @DF-RHF Final Energy:   -76.06110863267078

   => Energetics <=

    Nuclear Repulsion Energy =              9.2694815194174254
    One-Electron Energy =                -123.1778505513933482
    Two-Electron Energy =                  37.8472603993051422
    Total Energy =                        -76.0611086326707806
 Dipole X            :         -0.2288913            0.0151216           -0.2137697
 Dipole Y            :         52.7982497          -53.5322581           -0.7340084
 Dipole Z            :         -5.4834118            5.5854919            0.1020801
 Magnitude           :                                                    0.7712886
  Basis Set: (AUG-CC-PVTZ AUX)
    Blend: AUG-CC-PVTZ-RI + DEF2-QZVPP-RI
	 Reference Energy          =     -76.0611086326707806 [Eh]
	 Singles Energy            =      -0.0000000000000000 [Eh]
	 Same-Spin Energy          =      -0.0682330044370263 [Eh]
	 Opposite-Spin Energy      =      -0.2151025228169383 [Eh]
	 Correlation Energy        =      -0.2833355272539646 [Eh]
	 Total Energy              =     -76.3444441599247483 [Eh]

	 ================> DF-SCS-MP2 Energies <==================
	-----------------------------------------------------------
	 SCS Same-Spin Scale       =       0.3333333333333333 [-]
	 SCS Opposite-Spin Scale   =       1.2000000000000000 [-]
	 SCS Same-Spin Energy      =      -0.0227443348123421 [Eh]
	 SCS Opposite-Spin Energy  =      -0.2581230273803259 [Eh]
	 SCS Correlation Energy    =      -0.2808673621926681 [Eh]
	 SCS Total Energy          =     -76.3419759948634464 [Eh]
	-----------------------------------------------------------

*** Psi4 exiting successfully. Buy a developer a beer!
