                               Psi4 1.9 release

  ==> Input File <==

--------------------------------------------------------------------------
MEMORY 60 GB

molecule dimer {
0 1
Gh(K)      0.000000     0.000000     0.000000
Gh(O)      0.118696    -2.770459     0.076879
Gh(H)     -0.333969    -3.135341     0.830822
Gh(H)      0.982084    -3.221411     0.111931
Gh(O)      1.379726    -1.154328    -2.080253
Gh(H)      2.056706    -1.833961    -2.058727
Gh(H)      1.169543    -1.009891    -3.018870
Gh(O)      2.724284     0.265425     0.841619
Gh(H)      3.242030     1.067792     0.900161
Gh(H)      2.990826    -0.377309     1.498758
Gh(O)     -2.881305     0.223588     0.845452
Gh(H)     -3.728837     0.040709     1.280940
Gh(H)     -2.877352     1.133782     1.077537
Gh(O)      0.197582     1.855176     2.126719
Gh(H)     -0.684460     2.355019     2.158041
Gh(H)      0.495535     1.708267     3.013621
O         -1.133798     2.421734    -1.164227
H         -0.805925     2.041723    -2.060813
H         -2.117470     2.513113    -1.178015

units ang
no_reorient
no_com
symmetry c1
}

set {
basis        aug-cc-pVTZ
scf_type     df
}

energy("mp2")
--------------------------------------------------------------------------

    Molecular point group: c1

    Geometry (in Angstrom), charge = 0, multiplicity = 1:

       Center              X                  Y                   Z               Mass
    ------------   -----------------  -----------------  -----------------  -----------------
      Gh(K)           0.000000000000     0.000000000000     0.000000000000    38.963706486400
      Gh(O)           0.118696000000    -2.770459000000     0.076879000000    15.994914619570
      Gh(H)          -0.333969000000    -3.135341000000     0.830822000000     1.007825032230
      Gh(H)           0.982084000000    -3.221411000000     0.111931000000     1.007825032230
      Gh(O)           1.379726000000    -1.154328000000    -2.080253000000    15.994914619570
      Gh(H)           2.056706000000    -1.833961000000    -2.058727000000     1.007825032230
      Gh(H)           1.169543000000    -1.009891000000    -3.018870000000     1.007825032230
      Gh(O)           2.724284000000     0.265425000000     0.841619000000    15.994914619570
      Gh(H)           3.242030000000     1.067792000000     0.900161000000     1.007825032230
      Gh(H)           2.990826000000    -0.377309000000     1.498758000000     1.007825032230
      Gh(O)          -2.881305000000     0.223588000000     0.845452000000    15.994914619570
      Gh(H)          -3.728837000000     0.040709000000     1.280940000000     1.007825032230
      Gh(H)          -2.877352000000     1.133782000000     1.077537000000     1.007825032230
      Gh(O)           0.197582000000     1.855176000000     2.126719000000    15.994914619570
      Gh(H)          -0.684460000000     2.355019000000     2.158041000000     1.007825032230
      Gh(H)           0.495535000000     1.708267000000     3.013621000000     1.007825032230
         O           -1.133798000000     2.421734000000    -1.164227000000    15.994914619570
         H           -0.805925000000     2.041723000000    -2.060813000000     1.007825032230
         H           -2.117470000000     2.513113000000    -1.178015000000     1.007825032230

  Charge       = 0
  Multiplicity = 1
  Basis Set: AUG-CC-PVTZ
    Blend: AUG-CC-PVTZ
  Basis Set: (AUG-CC-PVTZ AUX)
    Blend: AUG-CC-PVTZ-JKFIT + DEF2-UNIVERSAL-JKFIT

    Orbital Energies [Eh]
    ---------------------

    Doubly Occupied:

       1A    -20.572895     2A     -1.325892     3A     -0.700099
       4A     -0.564945     5A     -0.504700

  @DF-RHF Final Energy:   -76.05147639844310

   => Energetics <=

    Nuclear Repulsion Energy =              8.7256587651815689
    One-Electron Energy =                -122.2172034460212160
    Two-Electron Energy =                  37.4400682823965596
    Total Energy =                        -76.0514763984430999
 Dipole X            :         22.2309302          -22.6649575           -0.4340273
 Dipole Y            :        -45.4060130           45.2187047           -0.1873083
 Dipole Z            :         23.1276142          -23.7210593           -0.5934451
 Magnitude           :                                                    0.7587103
  Basis Set: (AUG-CC-PVTZ AUX)
    Blend: AUG-CC-PVTZ-RI + DEF2-QZVPP-RI
	 Reference Energy          =     -76.0514763984430999 [Eh]
	 Singles Energy            =      -0.0000000000000000 [Eh]
	 Same-Spin Energy          =      -0.0691825423324623 [Eh]
	 Opposite-Spin Energy      =      -0.2180796664419147 [Eh]
	 Correlation Energy        =      -0.2872622087743770 [Eh]
	 Total Energy              =     -76.3387386072174792 [Eh]

	 ================> DF-SCS-MP2 Energies <==================
	-----------------------------------------------------------
	 SCS Same-Spin Scale       =       0.3333333333333333 [-]
	 SCS Opposite-Spin Scale   =       1.2000000000000000 [-]
	 SCS Same-Spin Energy      =      -0.0230608474441541 [Eh]
	 SCS Opposite-Spin Energy  =      -0.2616955997302977 [Eh]
	 SCS Correlation Energy    =      -0.2847564471744518 [Eh]
	 SCS Total Energy          =     -76.3362328456175447 [Eh]
	-----------------------------------------------------------

*** Psi4 exiting successfully. Buy a developer a beer!
