                               Psi4 1.9 release

  ==> Input File <==

--------------------------------------------------------------------------
MEMORY 60 GB

molecule dimer {
0 1
Gh(K)      0.000000     0.000000     0.000000
Gh(O)      2.272527     0.834421     1.230172
Gh(H)      3.156809     0.859433     1.570041
Gh(H)      1.902975     1.732978     1.301596
O          0.185748     2.476480    -0.876487
H          0.842743     2.672524    -1.589365
H         -0.626338     3.014926    -1.032709
Gh(O)     -2.131224    -1.837640     0.690354
Gh(H)     -1.873645    -2.481649     0.070656
Gh(H)     -3.071086    -1.700625     0.593753
Gh(O)     -0.751067    -0.447311    -2.432427
Gh(H)     -0.567099     0.174959    -3.128552
Gh(H)     -1.309564    -1.096906    -2.897071
Gh(O)     -0.308389    -1.371161     2.595177
Gh(H)     -1.066393    -1.718449     2.157600
Gh(H)     -0.406916    -1.685150     3.506362

units ang
no_reorient
no_com
symmetry c1
}

set {
basis        aug-cc-pVTZ
scf_type     df
}

energy("mp2")
--------------------------------------------------------------------------

    Molecular point group: c1

    Geometry (in Angstrom), charge = 0, multiplicity = 1:

       Center              X                  Y                   Z               Mass
    ------------   -----------------  -----------------  -----------------  -----------------
      Gh(K)           0.000000000000     0.000000000000     0.000000000000    38.963706486400
      Gh(O)           2.272527000000     0.834421000000     1.230172000000    15.994914619570
      Gh(H)           3.156809000000     0.859433000000     1.570041000000     1.007825032230
      Gh(H)           1.902975000000     1.732978000000     1.301596000000     1.007825032230
         O            0.185748000000     2.476480000000    -0.876487000000    15.994914619570
         H            0.842743000000     2.672524000000    -1.589365000000     1.007825032230
         H           -0.626338000000     3.014926000000    -1.032709000000     1.007825032230
      Gh(O)          -2.131224000000    -1.837640000000     0.690354000000    15.994914619570
      Gh(H)          -1.873645000000    -2.481649000000     0.070656000000     1.007825032230
      Gh(H)          -3.071086000000    -1.700625000000     0.593753000000     1.007825032230
      Gh(O)          -0.751067000000    -0.447311000000    -2.432427000000    15.994914619570
      Gh(H)          -0.567099000000     0.174959000000    -3.128552000000     1.007825032230
      Gh(H)          -1.309564000000    -1.096906000000    -2.897071000000     1.007825032230
      Gh(O)          -0.308389000000    -1.371161000000     2.595177000000    15.994914619570
      Gh(H)          -1.066393000000    -1.718449000000     2.157600000000     1.007825032230
      Gh(H)          -0.406916000000    -1.685150000000     3.506362000000     1.007825032230

  Charge       = 0
  Multiplicity = 1
  Basis Set: AUG-CC-PVTZ
    Blend: AUG-CC-PVTZ
  Basis Set: (AUG-CC-PVTZ AUX)
    Blend: AUG-CC-PVTZ-JKFIT + DEF2-UNIVERSAL-JKFIT

    Orbital Energies [Eh]
    ---------------------

    Doubly Occupied:

       1A    -20.570274     2A     -1.335298     3A     -0.709063
       4A     -0.570551     5A     -0.506487

  @DF-RHF Final Energy:   -76.05648038503266

   => Energetics <=

    Nuclear Repulsion Energy =              8.8992496054228489
    One-Electron Energy =                -122.5281079091868861
    Two-Electron Energy =                  37.5723779187313767
    Total Energy =                        -76.0564803850326570
 Dipole X            :         -3.3198158            3.2170490           -0.1027668
 Dipole Y            :        -47.7007903           48.1866745            0.4858842
 Dipole Z            :         17.6311530          -18.2055648           -0.5744118
 Magnitude           :                                                    0.7593374
  Basis Set: (AUG-CC-PVTZ AUX)
    Blend: AUG-CC-PVTZ-RI + DEF2-QZVPP-RI
	 Reference Energy          =     -76.0564803850326570 [Eh]
	 Singles Energy            =      -0.0000000000000000 [Eh]
	 Same-Spin Energy          =      -0.0688545507702888 [Eh]
	 Opposite-Spin Energy      =      -0.2169910009545374 [Eh]
	 Correlation Energy        =      -0.2858455517248263 [Eh]
	 Total Energy              =     -76.3423259367574900 [Eh]

	 ================> DF-SCS-MP2 Energies <==================
	-----------------------------------------------------------
	 SCS Same-Spin Scale       =       0.3333333333333333 [-]
	 SCS Opposite-Spin Scale   =       1.2000000000000000 [-]
	 SCS Same-Spin Energy      =      -0.0229515169234296 [Eh]
	 SCS Opposite-Spin Energy  =      -0.2603892011454449 [Eh]
	 SCS Correlation Energy    =      -0.2833407180688745 [Eh]
	 SCS Total Energy          =     -76.3398211031015279 [Eh]
	-----------------------------------------------------------

*** Psi4 exiting successfully. Buy a developer a beer!
