                               Psi4 1.9 release

  ==> Input File <==

--------------------------------------------------------------------------
MEMORY 60 GB

molecule dimer {
1 1
K          0.000000     0.000000     0.000000
Gh(O)      0.118696    -2.770459     0.076879
Gh(H)     -0.333969    -3.135341     0.830822
Gh(H)      0.982084    -3.221411     0.111931
Gh(O)      1.379726    -1.154328    -2.080253
Gh(H)      2.056706    -1.833961    -2.058727
Gh(H)      1.169543    -1.009891    -3.018870
Gh(O)      2.724284     0.265425     0.841619
Gh(H)      3.242030     1.067792     0.900161
Gh(H)      2.990826    -0.377309     1.498758
Gh(O)     -2.881305     0.223588     0.845452
Gh(H)     -3.728837     0.040709     1.280940
Gh(H)     -2.877352     1.133782     1.077537
Gh(O)      0.197582     1.855176     2.126719
Gh(H)     -0.684460     2.355019     2.158041
Gh(H)      0.495535     1.708267     3.013621
Gh(O)     -1.133798     2.421734    -1.164227
Gh(H)     -0.805925     2.041723    -2.060813
Gh(H)     -2.117470     2.513113    -1.178015

units ang
no_reorient
no_com
symmetry c1
}

set {
basis        aug-cc-pVTZ
scf_type     df
}

energy("mp2")
--------------------------------------------------------------------------

    Molecular point group: c1

    Geometry (in Angstrom), charge = 1, multiplicity = 1:

       Center              X                  Y                   Z               Mass
    ------------   -----------------  -----------------  -----------------  -----------------
         K            0.000000000000     0.000000000000     0.000000000000    38.963706486400
      Gh(O)           0.118696000000    -2.770459000000     0.076879000000    15.994914619570
      Gh(H)          -0.333969000000    -3.135341000000     0.830822000000     1.007825032230
      Gh(H)           0.982084000000    -3.221411000000     0.111931000000     1.007825032230
      Gh(O)           1.379726000000    -1.154328000000    -2.080253000000    15.994914619570
      Gh(H)           2.056706000000    -1.833961000000    -2.058727000000     1.007825032230
      Gh(H)           1.169543000000    -1.009891000000    -3.018870000000     1.007825032230
      Gh(O)           2.724284000000     0.265425000000     0.841619000000    15.994914619570
      Gh(H)           3.242030000000     1.067792000000     0.900161000000     1.007825032230
      Gh(H)           2.990826000000    -0.377309000000     1.498758000000     1.007825032230
      Gh(O)          -2.881305000000     0.223588000000     0.845452000000    15.994914619570
      Gh(H)          -3.728837000000     0.040709000000     1.280940000000     1.007825032230
      Gh(H)          -2.877352000000     1.133782000000     1.077537000000     1.007825032230
      Gh(O)           0.197582000000     1.855176000000     2.126719000000    15.994914619570
      Gh(H)          -0.684460000000     2.355019000000     2.158041000000     1.007825032230
      Gh(H)           0.495535000000     1.708267000000     3.013621000000     1.007825032230
      Gh(O)          -1.133798000000     2.421734000000    -1.164227000000    15.994914619570
      Gh(H)          -0.805925000000     2.041723000000    -2.060813000000     1.007825032230
      Gh(H)          -2.117470000000     2.513113000000    -1.178015000000     1.007825032230

  Charge       = 1
  Multiplicity = 1
  Basis Set: AUG-CC-PVTZ
    Blend: AUG-CC-PVTZ
  Basis Set: (AUG-CC-PVTZ AUX)
    Blend: AUG-CC-PVTZ-JKFIT + DEF2-UNIVERSAL-JKFIT

    Orbital Energies [Eh]
    ---------------------

    Doubly Occupied:

       1A   -133.752550     2A    -14.708238     3A    -11.738299
       4A    -11.738297     5A    -11.738297     6A     -1.963902
       7A     -1.170617     8A     -1.170592     9A     -1.170586

  @DF-RHF Final Energy:  -599.01751655365058

   => Energetics <=

    Nuclear Repulsion Energy =              0.0000000000000000
    One-Electron Energy =                -819.7322784328864600
    Two-Electron Energy =                 220.7147618792359367
    Total Energy =                       -599.0175165536504664
 Dipole X            :          0.0000263            0.0000000            0.0000263
 Dipole Y            :          0.0000300            0.0000000            0.0000300
 Dipole Z            :          0.0000086            0.0000000            0.0000086
 Magnitude           :                                                    0.0000408
  Basis Set: (AUG-CC-PVTZ AUX)
    Blend: AUG-CC-PVTZ-RI + DEF2-QZVPP-RI
	 Reference Energy          =    -599.0175165536505801 [Eh]
	 Singles Energy            =      -0.0000000000000000 [Eh]
	 Same-Spin Energy          =      -0.0375161846184253 [Eh]
	 Opposite-Spin Energy      =      -0.0914716252695395 [Eh]
	 Correlation Energy        =      -0.1289878098879648 [Eh]
	 Total Energy              =    -599.1465043635384973 [Eh]

	 ================> DF-SCS-MP2 Energies <==================
	-----------------------------------------------------------
	 SCS Same-Spin Scale       =       0.3333333333333333 [-]
	 SCS Opposite-Spin Scale   =       1.2000000000000000 [-]
	 SCS Same-Spin Energy      =      -0.0125053948728084 [Eh]
	 SCS Opposite-Spin Energy  =      -0.1097659503234474 [Eh]
	 SCS Correlation Energy    =      -0.1222713451962558 [Eh]
	 SCS Total Energy          =    -599.1397878988468619 [Eh]
	-----------------------------------------------------------

*** Psi4 exiting successfully. Buy a developer a beer!
