                               Psi4 1.9 release

  ==> Input File <==

--------------------------------------------------------------------------
MEMORY 60 GB

molecule dimer {
0 1
Gh(K)      0.000000     0.000000     0.000000
Gh(O)      0.612876    -1.115935    -2.349051
Gh(H)      0.426290    -1.552454    -3.196404
Gh(H)      1.249709    -1.726035    -1.997265
Gh(O)      0.226950    -1.309350     2.562510
Gh(H)      0.264022    -0.641943     3.257966
Gh(H)      1.068749    -1.730800     2.570162
Gh(O)     -2.056105     0.919747    -1.186773
Gh(H)     -2.198049     0.297455    -1.925318
Gh(H)     -2.809767     1.060828    -0.585807
Gh(O)     -1.976233    -2.079701    -0.110673
Gh(H)     -1.733104    -3.050987    -0.116702
Gh(H)     -2.703697    -1.948167    -0.750612
Gh(O)      1.852186     1.592652     1.468527
Gh(H)      2.464721     2.245763     1.040167
Gh(H)      1.990939     1.633926     2.445297
O          2.746451    -1.160995     0.084226
H          3.055897    -0.685917    -0.671043
H          3.443294    -1.731569     0.452839

units ang
no_reorient
no_com
symmetry c1
}

set {
basis        aug-cc-pVTZ
scf_type     df
}

energy("mp2")
--------------------------------------------------------------------------

    Molecular point group: c1

    Geometry (in Angstrom), charge = 0, multiplicity = 1:

       Center              X                  Y                   Z               Mass
    ------------   -----------------  -----------------  -----------------  -----------------
      Gh(K)           0.000000000000     0.000000000000     0.000000000000    38.963706486400
      Gh(O)           0.612876000000    -1.115935000000    -2.349051000000    15.994914619570
      Gh(H)           0.426290000000    -1.552454000000    -3.196404000000     1.007825032230
      Gh(H)           1.249709000000    -1.726035000000    -1.997265000000     1.007825032230
      Gh(O)           0.226950000000    -1.309350000000     2.562510000000    15.994914619570
      Gh(H)           0.264022000000    -0.641943000000     3.257966000000     1.007825032230
      Gh(H)           1.068749000000    -1.730800000000     2.570162000000     1.007825032230
      Gh(O)          -2.056105000000     0.919747000000    -1.186773000000    15.994914619570
      Gh(H)          -2.198049000000     0.297455000000    -1.925318000000     1.007825032230
      Gh(H)          -2.809767000000     1.060828000000    -0.585807000000     1.007825032230
      Gh(O)          -1.976233000000    -2.079701000000    -0.110673000000    15.994914619570
      Gh(H)          -1.733104000000    -3.050987000000    -0.116702000000     1.007825032230
      Gh(H)          -2.703697000000    -1.948167000000    -0.750612000000     1.007825032230
      Gh(O)           1.852186000000     1.592652000000     1.468527000000    15.994914619570
      Gh(H)           2.464721000000     2.245763000000     1.040167000000     1.007825032230
      Gh(H)           1.990939000000     1.633926000000     2.445297000000     1.007825032230
         O            2.746451000000    -1.160995000000     0.084226000000    15.994914619570
         H            3.055897000000    -0.685917000000    -0.671043000000     1.007825032230
         H            3.443294000000    -1.731569000000     0.452839000000     1.007825032230

  Charge       = 0
  Multiplicity = 1
  Basis Set: AUG-CC-PVTZ
    Blend: AUG-CC-PVTZ
  Basis Set: (AUG-CC-PVTZ AUX)
    Blend: AUG-CC-PVTZ-JKFIT + DEF2-UNIVERSAL-JKFIT

    Orbital Energies [Eh]
    ---------------------

    Doubly Occupied:

       1A    -20.564150     2A     -1.348191     3A     -0.729500
       4A     -0.571384     5A     -0.508159

  @DF-RHF Final Energy:   -76.05942593303347

   => Energetics <=

    Nuclear Repulsion Energy =              9.1671277876419417
    One-Electron Energy =                -123.0103362172096126
    Two-Electron Energy =                  37.7837824965342008
    Total Energy =                        -76.0594259330334665
 Dipole X            :        -53.1197849           53.8020127            0.6822277
 Dipole Y            :         22.0577656          -22.1200871           -0.0623215
 Dipole Z            :         -1.1262815            0.8609668           -0.2653147
 Magnitude           :                                                    0.7346500
  Basis Set: (AUG-CC-PVTZ AUX)
    Blend: AUG-CC-PVTZ-RI + DEF2-QZVPP-RI
	 Reference Energy          =     -76.0594259330334665 [Eh]
	 Singles Energy            =      -0.0000000000000000 [Eh]
	 Same-Spin Energy          =      -0.0683491402019255 [Eh]
	 Opposite-Spin Energy      =      -0.2154844283572443 [Eh]
	 Correlation Energy        =      -0.2838335685591697 [Eh]
	 Total Energy              =     -76.3432595015926410 [Eh]

	 ================> DF-SCS-MP2 Energies <==================
	-----------------------------------------------------------
	 SCS Same-Spin Scale       =       0.3333333333333333 [-]
	 SCS Opposite-Spin Scale   =       1.2000000000000000 [-]
	 SCS Same-Spin Energy      =      -0.0227830467339752 [Eh]
	 SCS Opposite-Spin Energy  =      -0.2585813140286932 [Eh]
	 SCS Correlation Energy    =      -0.2813643607626683 [Eh]
	 SCS Total Energy          =     -76.3407902937961325 [Eh]
	-----------------------------------------------------------

*** Psi4 exiting successfully. Buy a developer a beer!
