                               Psi4 1.9 release

  ==> Input File <==

--------------------------------------------------------------------------
MEMORY 60 GB

molecule dimer {
1 1
K      0.000000     0.000000     0.000000
--
0 1
O     -1.914219     0.381099     2.047352
H     -1.320578     0.674184     2.686368
H     -2.321467    -0.319664     2.513747
O      0.428472     2.036835    -1.419653
H     -0.185122     2.755299    -1.648266
H      0.372818     1.517892    -2.257890
O      0.770031     1.249993     2.200665
H      1.009133     2.175197     2.337599
H      1.515479     0.726860     2.473995
O     -2.260178    -0.231462    -1.572764
H     -2.803882    -0.985370    -1.417875
H     -2.627539     0.547665    -1.165198
O      2.290299    -1.266372     0.334224
H      3.155079    -0.865329     0.373528
H      2.386314    -2.179876     0.539797
O     -1.344210    -2.412788     0.379287
H     -2.112438    -2.800330    -0.114885
H     -1.698340    -2.036621     1.151405

units ang
no_reorient
no_com
symmetry c1
}

set {
basis        aug-cc-pVTZ
scf_type     df
}

energy("mp2", bsse_type="cp")
--------------------------------------------------------------------------

                               Psi4 1.9 release
    Molecular point group: c1
  Charge       = 0
  Multiplicity = 1
  Basis Set: AUG-CC-PVTZ
    Blend: AUG-CC-PVTZ
  Basis Set: (AUG-CC-PVTZ AUX)
    Blend: AUG-CC-PVTZ-JKFIT + DEF2-UNIVERSAL-JKFIT
  @DF-RHF Final Energy:  -456.34296660842193
    Total Energy =                       -456.3429666084219321
 Dipole X            :         39.2875580          -39.4366624           -0.1491044
 Dipole Y            :          5.0300857           -5.1620760           -0.1319904
 Dipole Z            :        -39.0937925           40.1098395            1.0160470
 Magnitude           :                                                    1.0353768
  Basis Set: (AUG-CC-PVTZ AUX)
    Blend: AUG-CC-PVTZ-RI + DEF2-QZVPP-RI
	 Reference Energy          =    -456.3429666084219321 [Eh]
	 Singles Energy            =      -0.0000000000000000 [Eh]
	 Same-Spin Energy          =      -0.4139108539419189 [Eh]
	 Opposite-Spin Energy      =      -1.2978216436802725 [Eh]
	 Correlation Energy        =      -1.7117324976221915 [Eh]
	 Total Energy              =    -458.0546991060440973 [Eh]
	 SCS Total Energy          =    -458.0383228654855543 [Eh]
                               Psi4 1.9 release
    Molecular point group: c1
  Multiplicity = 1
  Basis Set: AUG-CC-PVTZ
    Blend: AUG-CC-PVTZ
  Basis Set: (AUG-CC-PVTZ AUX)
    Blend: AUG-CC-PVTZ-JKFIT + DEF2-UNIVERSAL-JKFIT
  @DF-RHF Final Energy:  -599.01751738352539
    Total Energy =                       -599.0175173835252735
  Basis Set: (AUG-CC-PVTZ AUX)
	 Singles Energy            =      -0.0000000000000000 [Eh]
	 Same-Spin Energy          =      -0.0395933241978356 [Eh]
	 Opposite-Spin Energy      =      -0.0973898051866887 [Eh]
	 Correlation Energy        =      -0.1369831293845243 [Eh]
	 Total Energy              =    -599.1545005129098627 [Eh]
	 SCS Total Energy          =    -599.1475829244819806 [Eh]
                               Psi4 1.9 release
    Molecular point group: c1

    Geometry (in Bohr), charge = 1, multiplicity = 1:

       Center              X                  Y                   Z               Mass
    ------------   -----------------  -----------------  -----------------  -----------------
         K            0.000000000000     0.000000000000     0.000000000000    38.963706486400
         O           -3.617349654148     0.720172736686     3.868934562408    15.994914619570
         H           -2.495530747305     1.274023118166     5.076499792194     1.007825032230
         H           -4.386936839288    -0.604077412168     4.750293378691     1.007825032230
         O            0.809694732427     3.849060312747    -2.682755363185    15.994914619570
         H           -0.349829879797     5.206760503748    -3.114771321904     1.007825032230
         H            0.704523914641     2.868400168023    -4.266793721410     1.007825032230
         O            1.455147698112     2.362144428739     4.158654143881    15.994914619570
         H            1.906984994162     4.110526598917     4.417421901144     1.007825032230
         H            2.863840258883     1.373566331550     4.675172985752     1.007825032230
         O           -4.271117414785    -0.437399788451    -2.972093219980    15.994914619570
         H           -5.298569068101    -1.862079432242    -2.679395430134     1.007825032230
         H           -4.965329093959     1.034936858499    -2.201905101931     1.007825032230
         O            4.328037855410    -2.393096252948     0.631591824555    15.994914619570
         H            5.962235214183    -1.635234818416     0.705865620190     1.007825032230
         H            4.509479909346    -4.119368627459     1.020068493344     1.007825032230
         O           -2.540188755102    -4.559508518791     0.716748552947    15.994914619570
         H           -3.991929277010    -5.291856760903    -0.217101185923     1.007825032230
         H           -3.209397467910    -3.848655911356     2.175840109483     1.007825032230

  Charge       = 1
  Multiplicity = 1
  Basis Set: AUG-CC-PVTZ
    Blend: AUG-CC-PVTZ
  Basis Set: (AUG-CC-PVTZ AUX)
    Blend: AUG-CC-PVTZ-JKFIT + DEF2-UNIVERSAL-JKFIT

    Orbital Energies [Eh]
    ---------------------

    Doubly Occupied:

       1A   -133.573897     2A    -20.716359     3A    -20.714940
       4A    -20.709377     5A    -20.706189     6A    -20.699584
       7A    -20.698112     8A    -14.532909     9A    -11.562683
      10A    -11.562609    11A    -11.562547    12A     -1.800007
      13A     -1.514986    14A     -1.506114    15A     -1.504907
      16A     -1.496675    17A     -1.494798    18A     -1.491806
      19A     -1.014503    20A     -1.011784    21A     -1.010447
      22A     -0.877765    23A     -0.876621    24A     -0.874899
      25A     -0.869403    26A     -0.857413    27A     -0.840428
      28A     -0.745517    29A     -0.742688    30A     -0.739935
      31A     -0.736342    32A     -0.726892    33A     -0.714807
      34A     -0.668822    35A     -0.666077    36A     -0.660142
      37A     -0.658434    38A     -0.653472    39A     -0.639464

  @DF-RHF Final Energy: -1055.45806637446753

   => Energetics <=

    Nuclear Repulsion Energy =            470.9383857973361955
    One-Electron Energy =               -2383.9241896186717895
    Two-Electron Energy =                 857.5277374468681728
    Total Energy =                      -1055.4580663744673075
 Dipole X            :         39.1502262          -39.4366624           -0.2864361
 Dipole Y            :          5.0552015           -5.1620760           -0.1068745
 Dipole Z            :        -38.9463368           40.1098395            1.1635027
 Magnitude           :                                                    1.2029989
  Basis Set: (AUG-CC-PVTZ AUX)
    Blend: AUG-CC-PVTZ-RI + DEF2-QZVPP-RI
	 Reference Energy          =   -1055.4580663744675348 [Eh]
	 Singles Energy            =      -0.0000000000000000 [Eh]
	 Same-Spin Energy          =      -0.4580865426910255 [Eh]
	 Opposite-Spin Energy      =      -1.3952803346481144 [Eh]
	 Correlation Energy        =      -1.8533668773391399 [Eh]
	 Total Energy              =   -1057.3114332518066476 [Eh]

	 ================> DF-SCS-MP2 Energies <==================
	-----------------------------------------------------------
	 SCS Same-Spin Scale       =       0.3333333333333333 [-]
	 SCS Opposite-Spin Scale   =       1.2000000000000000 [-]
	 SCS Same-Spin Energy      =      -0.1526955142303418 [Eh]
	 SCS Opposite-Spin Energy  =      -1.6743364015777373 [Eh]
	 SCS Correlation Energy    =      -1.8270319158080792 [Eh]
	 SCS Total Energy          =   -1057.2850982902755277 [Eh]
	-----------------------------------------------------------

*** Psi4 exiting successfully. Buy a developer a beer!
