                               Psi4 1.9 release

  ==> Input File <==

--------------------------------------------------------------------------
MEMORY 60 GB

molecule dimer {
1 1
K      0.000000     0.000000     0.000000
--
0 1
O      2.447443     0.085993    -0.685068
H      2.680985    -0.837747    -0.449500
H      2.829525     0.251364    -1.547070
O     -0.233139     0.163157    -2.500787
H     -0.170321     1.052496    -2.894868
H     -0.081279    -0.518299    -3.176040
O      0.572340    -2.370612     0.170271
H      1.401491    -2.685494    -0.138462
H      0.365707    -2.920483     0.932021
O     -1.422337    -0.715469     2.174589
H     -1.861433     0.134559     2.211240
H     -0.761789    -0.679178     2.924485
O     -0.712298     2.966230    -0.259699
H     -1.087339     3.581553    -0.884928
H      0.231785     2.928736    -0.444753

units ang
no_reorient
no_com
symmetry c1
}

set {
basis        aug-cc-pVTZ
scf_type     df
}

energy("mp2", bsse_type="cp")
--------------------------------------------------------------------------

                               Psi4 1.9 release
    Molecular point group: c1
  Charge       = 0
  Multiplicity = 1
  Basis Set: AUG-CC-PVTZ
    Blend: AUG-CC-PVTZ
  Basis Set: (AUG-CC-PVTZ AUX)
    Blend: AUG-CC-PVTZ-JKFIT + DEF2-UNIVERSAL-JKFIT
  @DF-RHF Final Energy:  -380.28270047442851
    Total Energy =                       -380.2827004744285091
 Dipole X            :        -15.2133472           16.5604335            1.3470863
 Dipole Y            :         -2.4905488            2.5358216            0.0452728
 Dipole Z            :         22.3776330          -23.1934157           -0.8157827
 Magnitude           :                                                    1.5754976
  Basis Set: (AUG-CC-PVTZ AUX)
    Blend: AUG-CC-PVTZ-RI + DEF2-QZVPP-RI
	 Reference Energy          =    -380.2827004744285091 [Eh]
	 Singles Energy            =      -0.0000000000000000 [Eh]
	 Same-Spin Energy          =      -0.3447740556125671 [Eh]
	 Opposite-Spin Energy      =      -1.0828460910666222 [Eh]
	 Correlation Energy        =      -1.4276201466791894 [Eh]
	 Total Energy              =    -381.7103206211077122 [Eh]
	 SCS Total Energy          =    -381.6970404689126326 [Eh]
                               Psi4 1.9 release
    Molecular point group: c1
  Multiplicity = 1
  Basis Set: AUG-CC-PVTZ
    Blend: AUG-CC-PVTZ
  Basis Set: (AUG-CC-PVTZ AUX)
    Blend: AUG-CC-PVTZ-JKFIT + DEF2-UNIVERSAL-JKFIT
  @DF-RHF Final Energy:  -599.01751664342669
    Total Energy =                       -599.0175166434266885
  Basis Set: (AUG-CC-PVTZ AUX)
	 Singles Energy            =      -0.0000000000000000 [Eh]
	 Same-Spin Energy          =      -0.0389321778863750 [Eh]
	 Opposite-Spin Energy      =      -0.0956774001628537 [Eh]
	 Correlation Energy        =      -0.1346095780492287 [Eh]
	 Total Energy              =    -599.1521262214758963 [Eh]
	 SCS Total Energy          =    -599.1453069162508882 [Eh]
                               Psi4 1.9 release
    Molecular point group: c1

    Geometry (in Bohr), charge = 1, multiplicity = 1:

       Center              X                  Y                   Z               Mass
    ------------   -----------------  -----------------  -----------------  -----------------
         K            0.000000000000     0.000000000000     0.000000000000    38.963706486400
         O            4.624996977669     0.162503218706    -1.294590897315    15.994914619570
         H            5.066327396461    -1.583112392424    -0.849431893393     1.007825032230
         H            5.347027315136     0.475009117800    -2.923538596912     1.007825032230
         O           -0.440568859163     0.308322045451    -4.725802528105    15.994914619570
         H           -0.321860043414     1.988929188140    -5.470507689352     1.007825032230
         H           -0.153595049751    -0.979443161099    -6.001845763499     1.007825032230
         O            1.081565850645    -4.479807429724     0.321765557108    15.994914619570
         H            2.648434157294    -5.074848171560    -0.261655258783     1.007825032230
         H            0.691086072163    -5.518913024055     1.761264433175     1.007825032230
         O           -2.687827388105    -1.352040461255     4.109377645433    15.994914619570
         H           -3.517598570889     0.254279657715     4.178637997657     1.007825032230
         H           -1.439572575386    -1.283460410436     5.526475708010     1.007825032230
         O           -1.346048139711     5.605362325117    -0.490759985055    15.994914619570
         H           -2.054772915529     6.768154273812    -1.672271560749     1.007825032230
         H            0.438010169989     5.534508933769    -0.840461363476     1.007825032230

  Charge       = 1
  Multiplicity = 1
  Basis Set: AUG-CC-PVTZ
    Blend: AUG-CC-PVTZ
  Basis Set: (AUG-CC-PVTZ AUX)
    Blend: AUG-CC-PVTZ-JKFIT + DEF2-UNIVERSAL-JKFIT

    Orbital Energies [Eh]
    ---------------------

    Doubly Occupied:

       1A   -133.586287     2A    -20.726264     3A    -20.726217
       4A    -20.719030     5A    -20.714283     6A    -20.705047
       7A    -14.545743     8A    -11.575458     9A    -11.575405
      10A    -11.575304    11A     -1.814377    12A     -1.524796
      13A     -1.510360    14A     -1.499710    15A     -1.491421
      16A     -1.491417    17A     -1.028885    18A     -1.026584
      19A     -1.026275    20A     -0.891325    21A     -0.875804
      22A     -0.874250    23A     -0.860641    24A     -0.851143
      25A     -0.756685    26A     -0.746878    27A     -0.734701
      28A     -0.729640    29A     -0.722790    30A     -0.681421
      31A     -0.676954    32A     -0.660497    33A     -0.657571
      34A     -0.650368

  @DF-RHF Final Energy:  -979.37981628021544

   => Energetics <=

    Nuclear Repulsion Energy =            360.1296096632916601
    One-Electron Energy =               -2058.5517797643365157
    Two-Electron Energy =                 719.0423538208294758
    Total Energy =                       -979.3798162802154366
 Dipole X            :        -15.0515883           16.5604335            1.5088452
 Dipole Y            :         -2.6361665            2.5358216           -0.1003449
 Dipole Z            :         22.1835045          -23.1934157           -1.0099112
 Magnitude           :                                                    1.8184069
  Basis Set: (AUG-CC-PVTZ AUX)
    Blend: AUG-CC-PVTZ-RI + DEF2-QZVPP-RI
	 Reference Energy          =    -979.3798162802154366 [Eh]
	 Singles Energy            =      -0.0000000000000000 [Eh]
	 Same-Spin Energy          =      -0.3882057637932579 [Eh]
	 Opposite-Spin Energy      =      -1.1787398986971740 [Eh]
	 Correlation Energy        =      -1.5669456624904319 [Eh]
	 Total Energy              =    -980.9467619427058480 [Eh]

	 ================> DF-SCS-MP2 Energies <==================
	-----------------------------------------------------------
	 SCS Same-Spin Scale       =       0.3333333333333333 [-]
	 SCS Opposite-Spin Scale   =       1.2000000000000000 [-]
	 SCS Same-Spin Energy      =      -0.1294019212644193 [Eh]
	 SCS Opposite-Spin Energy  =      -1.4144878784366088 [Eh]
	 SCS Correlation Energy    =      -1.5438897997010281 [Eh]
	 SCS Total Energy          =    -980.9237060799164283 [Eh]
	-----------------------------------------------------------

*** Psi4 exiting successfully. Buy a developer a beer!
