                               Psi4 1.9 release

  ==> Input File <==

--------------------------------------------------------------------------
MEMORY 60 GB

molecule dimer {
0 1
Gh(K)      0.000000     0.000000     0.000000
Gh(O)      2.433312    -0.711261    -0.876073
Gh(H)      3.025721     0.045558    -0.738606
Gh(H)      2.646594    -0.978885    -1.800154
Gh(O)      0.729442     2.374627     0.909651
Gh(H)      1.436876     2.682600     1.537697
Gh(H)      0.607664     3.130167     0.287856
Gh(O)     -0.423164    -2.596708     0.556853
Gh(H)     -0.086692    -3.420156     0.268816
Gh(H)     -0.158458    -2.540686     1.533756
O         -2.766398    -1.080563     0.470208
H         -2.207598    -1.857753     0.314154
H         -3.672582    -1.339756     0.204091
Gh(O)     -0.915396    -1.287261    -2.285458
Gh(H)     -1.083095    -2.273539    -2.500910
Gh(H)     -0.460494    -0.980307    -3.123591

units ang
no_reorient
no_com
symmetry c1
}

set {
basis        aug-cc-pVTZ
scf_type     df
}

energy("mp2")
--------------------------------------------------------------------------

    Molecular point group: c1

    Geometry (in Angstrom), charge = 0, multiplicity = 1:

       Center              X                  Y                   Z               Mass
    ------------   -----------------  -----------------  -----------------  -----------------
      Gh(K)           0.000000000000     0.000000000000     0.000000000000    38.963706486400
      Gh(O)           2.433312000000    -0.711261000000    -0.876073000000    15.994914619570
      Gh(H)           3.025721000000     0.045558000000    -0.738606000000     1.007825032230
      Gh(H)           2.646594000000    -0.978885000000    -1.800154000000     1.007825032230
      Gh(O)           0.729442000000     2.374627000000     0.909651000000    15.994914619570
      Gh(H)           1.436876000000     2.682600000000     1.537697000000     1.007825032230
      Gh(H)           0.607664000000     3.130167000000     0.287856000000     1.007825032230
      Gh(O)          -0.423164000000    -2.596708000000     0.556853000000    15.994914619570
      Gh(H)          -0.086692000000    -3.420156000000     0.268816000000     1.007825032230
      Gh(H)          -0.158458000000    -2.540686000000     1.533756000000     1.007825032230
         O           -2.766398000000    -1.080563000000     0.470208000000    15.994914619570
         H           -2.207598000000    -1.857753000000     0.314154000000     1.007825032230
         H           -3.672582000000    -1.339756000000     0.204091000000     1.007825032230
      Gh(O)          -0.915396000000    -1.287261000000    -2.285458000000    15.994914619570
      Gh(H)          -1.083095000000    -2.273539000000    -2.500910000000     1.007825032230
      Gh(H)          -0.460494000000    -0.980307000000    -3.123591000000     1.007825032230

  Charge       = 0
  Multiplicity = 1
  Basis Set: AUG-CC-PVTZ
    Blend: AUG-CC-PVTZ
  Basis Set: (AUG-CC-PVTZ AUX)
    Blend: AUG-CC-PVTZ-JKFIT + DEF2-UNIVERSAL-JKFIT

    Orbital Energies [Eh]
    ---------------------

    Doubly Occupied:

       1A    -20.569432     2A     -1.343661     3A     -0.711310
       4A     -0.578472     5A     -0.508442

  @DF-RHF Final Energy:   -76.05892673705898

   => Energetics <=

    Nuclear Repulsion Energy =              9.0272537485593229
    One-Electron Energy =                -122.7497254258854724
    Two-Electron Energy =                  37.6635449402671725
    Total Energy =                        -76.0589267370589823
 Dipole X            :         52.7055281          -52.9338064           -0.2282783
 Dipole Y            :         21.6920168          -22.3781613           -0.6861445
 Dipole Z            :         -8.3668056            8.0878559           -0.2789497
 Magnitude           :                                                    0.7750602
  Basis Set: (AUG-CC-PVTZ AUX)
    Blend: AUG-CC-PVTZ-RI + DEF2-QZVPP-RI
	 Reference Energy          =     -76.0589267370589823 [Eh]
	 Singles Energy            =      -0.0000000000000000 [Eh]
	 Same-Spin Energy          =      -0.0686776817843270 [Eh]
	 Opposite-Spin Energy      =      -0.2166980258712204 [Eh]
	 Correlation Energy        =      -0.2853757076555474 [Eh]
	 Total Energy              =     -76.3443024447145291 [Eh]

	 ================> DF-SCS-MP2 Energies <==================
	-----------------------------------------------------------
	 SCS Same-Spin Scale       =       0.3333333333333333 [-]
	 SCS Opposite-Spin Scale   =       1.2000000000000000 [-]
	 SCS Same-Spin Energy      =      -0.0228925605947757 [Eh]
	 SCS Opposite-Spin Energy  =      -0.2600376310454645 [Eh]
	 SCS Correlation Energy    =      -0.2829301916402401 [Eh]
	 SCS Total Energy          =     -76.3418569286992295 [Eh]
	-----------------------------------------------------------

*** Psi4 exiting successfully. Buy a developer a beer!
