                               Psi4 1.9 release

  ==> Input File <==

--------------------------------------------------------------------------
MEMORY 60 GB

molecule dimer {
1 1
K          0.000000     0.000000     0.000000
O         -2.854442     0.584840    -0.122179
H         -3.265333    -0.153361     0.306368
H         -3.159443     1.375887     0.435029
O          1.793507     2.390251     0.448386
H          1.484797     2.937877    -0.247414
H          2.760113     2.530882     0.485450
O         -0.012318     1.515708    -2.116487
H         -0.444712     1.661309    -2.931489
H          0.234305     2.352957    -1.751290
O         -0.359420    -0.604796     2.633990
H          0.279877    -0.081645     3.137778
H         -0.226378    -1.549243     2.698047
O          2.595565    -1.054409     0.246960
H          2.113393    -1.851888    -0.056301
H          3.361367    -1.381693     0.744870
O          0.402821    -2.381732    -1.341749
H         -0.585953    -2.453448    -1.264600
H          0.751084    -2.951825    -2.024247

units ang
no_reorient
no_com
symmetry c1
}

set {
basis        aug-cc-pVTZ
scf_type     df
}

energy("mp2")
--------------------------------------------------------------------------

    Molecular point group: c1

    Geometry (in Angstrom), charge = 1, multiplicity = 1:

       Center              X                  Y                   Z               Mass
    ------------   -----------------  -----------------  -----------------  -----------------
         K            0.000000000000     0.000000000000     0.000000000000    38.963706486400
         O           -2.854442000000     0.584840000000    -0.122179000000    15.994914619570
         H           -3.265333000000    -0.153361000000     0.306368000000     1.007825032230
         H           -3.159443000000     1.375887000000     0.435029000000     1.007825032230
         O            1.793507000000     2.390251000000     0.448386000000    15.994914619570
         H            1.484797000000     2.937877000000    -0.247414000000     1.007825032230
         H            2.760113000000     2.530882000000     0.485450000000     1.007825032230
         O           -0.012318000000     1.515708000000    -2.116487000000    15.994914619570
         H           -0.444712000000     1.661309000000    -2.931489000000     1.007825032230
         H            0.234305000000     2.352957000000    -1.751290000000     1.007825032230
         O           -0.359420000000    -0.604796000000     2.633990000000    15.994914619570
         H            0.279877000000    -0.081645000000     3.137778000000     1.007825032230
         H           -0.226378000000    -1.549243000000     2.698047000000     1.007825032230
         O            2.595565000000    -1.054409000000     0.246960000000    15.994914619570
         H            2.113393000000    -1.851888000000    -0.056301000000     1.007825032230
         H            3.361367000000    -1.381693000000     0.744870000000     1.007825032230
         O            0.402821000000    -2.381732000000    -1.341749000000    15.994914619570
         H           -0.585953000000    -2.453448000000    -1.264600000000     1.007825032230
         H            0.751084000000    -2.951825000000    -2.024247000000     1.007825032230

  Charge       = 1
  Multiplicity = 1
  Basis Set: AUG-CC-PVTZ
    Blend: AUG-CC-PVTZ
  Basis Set: (AUG-CC-PVTZ AUX)
    Blend: AUG-CC-PVTZ-JKFIT + DEF2-UNIVERSAL-JKFIT

    Orbital Energies [Eh]
    ---------------------

    Doubly Occupied:

       1A   -133.591860     2A    -20.722225     3A    -20.704199
       4A    -20.703247     5A    -20.702141     6A    -20.697678
       7A    -20.688330     8A    -14.549851     9A    -11.579798
      10A    -11.579604    11A    -11.579587    12A     -1.813353
      13A     -1.505972    14A     -1.500010    15A     -1.487123
      16A     -1.485794    17A     -1.477701    18A     -1.466146
      19A     -1.027089    20A     -1.022959    21A     -1.021511
      22A     -0.883958    23A     -0.880436    24A     -0.873026
      25A     -0.850028    26A     -0.836341    27A     -0.836004
      28A     -0.732857    29A     -0.731911    30A     -0.720235
      31A     -0.719379    32A     -0.711382    33A     -0.703823
      34A     -0.666607    35A     -0.657477    36A     -0.651775
      37A     -0.644956    38A     -0.642891    39A     -0.631062

  @DF-RHF Final Energy: -1055.45513497921002

   => Energetics <=

    Nuclear Repulsion Energy =            451.1516530494446329
    One-Electron Energy =               -2344.6529105015220011
    Two-Electron Energy =                 838.0461224728675234
    Total Energy =                      -1055.4551349792100154
 Dipole X            :        -29.7027376           29.9121366            0.2093990
 Dipole Y            :         -7.9650309            7.6244874           -0.3405435
 Dipole Z            :          4.5664897           -4.6797764           -0.1132867
 Magnitude           :                                                    0.4155137
  Basis Set: (AUG-CC-PVTZ AUX)
    Blend: AUG-CC-PVTZ-RI + DEF2-QZVPP-RI
	 Reference Energy          =   -1055.4551349792100154 [Eh]
	 Singles Energy            =      -0.0000000000000000 [Eh]
	 Same-Spin Energy          =      -0.4562170931293809 [Eh]
	 Opposite-Spin Energy      =      -1.3936578341590198 [Eh]
	 Correlation Energy        =      -1.8498749272884005 [Eh]
	 Total Energy              =   -1057.3050099064985261 [Eh]

	 ================> DF-SCS-MP2 Energies <==================
	-----------------------------------------------------------
	 SCS Same-Spin Scale       =       0.3333333333333333 [-]
	 SCS Opposite-Spin Scale   =       1.2000000000000000 [-]
	 SCS Same-Spin Energy      =      -0.1520723643764603 [Eh]
	 SCS Opposite-Spin Energy  =      -1.6723894009908238 [Eh]
	 SCS Correlation Energy    =      -1.8244617653672841 [Eh]
	 SCS Total Energy          =   -1057.2795967445772476 [Eh]
	-----------------------------------------------------------

*** Psi4 exiting successfully. Buy a developer a beer!
