                               Psi4 1.9 release

  ==> Input File <==

--------------------------------------------------------------------------
MEMORY 60 GB

molecule dimer {
1 1
K          0.000000     0.000000     0.000000
O          1.478006     0.717897    -1.948128
H          1.494997     0.601610    -2.908738
H          2.334047     1.201082    -1.842671
O         -2.661762     0.783294    -0.605565
H         -3.465178     1.092006    -0.190818
H         -2.885772     0.543165    -1.519228
O         -0.002906     2.840525    -0.171305
H         -0.856087     3.028844    -0.630236
H          0.477889     3.665808    -0.151625

units ang
no_reorient
no_com
symmetry c1
}

set {
basis        aug-cc-pVTZ
scf_type     df
}

energy("mp2")
--------------------------------------------------------------------------

    Molecular point group: c1

    Geometry (in Angstrom), charge = 1, multiplicity = 1:

       Center              X                  Y                   Z               Mass
    ------------   -----------------  -----------------  -----------------  -----------------
         K            0.000000000000     0.000000000000     0.000000000000    38.963706486400
         O            1.478006000000     0.717897000000    -1.948128000000    15.994914619570
         H            1.494997000000     0.601610000000    -2.908738000000     1.007825032230
         H            2.334047000000     1.201082000000    -1.842671000000     1.007825032230
         O           -2.661762000000     0.783294000000    -0.605565000000    15.994914619570
         H           -3.465178000000     1.092006000000    -0.190818000000     1.007825032230
         H           -2.885772000000     0.543165000000    -1.519228000000     1.007825032230
         O           -0.002906000000     2.840525000000    -0.171305000000    15.994914619570
         H           -0.856087000000     3.028844000000    -0.630236000000     1.007825032230
         H            0.477889000000     3.665808000000    -0.151625000000     1.007825032230

  Charge       = 1
  Multiplicity = 1
  Basis Set: AUG-CC-PVTZ
    Blend: AUG-CC-PVTZ
  Basis Set: (AUG-CC-PVTZ AUX)
    Blend: AUG-CC-PVTZ-JKFIT + DEF2-UNIVERSAL-JKFIT

    Orbital Energies [Eh]
    ---------------------

    Doubly Occupied:

       1A   -133.647726     2A    -20.730675     3A    -20.726042
       4A    -20.707555     5A    -14.604817     6A    -11.634814
       7A    -11.634699     8A    -11.634659     9A     -1.865235
      10A     -1.510688    11A     -1.510115    12A     -1.487170
      13A     -1.075320    14A     -1.073882    15A     -1.072998
      16A     -0.879813    17A     -0.857161    18A     -0.854743
      19A     -0.765732    20A     -0.748343    21A     -0.728467
      22A     -0.677430    23A     -0.672261    24A     -0.648416

  @DF-RHF Final Energy:  -827.25665298025262

   => Energetics <=

    Nuclear Repulsion Energy =            176.0739018157696023
    One-Electron Energy =               -1483.1635881137049182
    Two-Electron Energy =                 479.8330333176826912
    Total Energy =                       -827.2566529802525110
 Dipole X            :         22.9637174          -23.4201318           -0.4564143
 Dipole Y            :        -83.4442628           84.7849115            1.3406488
 Dipole Z            :         53.4032672          -54.8838828           -1.4806156
 Magnitude           :                                                    2.0488718
  Basis Set: (AUG-CC-PVTZ AUX)
    Blend: AUG-CC-PVTZ-RI + DEF2-QZVPP-RI
	 Reference Energy          =    -827.2566529802526247 [Eh]
	 Singles Energy            =      -0.0000000000000000 [Eh]
	 Same-Spin Energy          =      -0.2417981511222393 [Eh]
	 Opposite-Spin Energy      =      -0.7284757023622142 [Eh]
	 Correlation Energy        =      -0.9702738534844534 [Eh]
	 Total Energy              =    -828.2269268337370249 [Eh]

	 ================> DF-SCS-MP2 Energies <==================
	-----------------------------------------------------------
	 SCS Same-Spin Scale       =       0.3333333333333333 [-]
	 SCS Opposite-Spin Scale   =       1.2000000000000000 [-]
	 SCS Same-Spin Energy      =      -0.0805993837074131 [Eh]
	 SCS Opposite-Spin Energy  =      -0.8741708428346570 [Eh]
	 SCS Correlation Energy    =      -0.9547702265420700 [Eh]
	 SCS Total Energy          =    -828.2114232067947341 [Eh]
	-----------------------------------------------------------

*** Psi4 exiting successfully. Buy a developer a beer!
