                               Psi4 1.9 release

  ==> Input File <==

--------------------------------------------------------------------------
MEMORY 60 GB

molecule dimer {
0 1
Gh(K)      0.000000     0.000000     0.000000
Gh(O)     -1.153594    -0.720309    -2.614003
Gh(H)     -0.939565    -1.499011    -3.168115
Gh(H)     -1.428502    -0.069507    -3.340308
Gh(O)      0.490839     2.044895    -1.779473
Gh(H)      0.093009     2.075515    -2.632645
Gh(H)      1.033118     2.817953    -1.735977
Gh(O)      0.208785    -2.782335    -0.500750
Gh(H)      0.323043    -3.505662     0.135402
Gh(H)     -0.529939    -3.016266    -1.123982
Gh(O)      2.316956    -0.886052     1.337491
Gh(H)      2.440257    -0.662489     2.291396
Gh(H)      3.000342    -0.491984     0.781631
Gh(O)     -2.584382     0.759511     0.285931
Gh(H)     -3.046319     0.066787    -0.119632
Gh(H)     -2.689115     0.611750     1.240907
O         -0.643833    -1.535240     2.409017
H         -0.768431    -2.498004     2.659473
H          0.031223    -1.193681     2.975804

units ang
no_reorient
no_com
symmetry c1
}

set {
basis        aug-cc-pVTZ
scf_type     df
}

energy("mp2")
--------------------------------------------------------------------------

    Molecular point group: c1

    Geometry (in Angstrom), charge = 0, multiplicity = 1:

       Center              X                  Y                   Z               Mass
    ------------   -----------------  -----------------  -----------------  -----------------
      Gh(K)           0.000000000000     0.000000000000     0.000000000000    38.963706486400
      Gh(O)          -1.153594000000    -0.720309000000    -2.614003000000    15.994914619570
      Gh(H)          -0.939565000000    -1.499011000000    -3.168115000000     1.007825032230
      Gh(H)          -1.428502000000    -0.069507000000    -3.340308000000     1.007825032230
      Gh(O)           0.490839000000     2.044895000000    -1.779473000000    15.994914619570
      Gh(H)           0.093009000000     2.075515000000    -2.632645000000     1.007825032230
      Gh(H)           1.033118000000     2.817953000000    -1.735977000000     1.007825032230
      Gh(O)           0.208785000000    -2.782335000000    -0.500750000000    15.994914619570
      Gh(H)           0.323043000000    -3.505662000000     0.135402000000     1.007825032230
      Gh(H)          -0.529939000000    -3.016266000000    -1.123982000000     1.007825032230
      Gh(O)           2.316956000000    -0.886052000000     1.337491000000    15.994914619570
      Gh(H)           2.440257000000    -0.662489000000     2.291396000000     1.007825032230
      Gh(H)           3.000342000000    -0.491984000000     0.781631000000     1.007825032230
      Gh(O)          -2.584382000000     0.759511000000     0.285931000000    15.994914619570
      Gh(H)          -3.046319000000     0.066787000000    -0.119632000000     1.007825032230
      Gh(H)          -2.689115000000     0.611750000000     1.240907000000     1.007825032230
         O           -0.643833000000    -1.535240000000     2.409017000000    15.994914619570
         H           -0.768431000000    -2.498004000000     2.659473000000     1.007825032230
         H            0.031223000000    -1.193681000000     2.975804000000     1.007825032230

  Charge       = 0
  Multiplicity = 1
  Basis Set: AUG-CC-PVTZ
    Blend: AUG-CC-PVTZ
  Basis Set: (AUG-CC-PVTZ AUX)
    Blend: AUG-CC-PVTZ-JKFIT + DEF2-UNIVERSAL-JKFIT

    Orbital Energies [Eh]
    ---------------------

    Doubly Occupied:

       1A    -20.568826     2A     -1.344351     3A     -0.712843
       4A     -0.577320     5A     -0.508399

  @DF-RHF Final Energy:   -76.05756102859688

   => Energetics <=

    Nuclear Repulsion Energy =              9.0395784075282144
    One-Electron Energy =                -122.7707986572819436
    Two-Electron Energy =                  37.6736592211568606
    Total Energy =                        -76.0575610285968651
 Dipole X            :         11.4957841          -11.1264655            0.3693185
 Dipole Y            :         29.7819664          -30.1857387           -0.4037723
 Dipole Z            :        -46.5245410           47.0681891            0.5436481
 Magnitude           :                                                    0.7713505
  Basis Set: (AUG-CC-PVTZ AUX)
    Blend: AUG-CC-PVTZ-RI + DEF2-QZVPP-RI
	 Reference Energy          =     -76.0575610285968793 [Eh]
	 Singles Energy            =      -0.0000000000000000 [Eh]
	 Same-Spin Energy          =      -0.0686388515626295 [Eh]
	 Opposite-Spin Energy      =      -0.2164625983398142 [Eh]
	 Correlation Energy        =      -0.2851014499024437 [Eh]
	 Total Energy              =     -76.3426624784993209 [Eh]

	 ================> DF-SCS-MP2 Energies <==================
	-----------------------------------------------------------
	 SCS Same-Spin Scale       =       0.3333333333333333 [-]
	 SCS Opposite-Spin Scale   =       1.2000000000000000 [-]
	 SCS Same-Spin Energy      =      -0.0228796171875432 [Eh]
	 SCS Opposite-Spin Energy  =      -0.2597551180077771 [Eh]
	 SCS Correlation Energy    =      -0.2826347351953202 [Eh]
	 SCS Total Energy          =     -76.3401957637921953 [Eh]
	-----------------------------------------------------------

*** Psi4 exiting successfully. Buy a developer a beer!
