                               Psi4 1.9 release

  ==> Input File <==

--------------------------------------------------------------------------
MEMORY 60 GB

molecule dimer {
0 1
Gh(K)      0.000000     0.000000     0.000000
O         -0.173319    -2.840391     0.867645
H          0.361358    -3.018681     0.103750
H          0.418315    -2.846524     1.610566
Gh(O)      2.897650    -0.409254     0.514190
Gh(H)      3.425469    -0.973584     1.091300
Gh(H)      3.301664     0.485390     0.727381
Gh(O)      0.932781     1.909151    -1.488458
Gh(H)      0.748588     2.219972    -2.358054
Gh(H)      1.394457     2.688798    -1.067496
Gh(O)      0.561714     0.650297     2.488368
Gh(H)      1.438825     0.343526     2.322741
Gh(H)     -0.011650    -0.078291     2.840390
Gh(O)     -1.989521     1.668299     0.915195
Gh(H)     -1.899444     2.314467     1.611632
Gh(H)     -2.406715     2.104578     0.181580
Gh(O)     -0.629671    -1.110605    -2.391014
Gh(H)     -0.994888    -2.016476    -2.229954
Gh(H)      0.034334    -1.219319    -3.116133

units ang
no_reorient
no_com
symmetry c1
}

set {
basis        aug-cc-pVTZ
scf_type     df
}

energy("mp2")
--------------------------------------------------------------------------

    Molecular point group: c1

    Geometry (in Angstrom), charge = 0, multiplicity = 1:

       Center              X                  Y                   Z               Mass
    ------------   -----------------  -----------------  -----------------  -----------------
      Gh(K)           0.000000000000     0.000000000000     0.000000000000    38.963706486400
         O           -0.173319000000    -2.840391000000     0.867645000000    15.994914619570
         H            0.361358000000    -3.018681000000     0.103750000000     1.007825032230
         H            0.418315000000    -2.846524000000     1.610566000000     1.007825032230
      Gh(O)           2.897650000000    -0.409254000000     0.514190000000    15.994914619570
      Gh(H)           3.425469000000    -0.973584000000     1.091300000000     1.007825032230
      Gh(H)           3.301664000000     0.485390000000     0.727381000000     1.007825032230
      Gh(O)           0.932781000000     1.909151000000    -1.488458000000    15.994914619570
      Gh(H)           0.748588000000     2.219972000000    -2.358054000000     1.007825032230
      Gh(H)           1.394457000000     2.688798000000    -1.067496000000     1.007825032230
      Gh(O)           0.561714000000     0.650297000000     2.488368000000    15.994914619570
      Gh(H)           1.438825000000     0.343526000000     2.322741000000     1.007825032230
      Gh(H)          -0.011650000000    -0.078291000000     2.840390000000     1.007825032230
      Gh(O)          -1.989521000000     1.668299000000     0.915195000000    15.994914619570
      Gh(H)          -1.899444000000     2.314467000000     1.611632000000     1.007825032230
      Gh(H)          -2.406715000000     2.104578000000     0.181580000000     1.007825032230
      Gh(O)          -0.629671000000    -1.110605000000    -2.391014000000    15.994914619570
      Gh(H)          -0.994888000000    -2.016476000000    -2.229954000000     1.007825032230
      Gh(H)           0.034334000000    -1.219319000000    -3.116133000000     1.007825032230

  Charge       = 0
  Multiplicity = 1
  Basis Set: AUG-CC-PVTZ
    Blend: AUG-CC-PVTZ
  Basis Set: (AUG-CC-PVTZ AUX)
    Blend: AUG-CC-PVTZ-JKFIT + DEF2-UNIVERSAL-JKFIT

    Orbital Energies [Eh]
    ---------------------

    Doubly Occupied:

       1A    -20.564980     2A     -1.356387     3A     -0.725132
       4A     -0.583214     5A     -0.510527

  @DF-RHF Final Energy:   -76.06112854977948

   => Energetics <=

    Nuclear Repulsion Energy =              9.2655734763851196
    One-Electron Energy =                -123.1729218129496815
    Two-Electron Energy =                  37.8462197867850847
    Total Energy =                        -76.0611285497794825
 Dipole X            :          1.9032044           -1.1468351            0.7563693
 Dipole Y            :         53.9000701          -54.0241198           -0.1240496
 Dipole Z            :        -16.3706048           16.3564791           -0.0141257
 Magnitude           :                                                    0.7666045
  Basis Set: (AUG-CC-PVTZ AUX)
    Blend: AUG-CC-PVTZ-RI + DEF2-QZVPP-RI
	 Reference Energy          =     -76.0611285497794825 [Eh]
	 Singles Energy            =      -0.0000000000000000 [Eh]
	 Same-Spin Energy          =      -0.0682225750865442 [Eh]
	 Opposite-Spin Energy      =      -0.2151294448662770 [Eh]
	 Correlation Energy        =      -0.2833520199528211 [Eh]
	 Total Energy              =     -76.3444805697322977 [Eh]

	 ================> DF-SCS-MP2 Energies <==================
	-----------------------------------------------------------
	 SCS Same-Spin Scale       =       0.3333333333333333 [-]
	 SCS Opposite-Spin Scale   =       1.2000000000000000 [-]
	 SCS Same-Spin Energy      =      -0.0227408583621814 [Eh]
	 SCS Opposite-Spin Energy  =      -0.2581553338395324 [Eh]
	 SCS Correlation Energy    =      -0.2808961922017137 [Eh]
	 SCS Total Energy          =     -76.3420247419811915 [Eh]
	-----------------------------------------------------------

*** Psi4 exiting successfully. Buy a developer a beer!
