                               Psi4 1.9 release

  ==> Input File <==

--------------------------------------------------------------------------
MEMORY 60 GB

molecule dimer {
1 1
K          0.000000     0.000000     0.000000
O         -1.729110    -1.440725    -1.595164
H         -2.115495    -2.310628    -1.338981
H         -0.967161    -1.699838    -2.095225
O          0.740104    -1.194157    -2.503143
H          1.668496    -1.305924    -2.331578
H          0.556187    -0.378147    -2.935790
O          2.193072    -0.562674     1.394934
H          2.531896     0.323809     1.640430
H          3.009910    -1.052773     1.088316
O         -1.344795     2.320045    -0.663814
H         -1.343982     2.818484     0.147861
H         -0.624916     2.584864    -1.279756

units ang
no_reorient
no_com
symmetry c1
}

set {
basis        aug-cc-pVTZ
scf_type     df
}

energy("mp2")
--------------------------------------------------------------------------

    Molecular point group: c1

    Geometry (in Angstrom), charge = 1, multiplicity = 1:

       Center              X                  Y                   Z               Mass
    ------------   -----------------  -----------------  -----------------  -----------------
         K            0.000000000000     0.000000000000     0.000000000000    38.963706486400
         O           -1.729110000000    -1.440725000000    -1.595164000000    15.994914619570
         H           -2.115495000000    -2.310628000000    -1.338981000000     1.007825032230
         H           -0.967161000000    -1.699838000000    -2.095225000000     1.007825032230
         O            0.740104000000    -1.194157000000    -2.503143000000    15.994914619570
         H            1.668496000000    -1.305924000000    -2.331578000000     1.007825032230
         H            0.556187000000    -0.378147000000    -2.935790000000     1.007825032230
         O            2.193072000000    -0.562674000000     1.394934000000    15.994914619570
         H            2.531896000000     0.323809000000     1.640430000000     1.007825032230
         H            3.009910000000    -1.052773000000     1.088316000000     1.007825032230
         O           -1.344795000000     2.320045000000    -0.663814000000    15.994914619570
         H           -1.343982000000     2.818484000000     0.147861000000     1.007825032230
         H           -0.624916000000     2.584864000000    -1.279756000000     1.007825032230

  Charge       = 1
  Multiplicity = 1
  Basis Set: AUG-CC-PVTZ
    Blend: AUG-CC-PVTZ
  Basis Set: (AUG-CC-PVTZ AUX)
    Blend: AUG-CC-PVTZ-JKFIT + DEF2-UNIVERSAL-JKFIT

    Orbital Energies [Eh]
    ---------------------

    Doubly Occupied:

       1A   -133.643734     2A    -20.744510     3A    -20.741334
       4A    -20.724567     5A    -20.690181     6A    -14.601368
       7A    -11.631343     8A    -11.631219     9A    -11.631052
      10A     -1.863580    11A     -1.540935    12A     -1.513614
      13A     -1.505030    14A     -1.478090    15A     -1.074870
      16A     -1.072775    17A     -1.070375    18A     -0.922738
      19A     -0.887802    20A     -0.872548    21A     -0.848494
      22A     -0.760975    23A     -0.755909    24A     -0.728208
      25A     -0.712592    26A     -0.696726    27A     -0.685296
      28A     -0.671115    29A     -0.638812

  @DF-RHF Final Energy:  -903.30498234646393

   => Energetics <=

    Nuclear Repulsion Energy =            256.5276601049320107
    One-Electron Energy =               -1746.9856980109325377
    Two-Electron Energy =                 587.1530555595365968
    Total Energy =                       -903.3049823464639303
 Dipole X            :         -0.8416664            3.0029695            2.1613031
 Dipole Y            :         15.6490315          -15.1938535            0.4551780
 Dipole Z            :         63.8389050          -64.3304706           -0.4915656
 Magnitude           :                                                    2.2627538
  Basis Set: (AUG-CC-PVTZ AUX)
    Blend: AUG-CC-PVTZ-RI + DEF2-QZVPP-RI
	 Reference Energy          =    -903.3049823464639303 [Eh]
	 Singles Energy            =      -0.0000000000000000 [Eh]
	 Same-Spin Energy          =      -0.3148535333318807 [Eh]
	 Opposite-Spin Energy      =      -0.9523836310600726 [Eh]
	 Correlation Energy        =      -1.2672371643919533 [Eh]
	 Total Energy              =    -904.5722195108559163 [Eh]

	 ================> DF-SCS-MP2 Energies <==================
	-----------------------------------------------------------
	 SCS Same-Spin Scale       =       0.3333333333333333 [-]
	 SCS Opposite-Spin Scale   =       1.2000000000000000 [-]
	 SCS Same-Spin Energy      =      -0.1049511777772935 [Eh]
	 SCS Opposite-Spin Energy  =      -1.1428603572720870 [Eh]
	 SCS Correlation Energy    =      -1.2478115350493806 [Eh]
	 SCS Total Energy          =    -904.5527938815133666 [Eh]
	-----------------------------------------------------------

*** Psi4 exiting successfully. Buy a developer a beer!
