                               Psi4 1.9 release

  ==> Input File <==

--------------------------------------------------------------------------
MEMORY 60 GB

molecule dimer {
0 1
Gh(K)      0.000000     0.000000     0.000000
Gh(O)      0.957190    -1.386757     2.254317
Gh(H)      0.346314    -1.538227     2.944648
Gh(H)      1.508477    -0.680100     2.530417
O         -1.972321    -1.892141    -0.455348
H         -2.386838    -1.108573    -0.921557
H         -1.959596    -2.685029    -1.112345
Gh(O)      2.214048     1.192468     0.500912
Gh(H)      2.674099     0.872921     1.259207
Gh(H)      2.802115     1.115706    -0.234481
Gh(O)     -1.570407     1.521695    -1.522003
Gh(H)     -2.540405     1.534752    -1.445713
Gh(H)     -1.376556     1.601288    -2.489818
Gh(O)      1.131955    -1.268921    -1.784459
Gh(H)      1.698719    -1.777535    -1.212553
Gh(H)      1.705790    -0.723363    -2.309643

units ang
no_reorient
no_com
symmetry c1
}

set {
basis        aug-cc-pVTZ
scf_type     df
}

energy("mp2")
--------------------------------------------------------------------------

    Molecular point group: c1

    Geometry (in Angstrom), charge = 0, multiplicity = 1:

       Center              X                  Y                   Z               Mass
    ------------   -----------------  -----------------  -----------------  -----------------
      Gh(K)           0.000000000000     0.000000000000     0.000000000000    38.963706486400
      Gh(O)           0.957190000000    -1.386757000000     2.254317000000    15.994914619570
      Gh(H)           0.346314000000    -1.538227000000     2.944648000000     1.007825032230
      Gh(H)           1.508477000000    -0.680100000000     2.530417000000     1.007825032230
         O           -1.972321000000    -1.892141000000    -0.455348000000    15.994914619570
         H           -2.386838000000    -1.108573000000    -0.921557000000     1.007825032230
         H           -1.959596000000    -2.685029000000    -1.112345000000     1.007825032230
      Gh(O)           2.214048000000     1.192468000000     0.500912000000    15.994914619570
      Gh(H)           2.674099000000     0.872921000000     1.259207000000     1.007825032230
      Gh(H)           2.802115000000     1.115706000000    -0.234481000000     1.007825032230
      Gh(O)          -1.570407000000     1.521695000000    -1.522003000000    15.994914619570
      Gh(H)          -2.540405000000     1.534752000000    -1.445713000000     1.007825032230
      Gh(H)          -1.376556000000     1.601288000000    -2.489818000000     1.007825032230
      Gh(O)           1.131955000000    -1.268921000000    -1.784459000000    15.994914619570
      Gh(H)           1.698719000000    -1.777535000000    -1.212553000000     1.007825032230
      Gh(H)           1.705790000000    -0.723363000000    -2.309643000000     1.007825032230

  Charge       = 0
  Multiplicity = 1
  Basis Set: AUG-CC-PVTZ
    Blend: AUG-CC-PVTZ
  Basis Set: (AUG-CC-PVTZ AUX)
    Blend: AUG-CC-PVTZ-JKFIT + DEF2-UNIVERSAL-JKFIT

    Orbital Energies [Eh]
    ---------------------

    Doubly Occupied:

       1A    -20.575103     2A     -1.323306     3A     -0.693001
       4A     -0.566819     5A     -0.504723

  @DF-RHF Final Energy:   -76.05021992684323

   => Energetics <=

    Nuclear Repulsion Energy =              8.6594884357243096
    One-Electron Energy =                -122.0935075615213776
    Two-Electron Energy =                  37.3837991989538381
    Total Energy =                        -76.0502199268432264
 Dipole X            :         37.7688949          -38.0307421           -0.2618471
 Dipole Y            :         35.7718830          -35.7738951           -0.0020120
 Dipole Z            :          9.9998081          -10.7273818           -0.7275738
 Magnitude           :                                                    0.7732603
  Basis Set: (AUG-CC-PVTZ AUX)
    Blend: AUG-CC-PVTZ-RI + DEF2-QZVPP-RI
	 Reference Energy          =     -76.0502199268432264 [Eh]
	 Singles Energy            =      -0.0000000000000000 [Eh]
	 Same-Spin Energy          =      -0.0693477136815797 [Eh]
	 Opposite-Spin Energy      =      -0.2186631646570986 [Eh]
	 Correlation Energy        =      -0.2880108783386783 [Eh]
	 Total Energy              =     -76.3382308051819081 [Eh]

	 ================> DF-SCS-MP2 Energies <==================
	-----------------------------------------------------------
	 SCS Same-Spin Scale       =       0.3333333333333333 [-]
	 SCS Opposite-Spin Scale   =       1.2000000000000000 [-]
	 SCS Same-Spin Energy      =      -0.0231159045605266 [Eh]
	 SCS Opposite-Spin Energy  =      -0.2623957975885183 [Eh]
	 SCS Correlation Energy    =      -0.2855117021490449 [Eh]
	 SCS Total Energy          =     -76.3357316289922778 [Eh]
	-----------------------------------------------------------

*** Psi4 exiting successfully. Buy a developer a beer!
