                               Psi4 1.9 release

  ==> Input File <==

--------------------------------------------------------------------------
MEMORY 60 GB

molecule dimer {
0 1
Gh(K)      0.000000     0.000000     0.000000
Gh(O)      2.647151     0.635208    -0.063948
Gh(H)      3.176416     0.412019    -0.876904
Gh(H)      2.688399     1.610574    -0.061644
Gh(O)     -0.552549     2.635117    -0.327416
Gh(H)     -1.025355     2.455382    -1.183466
Gh(H)      0.041728     3.368381    -0.523783
Gh(O)      0.103987    -2.445141    -1.042328
Gh(H)      0.471228    -3.061895    -1.668102
Gh(H)     -0.831370    -2.576863    -0.923120
Gh(O)     -0.166398    -1.185570     2.324774
Gh(H)      0.376489    -1.802467     2.829484
Gh(H)     -0.728296    -0.765177     2.958806
O          0.808663     0.043536    -2.584883
H          0.577317    -0.776855    -3.083703
H          1.748074     0.235442    -2.782063

units ang
no_reorient
no_com
symmetry c1
}

set {
basis        aug-cc-pVTZ
scf_type     df
}

energy("mp2")
--------------------------------------------------------------------------

    Molecular point group: c1

    Geometry (in Angstrom), charge = 0, multiplicity = 1:

       Center              X                  Y                   Z               Mass
    ------------   -----------------  -----------------  -----------------  -----------------
      Gh(K)           0.000000000000     0.000000000000     0.000000000000    38.963706486400
      Gh(O)           2.647151000000     0.635208000000    -0.063948000000    15.994914619570
      Gh(H)           3.176416000000     0.412019000000    -0.876904000000     1.007825032230
      Gh(H)           2.688399000000     1.610574000000    -0.061644000000     1.007825032230
      Gh(O)          -0.552549000000     2.635117000000    -0.327416000000    15.994914619570
      Gh(H)          -1.025355000000     2.455382000000    -1.183466000000     1.007825032230
      Gh(H)           0.041728000000     3.368381000000    -0.523783000000     1.007825032230
      Gh(O)           0.103987000000    -2.445141000000    -1.042328000000    15.994914619570
      Gh(H)           0.471228000000    -3.061895000000    -1.668102000000     1.007825032230
      Gh(H)          -0.831370000000    -2.576863000000    -0.923120000000     1.007825032230
      Gh(O)          -0.166398000000    -1.185570000000     2.324774000000    15.994914619570
      Gh(H)           0.376489000000    -1.802467000000     2.829484000000     1.007825032230
      Gh(H)          -0.728296000000    -0.765177000000     2.958806000000     1.007825032230
         O            0.808663000000     0.043536000000    -2.584883000000    15.994914619570
         H            0.577317000000    -0.776855000000    -3.083703000000     1.007825032230
         H            1.748074000000     0.235442000000    -2.782063000000     1.007825032230

  Charge       = 0
  Multiplicity = 1
  Basis Set: AUG-CC-PVTZ
    Blend: AUG-CC-PVTZ
  Basis Set: (AUG-CC-PVTZ AUX)
    Blend: AUG-CC-PVTZ-JKFIT + DEF2-UNIVERSAL-JKFIT

    Orbital Energies [Eh]
    ---------------------

    Doubly Occupied:

       1A    -20.570564     2A     -1.339057     3A     -0.707533
       4A     -0.575814     5A     -0.507592

  @DF-RHF Final Energy:   -76.05764142737533

   => Energetics <=

    Nuclear Repulsion Energy =              8.9468683032804464
    One-Electron Energy =                -122.6078955197223763
    Two-Electron Energy =                  37.6033857890666070
    Total Energy =                        -76.0576414273753301
 Dipole X            :        -16.1523277           16.6195649            0.4672372
 Dipole Y            :         -0.0478691           -0.3649534           -0.4128224
 Dipole Z            :         49.7041841          -50.1624587           -0.4582746
 Magnitude           :                                                    0.7737885
  Basis Set: (AUG-CC-PVTZ AUX)
    Blend: AUG-CC-PVTZ-RI + DEF2-QZVPP-RI
	 Reference Energy          =     -76.0576414273753301 [Eh]
	 Singles Energy            =      -0.0000000000000000 [Eh]
	 Same-Spin Energy          =      -0.0688175107533900 [Eh]
	 Opposite-Spin Energy      =      -0.2169950867931445 [Eh]
	 Correlation Energy        =      -0.2858125975465345 [Eh]
	 Total Energy              =     -76.3434540249218685 [Eh]

	 ================> DF-SCS-MP2 Energies <==================
	-----------------------------------------------------------
	 SCS Same-Spin Scale       =       0.3333333333333333 [-]
	 SCS Opposite-Spin Scale   =       1.2000000000000000 [-]
	 SCS Same-Spin Energy      =      -0.0229391702511300 [Eh]
	 SCS Opposite-Spin Energy  =      -0.2603941041517734 [Eh]
	 SCS Correlation Energy    =      -0.2833332744029035 [Eh]
	 SCS Total Energy          =     -76.3409747017782365 [Eh]
	-----------------------------------------------------------

*** Psi4 exiting successfully. Buy a developer a beer!
