                               Psi4 1.9 release

  ==> Input File <==

--------------------------------------------------------------------------
MEMORY 60 GB

molecule dimer {
1 1
K      0.000000     0.000000     0.000000
--
0 1
O     -0.173319    -2.840391     0.867645
H      0.361358    -3.018681     0.103750
H      0.418315    -2.846524     1.610566
O      2.897650    -0.409254     0.514190
H      3.425469    -0.973584     1.091300
H      3.301664     0.485390     0.727381
O      0.932781     1.909151    -1.488458
H      0.748588     2.219972    -2.358054
H      1.394457     2.688798    -1.067496
O      0.561714     0.650297     2.488368
H      1.438825     0.343526     2.322741
H     -0.011650    -0.078291     2.840390
O     -1.989521     1.668299     0.915195
H     -1.899444     2.314467     1.611632
H     -2.406715     2.104578     0.181580
O     -0.629671    -1.110605    -2.391014
H     -0.994888    -2.016476    -2.229954
H      0.034334    -1.219319    -3.116133

units ang
no_reorient
no_com
symmetry c1
}

set {
basis        aug-cc-pVTZ
scf_type     df
}

energy("mp2", bsse_type="cp")
--------------------------------------------------------------------------

                               Psi4 1.9 release
    Molecular point group: c1
  Charge       = 0
  Multiplicity = 1
  Basis Set: AUG-CC-PVTZ
    Blend: AUG-CC-PVTZ
  Basis Set: (AUG-CC-PVTZ AUX)
    Blend: AUG-CC-PVTZ-JKFIT + DEF2-UNIVERSAL-JKFIT
  @DF-RHF Final Energy:  -456.33746265779229
    Total Energy =                       -456.3374626577922868
 Dipole X            :        -33.4596966           35.1628616            1.7031650
 Dipole Y            :          2.1473156           -1.9958683            0.1514473
 Dipole Z            :        -17.1410759           16.9416045           -0.1994714
 Magnitude           :                                                    1.7214808
  Basis Set: (AUG-CC-PVTZ AUX)
    Blend: AUG-CC-PVTZ-RI + DEF2-QZVPP-RI
	 Reference Energy          =    -456.3374626577922868 [Eh]
	 Singles Energy            =      -0.0000000000000000 [Eh]
	 Same-Spin Energy          =      -0.4143835054879270 [Eh]
	 Opposite-Spin Energy      =      -1.3011444170166862 [Eh]
	 Correlation Energy        =      -1.7155279225046132 [Eh]
	 Total Energy              =    -458.0529905802969211 [Eh]
	 SCS Total Energy          =    -458.0369637933749800 [Eh]
                               Psi4 1.9 release
    Molecular point group: c1
  Multiplicity = 1
  Basis Set: AUG-CC-PVTZ
    Blend: AUG-CC-PVTZ
  Basis Set: (AUG-CC-PVTZ AUX)
    Blend: AUG-CC-PVTZ-JKFIT + DEF2-UNIVERSAL-JKFIT
  @DF-RHF Final Energy:  -599.01751714565535
    Total Energy =                       -599.0175171456553471
  Basis Set: (AUG-CC-PVTZ AUX)
	 Singles Energy            =      -0.0000000000000000 [Eh]
	 Same-Spin Energy          =      -0.0390693363469028 [Eh]
	 Opposite-Spin Energy      =      -0.0959112186272504 [Eh]
	 Correlation Energy        =      -0.1349805549741531 [Eh]
	 Total Energy              =    -599.1524977006295103 [Eh]
	 SCS Total Energy          =    -599.1456337201236693 [Eh]
                               Psi4 1.9 release
    Molecular point group: c1

    Geometry (in Bohr), charge = 1, multiplicity = 1:

       Center              X                  Y                   Z               Mass
    ------------   -----------------  -----------------  -----------------  -----------------
         K            0.000000000000     0.000000000000     0.000000000000    38.963706486400
         O           -0.327525442338    -5.367561079215     1.639611424123    15.994914619570
         H            0.682867653243    -5.704480350123     0.196059085516     1.007825032230
         H            0.790500784171    -5.379150769543     3.043528646974     1.007825032230
         O            5.475764907433    -0.773377975748     0.971678276449    15.994914619570
         H            6.473198261246    -1.839807120128     2.062258120712     1.007825032230
         H            6.239240718284     0.917254164036     1.374550878862     1.007825032230
         O            1.762700625031     3.607772522144    -2.812777969247    15.994914619570
         H            1.414626300804     4.195139086185    -4.456076249040     1.007825032230
         H            2.635141823728     5.081091826679    -2.017275080022     1.007825032230
         O            1.061485620835     1.228883230207     4.702334019353    15.994914619570
         H            2.718985192462     0.649170056974     4.389344350372     1.007825032230
         H           -0.022015309362    -0.147948548088     5.367559189489     1.007825032230
         O           -3.759649810847     3.152628205375     1.729467901388    15.994914619570
         H           -3.589428950644     4.373708756410     3.045543095024     1.007825032230
         H           -4.548032212031     3.977076029664     0.343136469861     1.007825032230
         O           -1.189905739143    -2.098739283564    -4.518361622135    15.994914619570
         H           -1.880065845504    -3.810587378559    -4.214002332369     1.007825032230
         H            0.064881856791    -2.304178969567    -5.888637940501     1.007825032230

  Charge       = 1
  Multiplicity = 1
  Basis Set: AUG-CC-PVTZ
    Blend: AUG-CC-PVTZ
  Basis Set: (AUG-CC-PVTZ AUX)
    Blend: AUG-CC-PVTZ-JKFIT + DEF2-UNIVERSAL-JKFIT

    Orbital Energies [Eh]
    ---------------------

    Doubly Occupied:

       1A   -133.583514     2A    -20.729663     3A    -20.714479
       4A    -20.712983     5A    -20.707418     6A    -20.705738
       7A    -20.691088     8A    -14.541979     9A    -11.571784
      10A    -11.571747    11A    -11.571672    12A     -1.807150
      13A     -1.502435    14A     -1.500564    15A     -1.497924
      16A     -1.490666    17A     -1.483191    18A     -1.481516
      19A     -1.018882    20A     -1.018615    21A     -1.016650
      22A     -0.870234    23A     -0.868337    24A     -0.856159
      25A     -0.852911    26A     -0.851215    27A     -0.844603
      28A     -0.751006    29A     -0.741349    30A     -0.726908
      31A     -0.725845    32A     -0.719262    33A     -0.713295
      34A     -0.670429    35A     -0.660561    36A     -0.658038
      37A     -0.653688    38A     -0.650552    39A     -0.639716

  @DF-RHF Final Energy: -1055.45349983314668

   => Energetics <=

    Nuclear Repulsion Energy =            456.3689026123484496
    One-Electron Energy =               -2354.8972622234346090
    Two-Electron Energy =                 843.0748597779395368
    Total Energy =                      -1055.4534998331466795
 Dipole X            :        -33.3180863           35.1628616            1.8447752
 Dipole Y            :          2.2572523           -1.9958683            0.2613841
 Dipole Z            :        -17.1044213           16.9416045           -0.1628168
 Magnitude           :                                                    1.8703012
  Basis Set: (AUG-CC-PVTZ AUX)
    Blend: AUG-CC-PVTZ-RI + DEF2-QZVPP-RI
	 Reference Energy          =   -1055.4534998331466795 [Eh]
	 Singles Energy            =      -0.0000000000000000 [Eh]
	 Same-Spin Energy          =      -0.4576801772838497 [Eh]
	 Opposite-Spin Energy      =      -1.3971285626139298 [Eh]
	 Correlation Energy        =      -1.8548087398977795 [Eh]
	 Total Energy              =   -1057.3083085730445418 [Eh]

	 ================> DF-SCS-MP2 Energies <==================
	-----------------------------------------------------------
	 SCS Same-Spin Scale       =       0.3333333333333333 [-]
	 SCS Opposite-Spin Scale   =       1.2000000000000000 [-]
	 SCS Same-Spin Energy      =      -0.1525600590946166 [Eh]
	 SCS Opposite-Spin Energy  =      -1.6765542751367157 [Eh]
	 SCS Correlation Energy    =      -1.8291143342313323 [Eh]
	 SCS Total Energy          =   -1057.2826141673779148 [Eh]
	-----------------------------------------------------------

*** Psi4 exiting successfully. Buy a developer a beer!
