                               Psi4 1.9 release

  ==> Input File <==

--------------------------------------------------------------------------
MEMORY 60 GB

molecule dimer {
1 1
K          0.000000     0.000000     0.000000
O          0.118696    -2.770459     0.076879
H         -0.333969    -3.135341     0.830822
H          0.982084    -3.221411     0.111931
O          1.379726    -1.154328    -2.080253
H          2.056706    -1.833961    -2.058727
H          1.169543    -1.009891    -3.018870
O          2.724284     0.265425     0.841619
H          3.242030     1.067792     0.900161
H          2.990826    -0.377309     1.498758
O         -2.881305     0.223588     0.845452
H         -3.728837     0.040709     1.280940
H         -2.877352     1.133782     1.077537
O          0.197582     1.855176     2.126719
H         -0.684460     2.355019     2.158041
H          0.495535     1.708267     3.013621
O         -1.133798     2.421734    -1.164227
H         -0.805925     2.041723    -2.060813
H         -2.117470     2.513113    -1.178015

units ang
no_reorient
no_com
symmetry c1
}

set {
basis        aug-cc-pVTZ
scf_type     df
}

energy("mp2")
--------------------------------------------------------------------------

    Molecular point group: c1

    Geometry (in Angstrom), charge = 1, multiplicity = 1:

       Center              X                  Y                   Z               Mass
    ------------   -----------------  -----------------  -----------------  -----------------
         K            0.000000000000     0.000000000000     0.000000000000    38.963706486400
         O            0.118696000000    -2.770459000000     0.076879000000    15.994914619570
         H           -0.333969000000    -3.135341000000     0.830822000000     1.007825032230
         H            0.982084000000    -3.221411000000     0.111931000000     1.007825032230
         O            1.379726000000    -1.154328000000    -2.080253000000    15.994914619570
         H            2.056706000000    -1.833961000000    -2.058727000000     1.007825032230
         H            1.169543000000    -1.009891000000    -3.018870000000     1.007825032230
         O            2.724284000000     0.265425000000     0.841619000000    15.994914619570
         H            3.242030000000     1.067792000000     0.900161000000     1.007825032230
         H            2.990826000000    -0.377309000000     1.498758000000     1.007825032230
         O           -2.881305000000     0.223588000000     0.845452000000    15.994914619570
         H           -3.728837000000     0.040709000000     1.280940000000     1.007825032230
         H           -2.877352000000     1.133782000000     1.077537000000     1.007825032230
         O            0.197582000000     1.855176000000     2.126719000000    15.994914619570
         H           -0.684460000000     2.355019000000     2.158041000000     1.007825032230
         H            0.495535000000     1.708267000000     3.013621000000     1.007825032230
         O           -1.133798000000     2.421734000000    -1.164227000000    15.994914619570
         H           -0.805925000000     2.041723000000    -2.060813000000     1.007825032230
         H           -2.117470000000     2.513113000000    -1.178015000000     1.007825032230

  Charge       = 1
  Multiplicity = 1
  Basis Set: AUG-CC-PVTZ
    Blend: AUG-CC-PVTZ
  Basis Set: (AUG-CC-PVTZ AUX)
    Blend: AUG-CC-PVTZ-JKFIT + DEF2-UNIVERSAL-JKFIT

    Orbital Energies [Eh]
    ---------------------

    Doubly Occupied:

       1A   -133.586185     2A    -20.706282     3A    -20.705663
       4A    -20.700201     5A    -20.698084     6A    -20.694618
       7A    -20.688061     8A    -14.543692     9A    -11.573667
      10A    -11.573545    11A    -11.573453    12A     -1.805496
      13A     -1.499503    14A     -1.486547    15A     -1.477885
      16A     -1.475525    17A     -1.471277    18A     -1.461926
      19A     -1.017170    20A     -1.014365    21A     -1.013662
      22A     -0.857257    23A     -0.849741    24A     -0.844698
      25A     -0.840044    26A     -0.837647    27A     -0.831446
      28A     -0.746920    29A     -0.729516    30A     -0.715101
      31A     -0.709154    32A     -0.702214    33A     -0.701325
      34A     -0.652481    35A     -0.646628    36A     -0.641568
      37A     -0.639584    38A     -0.638690    39A     -0.634207

  @DF-RHF Final Energy: -1055.45253219252641

   => Energetics <=

    Nuclear Repulsion Energy =            443.8593264737571076
    One-Electron Energy =               -2330.6536552276243128
    Two-Electron Energy =                 831.3417965613407432
    Total Energy =                      -1055.4525321925264052
 Dipole X            :         -7.0290477            6.8600668           -0.1689809
 Dipole Y            :        -15.3951361           15.1396920           -0.2554440
 Dipole Z            :        -13.7470447           14.5979416            0.8508969
 Magnitude           :                                                    0.9043405
  Basis Set: (AUG-CC-PVTZ AUX)
    Blend: AUG-CC-PVTZ-RI + DEF2-QZVPP-RI
	 Reference Energy          =   -1055.4525321925264052 [Eh]
	 Singles Energy            =      -0.0000000000000000 [Eh]
	 Same-Spin Energy          =      -0.4552288846015694 [Eh]
	 Opposite-Spin Energy      =      -1.3925716016729335 [Eh]
	 Correlation Energy        =      -1.8478004862745028 [Eh]
	 Total Energy              =   -1057.3003326788009417 [Eh]

	 ================> DF-SCS-MP2 Energies <==================
	-----------------------------------------------------------
	 SCS Same-Spin Scale       =       0.3333333333333333 [-]
	 SCS Opposite-Spin Scale   =       1.2000000000000000 [-]
	 SCS Same-Spin Energy      =      -0.1517429615338564 [Eh]
	 SCS Opposite-Spin Energy  =      -1.6710859220075200 [Eh]
	 SCS Correlation Energy    =      -1.8228288835413764 [Eh]
	 SCS Total Energy          =   -1057.2753610760678384 [Eh]
	-----------------------------------------------------------

*** Psi4 exiting successfully. Buy a developer a beer!
