                               Psi4 1.9 release

  ==> Input File <==

--------------------------------------------------------------------------
MEMORY 60 GB

molecule dimer {
1 1
K          0.000000     0.000000     0.000000
O         -1.914219     0.381099     2.047352
H         -1.320578     0.674184     2.686368
H         -2.321467    -0.319664     2.513747
O          0.428472     2.036835    -1.419653
H         -0.185122     2.755299    -1.648266
H          0.372818     1.517892    -2.257890
O          0.770031     1.249993     2.200665
H          1.009133     2.175197     2.337599
H          1.515479     0.726860     2.473995
O         -2.260178    -0.231462    -1.572764
H         -2.803882    -0.985370    -1.417875
H         -2.627539     0.547665    -1.165198
O          2.290299    -1.266372     0.334224
H          3.155079    -0.865329     0.373528
H          2.386314    -2.179876     0.539797
O         -1.344210    -2.412788     0.379287
H         -2.112438    -2.800330    -0.114885
H         -1.698340    -2.036621     1.151405

units ang
no_reorient
no_com
symmetry c1
}

set {
basis        aug-cc-pVTZ
scf_type     df
}

energy("mp2")
--------------------------------------------------------------------------

    Molecular point group: c1

    Geometry (in Angstrom), charge = 1, multiplicity = 1:

       Center              X                  Y                   Z               Mass
    ------------   -----------------  -----------------  -----------------  -----------------
         K            0.000000000000     0.000000000000     0.000000000000    38.963706486400
         O           -1.914219000000     0.381099000000     2.047352000000    15.994914619570
         H           -1.320578000000     0.674184000000     2.686368000000     1.007825032230
         H           -2.321467000000    -0.319664000000     2.513747000000     1.007825032230
         O            0.428472000000     2.036835000000    -1.419653000000    15.994914619570
         H           -0.185122000000     2.755299000000    -1.648266000000     1.007825032230
         H            0.372818000000     1.517892000000    -2.257890000000     1.007825032230
         O            0.770031000000     1.249993000000     2.200665000000    15.994914619570
         H            1.009133000000     2.175197000000     2.337599000000     1.007825032230
         H            1.515479000000     0.726860000000     2.473995000000     1.007825032230
         O           -2.260178000000    -0.231462000000    -1.572764000000    15.994914619570
         H           -2.803882000000    -0.985370000000    -1.417875000000     1.007825032230
         H           -2.627539000000     0.547665000000    -1.165198000000     1.007825032230
         O            2.290299000000    -1.266372000000     0.334224000000    15.994914619570
         H            3.155079000000    -0.865329000000     0.373528000000     1.007825032230
         H            2.386314000000    -2.179876000000     0.539797000000     1.007825032230
         O           -1.344210000000    -2.412788000000     0.379287000000    15.994914619570
         H           -2.112438000000    -2.800330000000    -0.114885000000     1.007825032230
         H           -1.698340000000    -2.036621000000     1.151405000000     1.007825032230

  Charge       = 1
  Multiplicity = 1
  Basis Set: AUG-CC-PVTZ
    Blend: AUG-CC-PVTZ
  Basis Set: (AUG-CC-PVTZ AUX)
    Blend: AUG-CC-PVTZ-JKFIT + DEF2-UNIVERSAL-JKFIT

    Orbital Energies [Eh]
    ---------------------

    Doubly Occupied:

       1A   -133.573897     2A    -20.716359     3A    -20.714940
       4A    -20.709377     5A    -20.706189     6A    -20.699584
       7A    -20.698112     8A    -14.532909     9A    -11.562683
      10A    -11.562609    11A    -11.562547    12A     -1.800007
      13A     -1.514986    14A     -1.506114    15A     -1.504907
      16A     -1.496675    17A     -1.494798    18A     -1.491806
      19A     -1.014503    20A     -1.011784    21A     -1.010447
      22A     -0.877765    23A     -0.876621    24A     -0.874899
      25A     -0.869403    26A     -0.857413    27A     -0.840428
      28A     -0.745517    29A     -0.742688    30A     -0.739935
      31A     -0.736342    32A     -0.726892    33A     -0.714807
      34A     -0.668822    35A     -0.666077    36A     -0.660142
      37A     -0.658434    38A     -0.653472    39A     -0.639464

  @DF-RHF Final Energy: -1055.45806637446640

   => Energetics <=

    Nuclear Repulsion Energy =            470.9383857973361955
    One-Electron Energy =               -2383.9241896189005274
    Two-Electron Energy =                 857.5277374470980476
    Total Energy =                      -1055.4580663744663980
 Dipole X            :         39.1502262          -39.4366624           -0.2864361
 Dipole Y            :          5.0552015           -5.1620760           -0.1068745
 Dipole Z            :        -38.9463368           40.1098395            1.1635027
 Magnitude           :                                                    1.2029989
  Basis Set: (AUG-CC-PVTZ AUX)
    Blend: AUG-CC-PVTZ-RI + DEF2-QZVPP-RI
	 Reference Energy          =   -1055.4580663744663980 [Eh]
	 Singles Energy            =      -0.0000000000000000 [Eh]
	 Same-Spin Energy          =      -0.4580865426911782 [Eh]
	 Opposite-Spin Energy      =      -1.3952803346483240 [Eh]
	 Correlation Energy        =      -1.8533668773395022 [Eh]
	 Total Energy              =   -1057.3114332518059655 [Eh]

	 ================> DF-SCS-MP2 Energies <==================
	-----------------------------------------------------------
	 SCS Same-Spin Scale       =       0.3333333333333333 [-]
	 SCS Opposite-Spin Scale   =       1.2000000000000000 [-]
	 SCS Same-Spin Energy      =      -0.1526955142303927 [Eh]
	 SCS Opposite-Spin Energy  =      -1.6743364015779887 [Eh]
	 SCS Correlation Energy    =      -1.8270319158083814 [Eh]
	 SCS Total Energy          =   -1057.2850982902748456 [Eh]
	-----------------------------------------------------------

*** Psi4 exiting successfully. Buy a developer a beer!
