                               Psi4 1.9 release

  ==> Input File <==

--------------------------------------------------------------------------
MEMORY 60 GB

molecule dimer {
1 1
K      0.000000     0.000000     0.000000
--
0 1
O     -1.457044    -2.550395     0.407014
H     -0.947257    -2.879841     1.151043
H     -2.328321    -2.243661     0.699340
O      2.038414    -1.767961     0.341126
H      2.837008    -1.255039     0.326724
H      1.966681    -2.473380    -0.315675
O     -1.661440     0.175056     1.991238
H     -0.975522     0.765504     2.308795
H     -2.384597     0.634620     1.603907
O      1.704232     1.691653    -1.239466
H      1.159358     2.227433    -1.799160
H      1.823795     2.247273    -0.485218
O     -1.743882     0.339578    -1.736908
H     -2.201474    -0.503521    -1.987939
H     -2.102341     0.953944    -2.383414

units ang
no_reorient
no_com
symmetry c1
}

set {
basis        aug-cc-pVTZ
scf_type     df
}

energy("mp2", bsse_type="cp")
--------------------------------------------------------------------------

                               Psi4 1.9 release
    Molecular point group: c1
  Charge       = 0
  Multiplicity = 1
  Basis Set: AUG-CC-PVTZ
    Blend: AUG-CC-PVTZ
  Basis Set: (AUG-CC-PVTZ AUX)
    Blend: AUG-CC-PVTZ-JKFIT + DEF2-UNIVERSAL-JKFIT
  @DF-RHF Final Energy:  -380.29003075284038
    Total Energy =                       -380.2900307528403800
 Dipole X            :         22.3527042          -22.8853960           -0.5326918
 Dipole Y            :         37.8736971          -36.7045663            1.1691309
 Dipole Z            :          4.9675296           -5.2488371           -0.2813075
 Magnitude           :                                                    1.3152040
  Basis Set: (AUG-CC-PVTZ AUX)
    Blend: AUG-CC-PVTZ-RI + DEF2-QZVPP-RI
	 Reference Energy          =    -380.2900307528403800 [Eh]
	 Singles Energy            =      -0.0000000000000000 [Eh]
	 Same-Spin Energy          =      -0.3435587874620590 [Eh]
	 Opposite-Spin Energy      =      -1.0793093939984038 [Eh]
	 Correlation Energy        =      -1.4228681814604629 [Eh]
	 Total Energy              =    -381.7128989343008243 [Eh]
	 SCS Total Energy          =    -381.6997216214591617 [Eh]
                               Psi4 1.9 release
    Molecular point group: c1
  Multiplicity = 1
  Basis Set: AUG-CC-PVTZ
    Blend: AUG-CC-PVTZ
  Basis Set: (AUG-CC-PVTZ AUX)
    Blend: AUG-CC-PVTZ-JKFIT + DEF2-UNIVERSAL-JKFIT
  @DF-RHF Final Energy:  -599.01751667592566
    Total Energy =                       -599.0175166759256626
  Basis Set: (AUG-CC-PVTZ AUX)
	 Singles Energy            =      -0.0000000000000000 [Eh]
	 Same-Spin Energy          =      -0.0383704311778850 [Eh]
	 Opposite-Spin Energy      =      -0.0940077597800789 [Eh]
	 Correlation Energy        =      -0.1323781909579639 [Eh]
	 Total Energy              =    -599.1498948668836420 [Eh]
	 SCS Total Energy          =    -599.1431161313877283 [Eh]
                               Psi4 1.9 release
    Molecular point group: c1

    Geometry (in Bohr), charge = 1, multiplicity = 1:

       Center              X                  Y                   Z               Mass
    ------------   -----------------  -----------------  -----------------  -----------------
         K            0.000000000000     0.000000000000     0.000000000000    38.963706486400
         O           -2.753414112742    -4.819548061737     0.769144989227    15.994914619570
         H           -1.790056300423    -5.442110774865     2.175156028625     1.007825032230
         H           -4.399889022152    -4.239904808371     1.321561068578     1.007825032230
         O            3.852044190299    -3.340962090491     0.644634714273    15.994914619570
         H            5.361168135733    -2.371679986768     0.617418878614     1.007825032230
         H            3.716488466142    -4.674010804185    -0.596539294654     1.007825032230
         O           -3.139666573881     0.330807896618     3.762894470604    15.994914619570
         H           -1.843469409359     1.446592907942     4.362990229826     1.007825032230
         H           -4.506235249588     1.199257993738     3.030944960705     1.007825032230
         O            3.220531734241     3.196760869309    -2.342251281817    15.994914619570
         H            2.190869101359     4.209238332807    -3.399919655879     1.007825032230
         H            3.446473058979     4.246730499136    -0.916929131142     1.007825032230
         O           -3.295459375116     0.641709418231    -3.282280425117    15.994914619570
         H           -4.160182932316    -0.951516788417    -3.756660264117     1.007825032230
         H           -3.972848712321     1.802692899024    -4.503999703582     1.007825032230

  Charge       = 1
  Multiplicity = 1
  Basis Set: AUG-CC-PVTZ
    Blend: AUG-CC-PVTZ
  Basis Set: (AUG-CC-PVTZ AUX)
    Blend: AUG-CC-PVTZ-JKFIT + DEF2-UNIVERSAL-JKFIT

    Orbital Energies [Eh]
    ---------------------

    Doubly Occupied:

       1A   -133.604238     2A    -20.734044     3A    -20.722746
       4A    -20.721991     5A    -20.704846     6A    -20.693309
       7A    -14.563195     8A    -11.593048     9A    -11.592842
      10A    -11.592793    11A     -1.829985    12A     -1.521833
      13A     -1.518111    14A     -1.515100    15A     -1.491959
      16A     -1.475724    17A     -1.044404    18A     -1.040879
      19A     -1.038762    20A     -0.900545    21A     -0.883863
      22A     -0.878135    23A     -0.868670    24A     -0.854157
      25A     -0.762817    26A     -0.753008    27A     -0.737290
      28A     -0.713043    29A     -0.704098    30A     -0.680225
      31A     -0.677948    32A     -0.671701    33A     -0.655339
      34A     -0.638982

  @DF-RHF Final Energy:  -979.37960255669248

   => Energetics <=

    Nuclear Repulsion Energy =            356.8627084788347474
    One-Electron Energy =               -2051.7253565481773876
    Two-Electron Energy =                 715.4830455126501647
    Total Energy =                       -979.3796025566924754
 Dipole X            :         22.1825415          -22.8853960           -0.7028545
 Dipole Y            :         37.7210106          -36.7045663            1.0164443
 Dipole Z            :          4.8604409           -5.2488371           -0.3883962
 Magnitude           :                                                    1.2953822
  Basis Set: (AUG-CC-PVTZ AUX)
    Blend: AUG-CC-PVTZ-RI + DEF2-QZVPP-RI
	 Reference Energy          =    -979.3796025566924754 [Eh]
	 Singles Energy            =      -0.0000000000000000 [Eh]
	 Same-Spin Energy          =      -0.3863385597014167 [Eh]
	 Opposite-Spin Energy      =      -1.1743105117811938 [Eh]
	 Correlation Energy        =      -1.5606490714826107 [Eh]
	 Total Energy              =    -980.9402516281751332 [Eh]

	 ================> DF-SCS-MP2 Energies <==================
	-----------------------------------------------------------
	 SCS Same-Spin Scale       =       0.3333333333333333 [-]
	 SCS Opposite-Spin Scale   =       1.2000000000000000 [-]
	 SCS Same-Spin Energy      =      -0.1287795199004722 [Eh]
	 SCS Opposite-Spin Energy  =      -1.4091726141374326 [Eh]
	 SCS Correlation Energy    =      -1.5379521340379048 [Eh]
	 SCS Total Energy          =    -980.9175546907304124 [Eh]
	-----------------------------------------------------------

*** Psi4 exiting successfully. Buy a developer a beer!
