                               Psi4 1.9 release

  ==> Input File <==

--------------------------------------------------------------------------
MEMORY 60 GB

molecule dimer {
1 1
K          0.000000     0.000000     0.000000
O          0.704593     2.672626    -0.531703
H          0.790074     2.936738     0.376140
H          1.317312     3.212929    -0.980840
O         -1.197713    -1.859512    -1.372910
H         -2.150333    -1.931130    -1.386109
H         -0.850128    -2.373238    -2.128254
O          1.635817    -0.907089     2.354190
H          1.210872    -0.164479     2.804010
H          1.161959    -1.673206     2.621161
O         -2.270673     1.300048     0.691387
H         -2.299473     2.002233     0.085889
H         -3.090296     0.843730     0.534633
O         -1.272935     0.782182    -2.104475
H         -2.212545     0.909979    -2.084347
H         -1.080709     0.099361    -2.764455
O         -1.284125    -1.361771     2.068460
H         -2.157382    -1.391156     1.631680
H         -0.988509    -2.220408     2.362835
O          2.443972    -0.416390    -1.317300
H          3.116986    -1.065802    -1.491835
H          2.085578    -0.177653    -2.185105

units ang
no_reorient
no_com
symmetry c1
}

set {
basis        aug-cc-pVTZ
scf_type     df
}

energy("mp2")
--------------------------------------------------------------------------

    Molecular point group: c1

    Geometry (in Angstrom), charge = 1, multiplicity = 1:

       Center              X                  Y                   Z               Mass
    ------------   -----------------  -----------------  -----------------  -----------------
         K            0.000000000000     0.000000000000     0.000000000000    38.963706486400
         O            0.704593000000     2.672626000000    -0.531703000000    15.994914619570
         H            0.790074000000     2.936738000000     0.376140000000     1.007825032230
         H            1.317312000000     3.212929000000    -0.980840000000     1.007825032230
         O           -1.197713000000    -1.859512000000    -1.372910000000    15.994914619570
         H           -2.150333000000    -1.931130000000    -1.386109000000     1.007825032230
         H           -0.850128000000    -2.373238000000    -2.128254000000     1.007825032230
         O            1.635817000000    -0.907089000000     2.354190000000    15.994914619570
         H            1.210872000000    -0.164479000000     2.804010000000     1.007825032230
         H            1.161959000000    -1.673206000000     2.621161000000     1.007825032230
         O           -2.270673000000     1.300048000000     0.691387000000    15.994914619570
         H           -2.299473000000     2.002233000000     0.085889000000     1.007825032230
         H           -3.090296000000     0.843730000000     0.534633000000     1.007825032230
         O           -1.272935000000     0.782182000000    -2.104475000000    15.994914619570
         H           -2.212545000000     0.909979000000    -2.084347000000     1.007825032230
         H           -1.080709000000     0.099361000000    -2.764455000000     1.007825032230
         O           -1.284125000000    -1.361771000000     2.068460000000    15.994914619570
         H           -2.157382000000    -1.391156000000     1.631680000000     1.007825032230
         H           -0.988509000000    -2.220408000000     2.362835000000     1.007825032230
         O            2.443972000000    -0.416390000000    -1.317300000000    15.994914619570
         H            3.116986000000    -1.065802000000    -1.491835000000     1.007825032230
         H            2.085578000000    -0.177653000000    -2.185105000000     1.007825032230

  Charge       = 1
  Multiplicity = 1
  Basis Set: AUG-CC-PVTZ
    Blend: AUG-CC-PVTZ
  Basis Set: (AUG-CC-PVTZ AUX)
    Blend: AUG-CC-PVTZ-JKFIT + DEF2-UNIVERSAL-JKFIT

    Orbital Energies [Eh]
    ---------------------

    Doubly Occupied:

       1A   -133.562247     2A    -20.723381     3A    -20.704835
       4A    -20.703199     5A    -20.700588     6A    -20.691716
       7A    -20.685663     8A    -20.675273     9A    -14.520959
      10A    -11.550776    11A    -11.550678    12A    -11.550625
      13A     -1.787147    14A     -1.511705    15A     -1.509310
      16A     -1.492263    17A     -1.486686    18A     -1.486529
      19A     -1.478222    20A     -1.466346    21A     -1.001710
      22A     -0.998666    23A     -0.997566    24A     -0.881383
      25A     -0.876318    26A     -0.867871    27A     -0.862743
      28A     -0.849177    29A     -0.843607    30A     -0.833310
      31A     -0.744905    32A     -0.738668    33A     -0.730866
      34A     -0.715499    35A     -0.712741    36A     -0.710902
      37A     -0.691147    38A     -0.685235    39A     -0.659123
      40A     -0.650470    41A     -0.639453    42A     -0.636486
      43A     -0.635127    44A     -0.621505

  @DF-RHF Final Energy: -1131.51265382653446

   => Energetics <=

    Nuclear Repulsion Energy =            588.3344419842167099
    One-Electron Energy =               -2722.8489287314018839
    Two-Electron Energy =                1003.0018329206509407
    Total Energy =                      -1131.5126538265344607
 Dipole X            :         26.6621252          -28.4878217           -1.8256965
 Dipole Y            :         -2.2248325            1.3013599           -0.9234726
 Dipole Z            :          6.5851894           -8.1322569           -1.5470675
 Magnitude           :                                                    2.5650316
  Basis Set: (AUG-CC-PVTZ AUX)
    Blend: AUG-CC-PVTZ-RI + DEF2-QZVPP-RI
	 Reference Energy          =   -1131.5126538265344607 [Eh]
	 Singles Energy            =      -0.0000000000000000 [Eh]
	 Same-Spin Energy          =      -0.5293513253075413 [Eh]
	 Opposite-Spin Energy      =      -1.6168589550857251 [Eh]
	 Correlation Energy        =      -2.1462102803932663 [Eh]
	 Total Energy              =   -1133.6588641069276946 [Eh]

	 ================> DF-SCS-MP2 Energies <==================
	-----------------------------------------------------------
	 SCS Same-Spin Scale       =       0.3333333333333333 [-]
	 SCS Opposite-Spin Scale   =       1.2000000000000000 [-]
	 SCS Same-Spin Energy      =      -0.1764504417691804 [Eh]
	 SCS Opposite-Spin Energy  =      -1.9402307461028701 [Eh]
	 SCS Correlation Energy    =      -2.1166811878720506 [Eh]
	 SCS Total Energy          =   -1133.6293350144064789 [Eh]
	-----------------------------------------------------------

*** Psi4 exiting successfully. Buy a developer a beer!
