                               Psi4 1.9 release

  ==> Input File <==

--------------------------------------------------------------------------
MEMORY 60 GB

molecule dimer {
1 1
K          0.000000     0.000000     0.000000
Gh(O)     -1.065191    -0.359975    -2.461163
Gh(H)     -1.794196    -0.828061    -2.830220
Gh(H)     -1.027565     0.480586    -2.947244
Gh(O)      2.344028     1.678726    -0.213882
Gh(H)      3.157394     1.389741    -0.585666
Gh(H)      2.557494     1.811841     0.674913
Gh(O)     -1.246221     2.415696    -0.621119
Gh(H)     -2.238963     2.335390    -0.711467
Gh(H)     -0.854818     2.401486    -1.478482
Gh(O)     -1.890709     0.266806     2.144480
Gh(H)     -1.944298     1.042797     2.694641
Gh(H)     -2.715672     0.216960     1.683755

units ang
no_reorient
no_com
symmetry c1
}

set {
basis        aug-cc-pVTZ
scf_type     df
}

energy("mp2")
--------------------------------------------------------------------------

    Molecular point group: c1

    Geometry (in Angstrom), charge = 1, multiplicity = 1:

       Center              X                  Y                   Z               Mass
    ------------   -----------------  -----------------  -----------------  -----------------
         K            0.000000000000     0.000000000000     0.000000000000    38.963706486400
      Gh(O)          -1.065191000000    -0.359975000000    -2.461163000000    15.994914619570
      Gh(H)          -1.794196000000    -0.828061000000    -2.830220000000     1.007825032230
      Gh(H)          -1.027565000000     0.480586000000    -2.947244000000     1.007825032230
      Gh(O)           2.344028000000     1.678726000000    -0.213882000000    15.994914619570
      Gh(H)           3.157394000000     1.389741000000    -0.585666000000     1.007825032230
      Gh(H)           2.557494000000     1.811841000000     0.674913000000     1.007825032230
      Gh(O)          -1.246221000000     2.415696000000    -0.621119000000    15.994914619570
      Gh(H)          -2.238963000000     2.335390000000    -0.711467000000     1.007825032230
      Gh(H)          -0.854818000000     2.401486000000    -1.478482000000     1.007825032230
      Gh(O)          -1.890709000000     0.266806000000     2.144480000000    15.994914619570
      Gh(H)          -1.944298000000     1.042797000000     2.694641000000     1.007825032230
      Gh(H)          -2.715672000000     0.216960000000     1.683755000000     1.007825032230

  Charge       = 1
  Multiplicity = 1
  Basis Set: AUG-CC-PVTZ
    Blend: AUG-CC-PVTZ
  Basis Set: (AUG-CC-PVTZ AUX)
    Blend: AUG-CC-PVTZ-JKFIT + DEF2-UNIVERSAL-JKFIT

    Orbital Energies [Eh]
    ---------------------

    Doubly Occupied:

       1A   -133.752816     2A    -14.708444     3A    -11.738507
       4A    -11.738506     5A    -11.738506     6A     -1.963994
       7A     -1.170681     8A     -1.170674     9A     -1.170656

  @DF-RHF Final Energy:  -599.01751463235178

   => Energetics <=

    Nuclear Repulsion Energy =              0.0000000000000000
    One-Electron Energy =                -819.7294650741509940
    Two-Electron Energy =                 220.7119504417991607
    Total Energy =                       -599.0175146323517765
 Dipole X            :         -0.0001896            0.0000000           -0.0001896
 Dipole Y            :          0.0003648            0.0000000            0.0003648
 Dipole Z            :         -0.0001236            0.0000000           -0.0001236
 Magnitude           :                                                    0.0004293
  Basis Set: (AUG-CC-PVTZ AUX)
    Blend: AUG-CC-PVTZ-RI + DEF2-QZVPP-RI
	 Reference Energy          =    -599.0175146323517765 [Eh]
	 Singles Energy            =      -0.0000000000000000 [Eh]
	 Same-Spin Energy          =      -0.0344600509366107 [Eh]
	 Opposite-Spin Energy      =      -0.0828351957112577 [Eh]
	 Correlation Energy        =      -0.1172952466478684 [Eh]
	 Total Energy              =    -599.1348098789995902 [Eh]

	 ================> DF-SCS-MP2 Energies <==================
	-----------------------------------------------------------
	 SCS Same-Spin Scale       =       0.3333333333333333 [-]
	 SCS Opposite-Spin Scale   =       1.2000000000000000 [-]
	 SCS Same-Spin Energy      =      -0.0114866836455369 [Eh]
	 SCS Opposite-Spin Energy  =      -0.0994022348535093 [Eh]
	 SCS Correlation Energy    =      -0.1108889184990462 [Eh]
	 SCS Total Energy          =    -599.1284035508508623 [Eh]
	-----------------------------------------------------------

*** Psi4 exiting successfully. Buy a developer a beer!
