                               Psi4 1.9 release

  ==> Input File <==

--------------------------------------------------------------------------
MEMORY 60 GB

molecule dimer {
0 1
Gh(K)      0.000000     0.000000     0.000000
Gh(O)     -1.333192     2.296700    -0.143276
Gh(H)     -1.880572     2.324349     0.647278
Gh(H)     -0.939747     3.150442    -0.123998
Gh(O)      1.513983    -2.323742    -0.943847
Gh(H)      2.366267    -2.226553    -1.343372
Gh(H)      0.936856    -2.841776    -1.569285
Gh(O)     -2.132906    -0.990787    -1.068623
Gh(H)     -2.264157    -1.131510    -1.972940
Gh(H)     -2.972426    -0.581761    -0.773426
O         -1.301569    -1.185610     1.910969
H         -1.209146    -1.149223     2.904024
H         -2.251409    -1.284523     1.765089
Gh(O)     -0.090714     1.371623     2.527585
Gh(H)      0.344682     2.259132     2.564693
Gh(H)     -0.971008     1.365010     2.948526
Gh(O)      1.429543     1.188070    -2.089276
Gh(H)      2.048565     0.859537    -2.779898
Gh(H)      1.883227     1.964633    -1.731157

units ang
no_reorient
no_com
symmetry c1
}

set {
basis        aug-cc-pVTZ
scf_type     df
}

energy("mp2")
--------------------------------------------------------------------------

    Molecular point group: c1

    Geometry (in Angstrom), charge = 0, multiplicity = 1:

       Center              X                  Y                   Z               Mass
    ------------   -----------------  -----------------  -----------------  -----------------
      Gh(K)           0.000000000000     0.000000000000     0.000000000000    38.963706486400
      Gh(O)          -1.333192000000     2.296700000000    -0.143276000000    15.994914619570
      Gh(H)          -1.880572000000     2.324349000000     0.647278000000     1.007825032230
      Gh(H)          -0.939747000000     3.150442000000    -0.123998000000     1.007825032230
      Gh(O)           1.513983000000    -2.323742000000    -0.943847000000    15.994914619570
      Gh(H)           2.366267000000    -2.226553000000    -1.343372000000     1.007825032230
      Gh(H)           0.936856000000    -2.841776000000    -1.569285000000     1.007825032230
      Gh(O)          -2.132906000000    -0.990787000000    -1.068623000000    15.994914619570
      Gh(H)          -2.264157000000    -1.131510000000    -1.972940000000     1.007825032230
      Gh(H)          -2.972426000000    -0.581761000000    -0.773426000000     1.007825032230
         O           -1.301569000000    -1.185610000000     1.910969000000    15.994914619570
         H           -1.209146000000    -1.149223000000     2.904024000000     1.007825032230
         H           -2.251409000000    -1.284523000000     1.765089000000     1.007825032230
      Gh(O)          -0.090714000000     1.371623000000     2.527585000000    15.994914619570
      Gh(H)           0.344682000000     2.259132000000     2.564693000000     1.007825032230
      Gh(H)          -0.971008000000     1.365010000000     2.948526000000     1.007825032230
      Gh(O)           1.429543000000     1.188070000000    -2.089276000000    15.994914619570
      Gh(H)           2.048565000000     0.859537000000    -2.779898000000     1.007825032230
      Gh(H)           1.883227000000     1.964633000000    -1.731157000000     1.007825032230

  Charge       = 0
  Multiplicity = 1
  Basis Set: AUG-CC-PVTZ
    Blend: AUG-CC-PVTZ
  Basis Set: (AUG-CC-PVTZ AUX)
    Blend: AUG-CC-PVTZ-JKFIT + DEF2-UNIVERSAL-JKFIT

    Orbital Energies [Eh]
    ---------------------

    Doubly Occupied:

       1A    -20.571419     2A     -1.341498     3A     -0.703837
       4A     -0.580631     5A     -0.508456

  @DF-RHF Final Energy:   -76.05751679977718

   => Energetics <=

    Nuclear Repulsion Energy =              8.9654873166431113
    One-Electron Energy =                -122.6343237107189879
    Two-Electron Energy =                  37.6113195942987133
    Total Energy =                        -76.0575167997771757
 Dipole X            :         25.6517338          -26.2163727           -0.5646389
 Dipole Y            :         22.4812882          -22.5229389           -0.0416508
 Dipole Z            :        -37.1629257           37.7130092            0.5500834
 Magnitude           :                                                    0.7893945
  Basis Set: (AUG-CC-PVTZ AUX)
    Blend: AUG-CC-PVTZ-RI + DEF2-QZVPP-RI
	 Reference Energy          =     -76.0575167997771757 [Eh]
	 Singles Energy            =      -0.0000000000000000 [Eh]
	 Same-Spin Energy          =      -0.0688409339548053 [Eh]
	 Opposite-Spin Energy      =      -0.2171174673455688 [Eh]
	 Correlation Energy        =      -0.2859584013003741 [Eh]
	 Total Energy              =     -76.3434752010775526 [Eh]

	 ================> DF-SCS-MP2 Energies <==================
	-----------------------------------------------------------
	 SCS Same-Spin Scale       =       0.3333333333333333 [-]
	 SCS Opposite-Spin Scale   =       1.2000000000000000 [-]
	 SCS Same-Spin Energy      =      -0.0229469779849351 [Eh]
	 SCS Opposite-Spin Energy  =      -0.2605409608146826 [Eh]
	 SCS Correlation Energy    =      -0.2834879387996177 [Eh]
	 SCS Total Energy          =     -76.3410047385767996 [Eh]
	-----------------------------------------------------------

*** Psi4 exiting successfully. Buy a developer a beer!
