                               Psi4 1.9 release

  ==> Input File <==

--------------------------------------------------------------------------
MEMORY 60 GB

molecule dimer {
1 1
K      0.000000     0.000000     0.000000
--
0 1
O      0.681155     2.280734     1.579374
H      1.434766     2.011871     2.145198
H      0.845222     3.254319     1.420636
O     -1.480588    -0.767019     2.170820
H     -1.496644    -0.560012     3.066086
H     -1.412629    -1.742263     2.240040
O      0.032695    -2.723352     0.280396
H     -0.173080    -3.362364    -0.391988
H     -0.080478    -3.178871     1.104535
O     -1.492386    -0.320905    -2.637511
H     -2.319056    -0.727991    -2.799845
H     -1.445518     0.545652    -3.153064
O      1.881515    -0.602297    -1.732872
H      1.948772     0.342778    -2.034686
H      1.337631    -1.036198    -2.474607

units ang
no_reorient
no_com
symmetry c1
}

set {
basis        aug-cc-pVTZ
scf_type     df
}

energy("mp2", bsse_type="cp")
--------------------------------------------------------------------------

                               Psi4 1.9 release
    Molecular point group: c1
  Charge       = 0
  Multiplicity = 1
  Basis Set: AUG-CC-PVTZ
    Blend: AUG-CC-PVTZ
  Basis Set: (AUG-CC-PVTZ AUX)
    Blend: AUG-CC-PVTZ-JKFIT + DEF2-UNIVERSAL-JKFIT
  @DF-RHF Final Energy:  -380.27146854834797
    Total Energy =                       -380.2714685483479684
 Dipole X            :          7.8299312           -8.2805645           -0.4506333
 Dipole Y            :         40.5675670          -40.6589524           -0.0913853
 Dipole Z            :          6.6586206           -6.7955288           -0.1369083
 Magnitude           :                                                    0.4797557
  Basis Set: (AUG-CC-PVTZ AUX)
    Blend: AUG-CC-PVTZ-RI + DEF2-QZVPP-RI
	 Reference Energy          =    -380.2714685483479684 [Eh]
	 Singles Energy            =      -0.0000000000000000 [Eh]
	 Same-Spin Energy          =      -0.3452997696591992 [Eh]
	 Opposite-Spin Energy      =      -1.0850005826198550 [Eh]
	 Correlation Energy        =      -1.4303003522790543 [Eh]
	 Total Energy              =    -381.7017689006270302 [Eh]
	 SCS Total Energy          =    -381.6885691707115029 [Eh]
                               Psi4 1.9 release
    Molecular point group: c1
  Multiplicity = 1
  Basis Set: AUG-CC-PVTZ
    Blend: AUG-CC-PVTZ
  Basis Set: (AUG-CC-PVTZ AUX)
    Blend: AUG-CC-PVTZ-JKFIT + DEF2-UNIVERSAL-JKFIT
  @DF-RHF Final Energy:  -599.01751565845029
    Total Energy =                       -599.0175156584502929
  Basis Set: (AUG-CC-PVTZ AUX)
	 Singles Energy            =      -0.0000000000000000 [Eh]
	 Same-Spin Energy          =      -0.0365145625474259 [Eh]
	 Opposite-Spin Energy      =      -0.0886697326637993 [Eh]
	 Correlation Energy        =      -0.1251842952112252 [Eh]
	 Total Energy              =    -599.1426999536614630 [Eh]
	 SCS Total Energy          =    -599.1360908584960043 [Eh]
                               Psi4 1.9 release
    Molecular point group: c1

    Geometry (in Bohr), charge = 1, multiplicity = 1:

       Center              X                  Y                   Z               Mass
    ------------   -----------------  -----------------  -----------------  -----------------
         K            0.000000000000     0.000000000000     0.000000000000    38.963706486400
         O            1.287196398986     4.309962625020     2.984584309669    15.994914619570
         H            2.711314794119     3.801885189751     4.053836704880     1.007825032230
         H            1.597238095212     6.149771634874     2.684612963966     1.007825032230
         O           -2.797905824639    -1.449455843023     4.102255267666    15.994914619570
         H           -2.828247267310    -1.058269306970     5.794062817100     1.007825032230
         H           -2.669481926879    -3.292399908519     4.233062110071     1.007825032230
         O            0.061784595672    -5.146389423218     0.529871646674    15.994914619570
         H           -0.327073797794    -6.353947094099    -0.740749964466     1.007825032230
         H           -0.152081379125    -6.007195578160     2.087268645983     1.007825032230
         O           -2.820200813468    -0.606422562290    -4.984173442882    15.994914619570
         H           -4.382380709600    -1.375703611798    -5.290940243732     1.007825032230
         H           -2.731633129420     1.031132839808    -5.958427416041     1.007825032230
         O            3.555548050941    -1.138176376185    -3.274653490474    15.994914619570
         H            3.682645360961     0.647756541832    -3.844999291303     1.007825032230
         H            2.527756246922    -1.958130431747    -4.676329498141     1.007825032230

  Charge       = 1
  Multiplicity = 1
  Basis Set: AUG-CC-PVTZ
    Blend: AUG-CC-PVTZ
  Basis Set: (AUG-CC-PVTZ AUX)
    Blend: AUG-CC-PVTZ-JKFIT + DEF2-UNIVERSAL-JKFIT

    Orbital Energies [Eh]
    ---------------------

    Doubly Occupied:

       1A   -133.602349     2A    -20.714074     3A    -20.712551
       4A    -20.711864     5A    -20.711833     6A    -20.707207
       7A    -14.560125     8A    -11.590043     9A    -11.589966
      10A    -11.589859    11A     -1.822823    12A     -1.508038
      13A     -1.503597    14A     -1.489804    15A     -1.480030
      16A     -1.475156    17A     -1.033896    18A     -1.032703
      19A     -1.030943    20A     -0.876026    21A     -0.863626
      22A     -0.850249    23A     -0.839214    24A     -0.830273
      25A     -0.745759    26A     -0.740764    27A     -0.728478
      28A     -0.727124    29A     -0.719302    30A     -0.662062
      31A     -0.656491    32A     -0.655516    33A     -0.651857
      34A     -0.650567

  @DF-RHF Final Energy:  -979.38508717896582

   => Energetics <=

    Nuclear Repulsion Energy =            342.9140300781264159
    One-Electron Energy =               -2024.4698856443353634
    Two-Electron Energy =                 702.1707683872431289
    Total Energy =                       -979.3850871789658186
 Dipole X            :          7.8244233           -8.2805645           -0.4561412
 Dipole Y            :         40.3467517          -40.6589524           -0.3122007
 Dipole Z            :          6.6510771           -6.7955288           -0.1444517
 Magnitude           :                                                    0.5713146
  Basis Set: (AUG-CC-PVTZ AUX)
    Blend: AUG-CC-PVTZ-RI + DEF2-QZVPP-RI
	 Reference Energy          =    -979.3850871789658186 [Eh]
	 Singles Energy            =      -0.0000000000000000 [Eh]
	 Same-Spin Energy          =      -0.3847850960198971 [Eh]
	 Opposite-Spin Energy      =      -1.1729125190073661 [Eh]
	 Correlation Energy        =      -1.5576976150272632 [Eh]
	 Total Energy              =    -980.9427847939930416 [Eh]

	 ================> DF-SCS-MP2 Energies <==================
	-----------------------------------------------------------
	 SCS Same-Spin Scale       =       0.3333333333333333 [-]
	 SCS Opposite-Spin Scale   =       1.2000000000000000 [-]
	 SCS Same-Spin Energy      =      -0.1282616986732990 [Eh]
	 SCS Opposite-Spin Energy  =      -1.4074950228088394 [Eh]
	 SCS Correlation Energy    =      -1.5357567214821384 [Eh]
	 SCS Total Energy          =    -980.9208439004479487 [Eh]
	-----------------------------------------------------------

*** Psi4 exiting successfully. Buy a developer a beer!
