                               Psi4 1.9 release

  ==> Input File <==

--------------------------------------------------------------------------
MEMORY 60 GB

molecule dimer {
0 1
Gh(K)      0.000000     0.000000     0.000000
Gh(O)     -0.158022     2.608578     1.147004
Gh(H)      0.778541     2.831193     1.130168
Gh(H)     -0.228366     2.308447     2.057572
Gh(O)     -1.767346    -2.230905    -0.785771
Gh(H)     -2.087801    -2.169927    -1.696826
Gh(H)     -2.527003    -2.096316    -0.221399
Gh(O)      1.439540    -2.376480     1.228611
Gh(H)      1.067889    -2.424152     2.106189
Gh(H)      1.986049    -1.618527     1.188671
Gh(O)     -1.986305     0.233870     1.438597
Gh(H)     -1.622188     0.473677     2.306353
Gh(H)     -2.457775    -0.572894     1.536495
Gh(O)      2.680467     0.114131     1.167824
Gh(H)      3.575436    -0.195890     1.157789
Gh(H)      2.770527     1.065655     1.118983
O          1.234135    -0.006082    -2.458831
H          1.742476     0.690149    -2.804107
H          0.474861     0.027884    -3.034969

units ang
no_reorient
no_com
symmetry c1
}

set {
basis        aug-cc-pVTZ
scf_type     df
}

energy("mp2")
--------------------------------------------------------------------------

    Molecular point group: c1

    Geometry (in Angstrom), charge = 0, multiplicity = 1:

       Center              X                  Y                   Z               Mass
    ------------   -----------------  -----------------  -----------------  -----------------
      Gh(K)           0.000000000000     0.000000000000     0.000000000000    38.963706486400
      Gh(O)          -0.158022000000     2.608578000000     1.147004000000    15.994914619570
      Gh(H)           0.778541000000     2.831193000000     1.130168000000     1.007825032230
      Gh(H)          -0.228366000000     2.308447000000     2.057572000000     1.007825032230
      Gh(O)          -1.767346000000    -2.230905000000    -0.785771000000    15.994914619570
      Gh(H)          -2.087801000000    -2.169927000000    -1.696826000000     1.007825032230
      Gh(H)          -2.527003000000    -2.096316000000    -0.221399000000     1.007825032230
      Gh(O)           1.439540000000    -2.376480000000     1.228611000000    15.994914619570
      Gh(H)           1.067889000000    -2.424152000000     2.106189000000     1.007825032230
      Gh(H)           1.986049000000    -1.618527000000     1.188671000000     1.007825032230
      Gh(O)          -1.986305000000     0.233870000000     1.438597000000    15.994914619570
      Gh(H)          -1.622188000000     0.473677000000     2.306353000000     1.007825032230
      Gh(H)          -2.457775000000    -0.572894000000     1.536495000000     1.007825032230
      Gh(O)           2.680467000000     0.114131000000     1.167824000000    15.994914619570
      Gh(H)           3.575436000000    -0.195890000000     1.157789000000     1.007825032230
      Gh(H)           2.770527000000     1.065655000000     1.118983000000     1.007825032230
         O            1.234135000000    -0.006082000000    -2.458831000000    15.994914619570
         H            1.742476000000     0.690149000000    -2.804107000000     1.007825032230
         H            0.474861000000     0.027884000000    -3.034969000000     1.007825032230

  Charge       = 0
  Multiplicity = 1
  Basis Set: AUG-CC-PVTZ
    Blend: AUG-CC-PVTZ
  Basis Set: (AUG-CC-PVTZ AUX)
    Blend: AUG-CC-PVTZ-JKFIT + DEF2-UNIVERSAL-JKFIT

    Orbital Energies [Eh]
    ---------------------

    Doubly Occupied:

       1A    -20.565719     2A     -1.365144     3A     -0.718727
       4A     -0.595608     5A     -0.512801

  @DF-RHF Final Energy:   -76.06005230978874

   => Energetics <=

    Nuclear Repulsion Energy =              9.3628658869771826
    One-Electron Energy =                -123.3298357778036660
    Two-Electron Energy =                  37.9069175810377175
    Total Energy =                        -76.0600523097887589
 Dipole X            :        -23.0099433           22.8475769           -0.1623664
 Dipole Y            :         -0.7776523            1.2649392            0.4872869
 Dipole Z            :         47.5947764          -48.2063919           -0.6116155
 Magnitude           :                                                    0.7986769
  Basis Set: (AUG-CC-PVTZ AUX)
    Blend: AUG-CC-PVTZ-RI + DEF2-QZVPP-RI
	 Reference Energy          =     -76.0600523097887447 [Eh]
	 Singles Energy            =      -0.0000000000000000 [Eh]
	 Same-Spin Energy          =      -0.0681878217557396 [Eh]
	 Opposite-Spin Energy      =      -0.2149400221234964 [Eh]
	 Correlation Energy        =      -0.2831278438792360 [Eh]
	 Total Energy              =     -76.3431801536679870 [Eh]

	 ================> DF-SCS-MP2 Energies <==================
	-----------------------------------------------------------
	 SCS Same-Spin Scale       =       0.3333333333333333 [-]
	 SCS Opposite-Spin Scale   =       1.2000000000000000 [-]
	 SCS Same-Spin Energy      =      -0.0227292739185799 [Eh]
	 SCS Opposite-Spin Energy  =      -0.2579280265481957 [Eh]
	 SCS Correlation Energy    =      -0.2806573004667756 [Eh]
	 SCS Total Energy          =     -76.3407096102555158 [Eh]
	-----------------------------------------------------------

*** Psi4 exiting successfully. Buy a developer a beer!
