                               Psi4 1.9 release

  ==> Input File <==

--------------------------------------------------------------------------
MEMORY 60 GB

molecule dimer {
0 1
Gh(K)      0.000000     0.000000     0.000000
O          1.071555     0.954094    -2.190576
H          0.988044     0.627626    -3.082246
H          2.033843     1.175330    -2.123700
Gh(O)      0.274950    -2.378870     1.386517
Gh(H)      1.061758    -2.885643     1.678485
Gh(H)     -0.286488    -2.176641     2.185497
Gh(O)     -2.600308    -0.631598     1.158703
Gh(H)     -3.127240     0.272988     1.162722
Gh(H)     -3.320091    -1.304406     1.282020
Gh(O)      1.663337     0.245190     1.974484
Gh(H)      1.864456    -0.680749     1.983483
Gh(H)      0.980603     0.492300     2.612029
Gh(O)     -1.135864     2.411578    -0.478100
Gh(H)     -1.659332     3.079461    -0.022507
Gh(H)     -0.274050     2.843524    -0.678120

units ang
no_reorient
no_com
symmetry c1
}

set {
basis        aug-cc-pVTZ
scf_type     df
}

energy("mp2")
--------------------------------------------------------------------------

    Molecular point group: c1

    Geometry (in Angstrom), charge = 0, multiplicity = 1:

       Center              X                  Y                   Z               Mass
    ------------   -----------------  -----------------  -----------------  -----------------
      Gh(K)           0.000000000000     0.000000000000     0.000000000000    38.963706486400
         O            1.071555000000     0.954094000000    -2.190576000000    15.994914619570
         H            0.988044000000     0.627626000000    -3.082246000000     1.007825032230
         H            2.033843000000     1.175330000000    -2.123700000000     1.007825032230
      Gh(O)           0.274950000000    -2.378870000000     1.386517000000    15.994914619570
      Gh(H)           1.061758000000    -2.885643000000     1.678485000000     1.007825032230
      Gh(H)          -0.286488000000    -2.176641000000     2.185497000000     1.007825032230
      Gh(O)          -2.600308000000    -0.631598000000     1.158703000000    15.994914619570
      Gh(H)          -3.127240000000     0.272988000000     1.162722000000     1.007825032230
      Gh(H)          -3.320091000000    -1.304406000000     1.282020000000     1.007825032230
      Gh(O)           1.663337000000     0.245190000000     1.974484000000    15.994914619570
      Gh(H)           1.864456000000    -0.680749000000     1.983483000000     1.007825032230
      Gh(H)           0.980603000000     0.492300000000     2.612029000000     1.007825032230
      Gh(O)          -1.135864000000     2.411578000000    -0.478100000000    15.994914619570
      Gh(H)          -1.659332000000     3.079461000000    -0.022507000000     1.007825032230
      Gh(H)          -0.274050000000     2.843524000000    -0.678120000000     1.007825032230

  Charge       = 0
  Multiplicity = 1
  Basis Set: AUG-CC-PVTZ
    Blend: AUG-CC-PVTZ
  Basis Set: (AUG-CC-PVTZ AUX)
    Blend: AUG-CC-PVTZ-JKFIT + DEF2-UNIVERSAL-JKFIT

    Orbital Energies [Eh]
    ---------------------

    Doubly Occupied:

       1A    -20.570161     2A     -1.347678     3A     -0.707285
       4A     -0.584985     5A     -0.509651

  @DF-RHF Final Energy:   -76.05864822695931

   => Energetics <=

    Nuclear Repulsion Energy =              9.0668282364766988
    One-Electron Energy =                -122.8114301914561253
    Two-Electron Energy =                  37.6859537280201238
    Total Energy =                        -76.0586482269593063
 Dipole X            :        -21.3377776           21.9101026            0.5723250
 Dipole Y            :        -17.9023697           17.8309039           -0.0714658
 Dipole Z            :         42.4088904          -42.9545217           -0.5456313
 Magnitude           :                                                    0.7939627
  Basis Set: (AUG-CC-PVTZ AUX)
    Blend: AUG-CC-PVTZ-RI + DEF2-QZVPP-RI
	 Reference Energy          =     -76.0586482269593063 [Eh]
	 Singles Energy            =      -0.0000000000000000 [Eh]
	 Same-Spin Energy          =      -0.0686602918294971 [Eh]
	 Opposite-Spin Energy      =      -0.2164092825193609 [Eh]
	 Correlation Energy        =      -0.2850695743488580 [Eh]
	 Total Energy              =     -76.3437178013081592 [Eh]

	 ================> DF-SCS-MP2 Energies <==================
	-----------------------------------------------------------
	 SCS Same-Spin Scale       =       0.3333333333333333 [-]
	 SCS Opposite-Spin Scale   =       1.2000000000000000 [-]
	 SCS Same-Spin Energy      =      -0.0228867639431657 [Eh]
	 SCS Opposite-Spin Energy  =      -0.2596911390232330 [Eh]
	 SCS Correlation Energy    =      -0.2825779029663987 [Eh]
	 SCS Total Energy          =     -76.3412261299257011 [Eh]
	-----------------------------------------------------------

*** Psi4 exiting successfully. Buy a developer a beer!
