                               Psi4 1.9 release

  ==> Input File <==

--------------------------------------------------------------------------
MEMORY 60 GB

molecule dimer {
0 1
Gh(K)      0.000000     0.000000     0.000000
Gh(O)      2.852757    -0.334051    -0.186806
Gh(H)      3.665059    -0.772002     0.113705
Gh(H)      2.976979    -0.248733    -1.158383
Gh(O)     -1.826235    -0.322399    -1.984574
Gh(H)     -1.297659    -0.061936    -2.754238
Gh(H)     -1.684865    -1.318774    -1.991083
O         -0.349652    -2.346622     1.050442
H          0.209215    -3.119233     1.249847
H         -1.269300    -2.641149     1.131510
Gh(O)     -1.923855    -0.178301     2.183220
Gh(H)     -1.437654    -1.016009     2.224042
Gh(H)     -2.508504    -0.247868     1.457316
Gh(O)      0.850534    -1.021556    -2.165011
Gh(H)      0.594881    -1.697915    -2.784155
Gh(H)      1.648642    -0.724977    -2.660875

units ang
no_reorient
no_com
symmetry c1
}

set {
basis        aug-cc-pVTZ
scf_type     df
}

energy("mp2")
--------------------------------------------------------------------------

    Molecular point group: c1

    Geometry (in Angstrom), charge = 0, multiplicity = 1:

       Center              X                  Y                   Z               Mass
    ------------   -----------------  -----------------  -----------------  -----------------
      Gh(K)           0.000000000000     0.000000000000     0.000000000000    38.963706486400
      Gh(O)           2.852757000000    -0.334051000000    -0.186806000000    15.994914619570
      Gh(H)           3.665059000000    -0.772002000000     0.113705000000     1.007825032230
      Gh(H)           2.976979000000    -0.248733000000    -1.158383000000     1.007825032230
      Gh(O)          -1.826235000000    -0.322399000000    -1.984574000000    15.994914619570
      Gh(H)          -1.297659000000    -0.061936000000    -2.754238000000     1.007825032230
      Gh(H)          -1.684865000000    -1.318774000000    -1.991083000000     1.007825032230
         O           -0.349652000000    -2.346622000000     1.050442000000    15.994914619570
         H            0.209215000000    -3.119233000000     1.249847000000     1.007825032230
         H           -1.269300000000    -2.641149000000     1.131510000000     1.007825032230
      Gh(O)          -1.923855000000    -0.178301000000     2.183220000000    15.994914619570
      Gh(H)          -1.437654000000    -1.016009000000     2.224042000000     1.007825032230
      Gh(H)          -2.508504000000    -0.247868000000     1.457316000000     1.007825032230
      Gh(O)           0.850534000000    -1.021556000000    -2.165011000000    15.994914619570
      Gh(H)           0.594881000000    -1.697915000000    -2.784155000000     1.007825032230
      Gh(H)           1.648642000000    -0.724977000000    -2.660875000000     1.007825032230

  Charge       = 0
  Multiplicity = 1
  Basis Set: AUG-CC-PVTZ
    Blend: AUG-CC-PVTZ
  Basis Set: (AUG-CC-PVTZ AUX)
    Blend: AUG-CC-PVTZ-JKFIT + DEF2-UNIVERSAL-JKFIT

    Orbital Energies [Eh]
    ---------------------

    Doubly Occupied:

       1A    -20.568561     2A     -1.344712     3A     -0.713863
       4A     -0.577983     5A     -0.508502

  @DF-RHF Final Energy:   -76.05934208414172

   => Energetics <=

    Nuclear Repulsion Energy =              9.0537953897880836
    One-Electron Energy =                -122.7990309751173186
    Two-Electron Energy =                  37.6858935011875218
    Total Energy =                        -76.0593420841417185
 Dipole X            :          7.0492537           -7.2892425           -0.2399888
 Dipole Y            :         45.6537862          -46.3613276           -0.7075414
 Dipole Z            :        -20.1944858           20.3804941            0.1860083
 Magnitude           :                                                    0.7699406
  Basis Set: (AUG-CC-PVTZ AUX)
    Blend: AUG-CC-PVTZ-RI + DEF2-QZVPP-RI
	 Reference Energy          =     -76.0593420841417185 [Eh]
	 Singles Energy            =      -0.0000000000000000 [Eh]
	 Same-Spin Energy          =      -0.0686310910648504 [Eh]
	 Opposite-Spin Energy      =      -0.2165228461102746 [Eh]
	 Correlation Energy        =      -0.2851539371751249 [Eh]
	 Total Energy              =     -76.3444960213168429 [Eh]

	 ================> DF-SCS-MP2 Energies <==================
	-----------------------------------------------------------
	 SCS Same-Spin Scale       =       0.3333333333333333 [-]
	 SCS Opposite-Spin Scale   =       1.2000000000000000 [-]
	 SCS Same-Spin Energy      =      -0.0228770303549501 [Eh]
	 SCS Opposite-Spin Energy  =      -0.2598274153323294 [Eh]
	 SCS Correlation Energy    =      -0.2827044456872796 [Eh]
	 SCS Total Energy          =     -76.3420465298289912 [Eh]
	-----------------------------------------------------------

*** Psi4 exiting successfully. Buy a developer a beer!
