                               Psi4 1.9 release

  ==> Input File <==

--------------------------------------------------------------------------
MEMORY 60 GB

molecule dimer {
0 1
Gh(K)      0.000000     0.000000     0.000000
O         -1.729110    -1.440725    -1.595164
H         -2.115495    -2.310628    -1.338981
H         -0.967161    -1.699838    -2.095225
Gh(O)      0.740104    -1.194157    -2.503143
Gh(H)      1.668496    -1.305924    -2.331578
Gh(H)      0.556187    -0.378147    -2.935790
Gh(O)      2.193072    -0.562674     1.394934
Gh(H)      2.531896     0.323809     1.640430
Gh(H)      3.009910    -1.052773     1.088316
Gh(O)     -1.344795     2.320045    -0.663814
Gh(H)     -1.343982     2.818484     0.147861
Gh(H)     -0.624916     2.584864    -1.279756

units ang
no_reorient
no_com
symmetry c1
}

set {
basis        aug-cc-pVTZ
scf_type     df
}

energy("mp2")
--------------------------------------------------------------------------

    Molecular point group: c1

    Geometry (in Angstrom), charge = 0, multiplicity = 1:

       Center              X                  Y                   Z               Mass
    ------------   -----------------  -----------------  -----------------  -----------------
      Gh(K)           0.000000000000     0.000000000000     0.000000000000    38.963706486400
         O           -1.729110000000    -1.440725000000    -1.595164000000    15.994914619570
         H           -2.115495000000    -2.310628000000    -1.338981000000     1.007825032230
         H           -0.967161000000    -1.699838000000    -2.095225000000     1.007825032230
      Gh(O)           0.740104000000    -1.194157000000    -2.503143000000    15.994914619570
      Gh(H)           1.668496000000    -1.305924000000    -2.331578000000     1.007825032230
      Gh(H)           0.556187000000    -0.378147000000    -2.935790000000     1.007825032230
      Gh(O)           2.193072000000    -0.562674000000     1.394934000000    15.994914619570
      Gh(H)           2.531896000000     0.323809000000     1.640430000000     1.007825032230
      Gh(H)           3.009910000000    -1.052773000000     1.088316000000     1.007825032230
      Gh(O)          -1.344795000000     2.320045000000    -0.663814000000    15.994914619570
      Gh(H)          -1.343982000000     2.818484000000     0.147861000000     1.007825032230
      Gh(H)          -0.624916000000     2.584864000000    -1.279756000000     1.007825032230

  Charge       = 0
  Multiplicity = 1
  Basis Set: AUG-CC-PVTZ
    Blend: AUG-CC-PVTZ
  Basis Set: (AUG-CC-PVTZ AUX)
    Blend: AUG-CC-PVTZ-JKFIT + DEF2-UNIVERSAL-JKFIT

    Orbital Energies [Eh]
    ---------------------

    Doubly Occupied:

       1A    -20.569677     2A     -1.350735     3A     -0.708277
       4A     -0.587494     5A     -0.510277

  @DF-RHF Final Energy:   -76.05897467243405

   => Energetics <=

    Nuclear Repulsion Energy =              9.1144046268328740
    One-Electron Energy =                -122.8938337850437819
    Two-Electron Energy =                  37.7204544857768482
    Total Energy =                        -76.0589746724340614
 Dipole X            :         32.2177758          -31.9657303            0.2520455
 Dipole Y            :         28.6202204          -29.3592878           -0.7390674
 Dipole Z            :         30.4410516          -30.6050935           -0.1640419
 Magnitude           :                                                    0.7979081
  Basis Set: (AUG-CC-PVTZ AUX)
    Blend: AUG-CC-PVTZ-RI + DEF2-QZVPP-RI
	 Reference Energy          =     -76.0589746724340472 [Eh]
	 Singles Energy            =      -0.0000000000000000 [Eh]
	 Same-Spin Energy          =      -0.0686190952044580 [Eh]
	 Opposite-Spin Energy      =      -0.2165713781919224 [Eh]
	 Correlation Energy        =      -0.2851904733963804 [Eh]
	 Total Energy              =     -76.3441651458304307 [Eh]

	 ================> DF-SCS-MP2 Energies <==================
	-----------------------------------------------------------
	 SCS Same-Spin Scale       =       0.3333333333333333 [-]
	 SCS Opposite-Spin Scale   =       1.2000000000000000 [-]
	 SCS Same-Spin Energy      =      -0.0228730317348193 [Eh]
	 SCS Opposite-Spin Energy  =      -0.2598856538303069 [Eh]
	 SCS Correlation Energy    =      -0.2827586855651262 [Eh]
	 SCS Total Energy          =     -76.3417333579991748 [Eh]
	-----------------------------------------------------------

*** Psi4 exiting successfully. Buy a developer a beer!
