                               Psi4 1.9 release

  ==> Input File <==

--------------------------------------------------------------------------
MEMORY 60 GB

molecule dimer {
1 1
K          0.000000     0.000000     0.000000
Gh(O)      0.309615    -2.623382    -1.550755
Gh(H)      0.073529    -3.411695    -2.042004
Gh(H)      0.732044    -2.924054    -0.731434
Gh(O)     -2.529295     1.007717     0.149432
Gh(H)     -3.031134     1.319525    -0.599291
Gh(H)     -2.665484     0.041905     0.322961
Gh(O)      1.728418     1.676356     0.611770
Gh(H)      1.306700     2.209773     1.232986
Gh(H)      2.018027     2.273752    -0.126886
Gh(O)      0.635505    -0.312124     2.701636
Gh(H)     -0.164451    -0.813360     3.054926
Gh(H)      0.947635     0.214693     3.417860
Gh(O)      0.007774     0.682534    -2.427733
Gh(H)     -0.877989     0.809481    -2.864264
Gh(H)      0.577915     0.435714    -3.144891

units ang
no_reorient
no_com
symmetry c1
}

set {
basis        aug-cc-pVTZ
scf_type     df
}

energy("mp2")
--------------------------------------------------------------------------

    Molecular point group: c1

    Geometry (in Angstrom), charge = 1, multiplicity = 1:

       Center              X                  Y                   Z               Mass
    ------------   -----------------  -----------------  -----------------  -----------------
         K            0.000000000000     0.000000000000     0.000000000000    38.963706486400
      Gh(O)           0.309615000000    -2.623382000000    -1.550755000000    15.994914619570
      Gh(H)           0.073529000000    -3.411695000000    -2.042004000000     1.007825032230
      Gh(H)           0.732044000000    -2.924054000000    -0.731434000000     1.007825032230
      Gh(O)          -2.529295000000     1.007717000000     0.149432000000    15.994914619570
      Gh(H)          -3.031134000000     1.319525000000    -0.599291000000     1.007825032230
      Gh(H)          -2.665484000000     0.041905000000     0.322961000000     1.007825032230
      Gh(O)           1.728418000000     1.676356000000     0.611770000000    15.994914619570
      Gh(H)           1.306700000000     2.209773000000     1.232986000000     1.007825032230
      Gh(H)           2.018027000000     2.273752000000    -0.126886000000     1.007825032230
      Gh(O)           0.635505000000    -0.312124000000     2.701636000000    15.994914619570
      Gh(H)          -0.164451000000    -0.813360000000     3.054926000000     1.007825032230
      Gh(H)           0.947635000000     0.214693000000     3.417860000000     1.007825032230
      Gh(O)           0.007774000000     0.682534000000    -2.427733000000    15.994914619570
      Gh(H)          -0.877989000000     0.809481000000    -2.864264000000     1.007825032230
      Gh(H)           0.577915000000     0.435714000000    -3.144891000000     1.007825032230

  Charge       = 1
  Multiplicity = 1
  Basis Set: AUG-CC-PVTZ
    Blend: AUG-CC-PVTZ
  Basis Set: (AUG-CC-PVTZ AUX)
    Blend: AUG-CC-PVTZ-JKFIT + DEF2-UNIVERSAL-JKFIT

    Orbital Energies [Eh]
    ---------------------

    Doubly Occupied:

       1A   -133.752539     2A    -14.708230     3A    -11.738291
       4A    -11.738291     5A    -11.738289     6A     -1.963899
       7A     -1.170614     8A     -1.170597     9A     -1.170581

  @DF-RHF Final Energy:  -599.01751635750793

   => Energetics <=

    Nuclear Repulsion Energy =              0.0000000000000000
    One-Electron Energy =                -819.7323713165177423
    Two-Electron Energy =                 220.7148549590097559
    Total Energy =                       -599.0175163575079296
 Dipole X            :          0.0000224            0.0000000            0.0000224
 Dipole Y            :          0.0001193            0.0000000            0.0001193
 Dipole Z            :         -0.0000700            0.0000000           -0.0000700
 Magnitude           :                                                    0.0001401
  Basis Set: (AUG-CC-PVTZ AUX)
    Blend: AUG-CC-PVTZ-RI + DEF2-QZVPP-RI
	 Reference Energy          =    -599.0175163575079296 [Eh]
	 Singles Energy            =      -0.0000000000000000 [Eh]
	 Same-Spin Energy          =      -0.0379791767138872 [Eh]
	 Opposite-Spin Energy      =      -0.0928554191043094 [Eh]
	 Correlation Energy        =      -0.1308345958181966 [Eh]
	 Total Energy              =    -599.1483509533261440 [Eh]

	 ================> DF-SCS-MP2 Energies <==================
	-----------------------------------------------------------
	 SCS Same-Spin Scale       =       0.3333333333333333 [-]
	 SCS Opposite-Spin Scale   =       1.2000000000000000 [-]
	 SCS Same-Spin Energy      =      -0.0126597255712957 [Eh]
	 SCS Opposite-Spin Energy  =      -0.1114265029251712 [Eh]
	 SCS Correlation Energy    =      -0.1240862284964670 [Eh]
	 SCS Total Energy          =    -599.1416025860044101 [Eh]
	-----------------------------------------------------------

*** Psi4 exiting successfully. Buy a developer a beer!
