                               Psi4 1.9 release

  ==> Input File <==

--------------------------------------------------------------------------
MEMORY 60 GB

molecule dimer {
1 1
K          0.000000     0.000000     0.000000
O          2.308722    -0.254536     1.310408
H          2.584958    -1.137932     1.023431
H          3.054955     0.265354     1.083425
O          1.477763     2.323870     0.122954
H          2.452408     2.371039     0.056186
H          1.158784     2.999385    -0.587734
O         -1.887495     0.324605     2.201958
H         -2.756344     0.421092     1.806993
H         -1.987178     0.245204     3.192100
O         -1.051549    -2.482539     0.576865
H         -1.834601    -2.706293     0.062762
H         -0.429524    -3.204685     0.325775
O         -2.479303     0.827493    -1.047506
H         -2.128857     1.517229    -1.644836
H         -3.035895     1.330859    -0.414268
O          0.867083    -1.961681    -1.538513
H          1.235278    -2.602121    -0.912217
H          1.575310    -2.005697    -2.206580

units ang
no_reorient
no_com
symmetry c1
}

set {
basis        aug-cc-pVTZ
scf_type     df
}

energy("mp2")
--------------------------------------------------------------------------

    Molecular point group: c1

    Geometry (in Angstrom), charge = 1, multiplicity = 1:

       Center              X                  Y                   Z               Mass
    ------------   -----------------  -----------------  -----------------  -----------------
         K            0.000000000000     0.000000000000     0.000000000000    38.963706486400
         O            2.308722000000    -0.254536000000     1.310408000000    15.994914619570
         H            2.584958000000    -1.137932000000     1.023431000000     1.007825032230
         H            3.054955000000     0.265354000000     1.083425000000     1.007825032230
         O            1.477763000000     2.323870000000     0.122954000000    15.994914619570
         H            2.452408000000     2.371039000000     0.056186000000     1.007825032230
         H            1.158784000000     2.999385000000    -0.587734000000     1.007825032230
         O           -1.887495000000     0.324605000000     2.201958000000    15.994914619570
         H           -2.756344000000     0.421092000000     1.806993000000     1.007825032230
         H           -1.987178000000     0.245204000000     3.192100000000     1.007825032230
         O           -1.051549000000    -2.482539000000     0.576865000000    15.994914619570
         H           -1.834601000000    -2.706293000000     0.062762000000     1.007825032230
         H           -0.429524000000    -3.204685000000     0.325775000000     1.007825032230
         O           -2.479303000000     0.827493000000    -1.047506000000    15.994914619570
         H           -2.128857000000     1.517229000000    -1.644836000000     1.007825032230
         H           -3.035895000000     1.330859000000    -0.414268000000     1.007825032230
         O            0.867083000000    -1.961681000000    -1.538513000000    15.994914619570
         H            1.235278000000    -2.602121000000    -0.912217000000     1.007825032230
         H            1.575310000000    -2.005697000000    -2.206580000000     1.007825032230

  Charge       = 1
  Multiplicity = 1
  Basis Set: AUG-CC-PVTZ
    Blend: AUG-CC-PVTZ
  Basis Set: (AUG-CC-PVTZ AUX)
    Blend: AUG-CC-PVTZ-JKFIT + DEF2-UNIVERSAL-JKFIT

    Orbital Energies [Eh]
    ---------------------

    Doubly Occupied:

       1A   -133.575019     2A    -20.726024     3A    -20.715715
       4A    -20.711178     5A    -20.707294     6A    -20.696160
       7A    -20.686017     8A    -14.533329     9A    -11.563194
      10A    -11.563110    11A    -11.563009    12A     -1.797942
      13A     -1.509977    14A     -1.502048    15A     -1.485849
      16A     -1.475876    17A     -1.475584    18A     -1.459539
      19A     -1.011073    20A     -1.008312    21A     -1.007289
      22A     -0.861615    23A     -0.857687    24A     -0.848617
      25A     -0.832135    26A     -0.831234    27A     -0.828415
      28A     -0.756824    29A     -0.738435    30A     -0.726725
      31A     -0.723349    32A     -0.718688    33A     -0.696628
      34A     -0.671635    35A     -0.659451    36A     -0.652677
      37A     -0.647909    38A     -0.638948    39A     -0.626540

  @DF-RHF Final Energy: -1055.44094527285392

   => Energetics <=

    Nuclear Repulsion Energy =            458.2569927924952253
    One-Electron Energy =               -2359.2137653245949878
    Two-Electron Energy =                 845.5158272592460662
    Total Energy =                      -1055.4409452728536962
 Dipole X            :         12.6348236          -11.7709869            0.8638367
 Dipole Y            :         23.1350451          -23.2225987           -0.0875536
 Dipole Z            :        -28.8072306           27.9572981           -0.8499326
 Magnitude           :                                                    1.2150164
  Basis Set: (AUG-CC-PVTZ AUX)
    Blend: AUG-CC-PVTZ-RI + DEF2-QZVPP-RI
	 Reference Energy          =   -1055.4409452728539236 [Eh]
	 Singles Energy            =      -0.0000000000000000 [Eh]
	 Same-Spin Energy          =      -0.4585924003596381 [Eh]
	 Opposite-Spin Energy      =      -1.3998786965417673 [Eh]
	 Correlation Energy        =      -1.8584710969014053 [Eh]
	 Total Energy              =   -1057.2994163697553631 [Eh]

	 ================> DF-SCS-MP2 Energies <==================
	-----------------------------------------------------------
	 SCS Same-Spin Scale       =       0.3333333333333333 [-]
	 SCS Opposite-Spin Scale   =       1.2000000000000000 [-]
	 SCS Same-Spin Energy      =      -0.1528641334532127 [Eh]
	 SCS Opposite-Spin Energy  =      -1.6798544358501208 [Eh]
	 SCS Correlation Energy    =      -1.8327185693033337 [Eh]
	 SCS Total Energy          =   -1057.2736638421572479 [Eh]
	-----------------------------------------------------------

*** Psi4 exiting successfully. Buy a developer a beer!
