                               Psi4 1.9 release

  ==> Input File <==

--------------------------------------------------------------------------
MEMORY 60 GB

molecule dimer {
0 1
Gh(K)      0.000000     0.000000     0.000000
Gh(O)     -2.086159     0.979793     1.589776
Gh(H)     -3.028814     0.766582     1.420076
Gh(H)     -2.127653     1.886064     2.042990
O          0.522655     2.710535    -1.289778
H          0.985976     3.405292    -0.819517
H          1.081618     2.477180    -2.000586
Gh(O)      2.168619     1.148467     1.439584
Gh(H)      3.065140     0.771014     1.316407
Gh(H)      2.175125     2.118851     1.463488
Gh(O)     -0.693986    -0.163464    -2.667068
Gh(H)     -1.335091    -0.843039    -2.905198
Gh(H)     -0.999391     0.564417    -3.233427
Gh(O)     -1.675477    -1.828136     0.355903
Gh(H)     -2.093235    -2.067337    -0.492620
Gh(H)     -1.684285    -2.549478     0.982289

units ang
no_reorient
no_com
symmetry c1
}

set {
basis        aug-cc-pVTZ
scf_type     df
}

energy("mp2")
--------------------------------------------------------------------------

    Molecular point group: c1

    Geometry (in Angstrom), charge = 0, multiplicity = 1:

       Center              X                  Y                   Z               Mass
    ------------   -----------------  -----------------  -----------------  -----------------
      Gh(K)           0.000000000000     0.000000000000     0.000000000000    38.963706486400
      Gh(O)          -2.086159000000     0.979793000000     1.589776000000    15.994914619570
      Gh(H)          -3.028814000000     0.766582000000     1.420076000000     1.007825032230
      Gh(H)          -2.127653000000     1.886064000000     2.042990000000     1.007825032230
         O            0.522655000000     2.710535000000    -1.289778000000    15.994914619570
         H            0.985976000000     3.405292000000    -0.819517000000     1.007825032230
         H            1.081618000000     2.477180000000    -2.000586000000     1.007825032230
      Gh(O)           2.168619000000     1.148467000000     1.439584000000    15.994914619570
      Gh(H)           3.065140000000     0.771014000000     1.316407000000     1.007825032230
      Gh(H)           2.175125000000     2.118851000000     1.463488000000     1.007825032230
      Gh(O)          -0.693986000000    -0.163464000000    -2.667068000000    15.994914619570
      Gh(H)          -1.335091000000    -0.843039000000    -2.905198000000     1.007825032230
      Gh(H)          -0.999391000000     0.564417000000    -3.233427000000     1.007825032230
      Gh(O)          -1.675477000000    -1.828136000000     0.355903000000    15.994914619570
      Gh(H)          -2.093235000000    -2.067337000000    -0.492620000000     1.007825032230
      Gh(H)          -1.684285000000    -2.549478000000     0.982289000000     1.007825032230

  Charge       = 0
  Multiplicity = 1
  Basis Set: AUG-CC-PVTZ
    Blend: AUG-CC-PVTZ
  Basis Set: (AUG-CC-PVTZ AUX)
    Blend: AUG-CC-PVTZ-JKFIT + DEF2-UNIVERSAL-JKFIT

    Orbital Energies [Eh]
    ---------------------

    Doubly Occupied:

       1A    -20.564694     2A     -1.358886     3A     -0.725701
       4A     -0.585258     5A     -0.511047

  @DF-RHF Final Energy:   -76.06086678946727

   => Energetics <=

    Nuclear Repulsion Energy =              9.3019492057480306
    One-Electron Energy =                -123.2344565301817738
    Two-Electron Energy =                  37.8716405349664669
    Total Energy =                        -76.0608667894672692
 Dipole X            :        -11.1216830           11.8085849            0.6869019
 Dipole Y            :        -51.7860037           52.0936114            0.3076077
 Dipole Z            :         24.6627751          -24.8278398           -0.1650647
 Magnitude           :                                                    0.7705213
  Basis Set: (AUG-CC-PVTZ AUX)
    Blend: AUG-CC-PVTZ-RI + DEF2-QZVPP-RI
	 Reference Energy          =     -76.0608667894672692 [Eh]
	 Singles Energy            =      -0.0000000000000000 [Eh]
	 Same-Spin Energy          =      -0.0681663368691595 [Eh]
	 Opposite-Spin Energy      =      -0.2148882807604275 [Eh]
	 Correlation Energy        =      -0.2830546176295870 [Eh]
	 Total Energy              =     -76.3439214070968575 [Eh]

	 ================> DF-SCS-MP2 Energies <==================
	-----------------------------------------------------------
	 SCS Same-Spin Scale       =       0.3333333333333333 [-]
	 SCS Opposite-Spin Scale   =       1.2000000000000000 [-]
	 SCS Same-Spin Energy      =      -0.0227221122897198 [Eh]
	 SCS Opposite-Spin Energy  =      -0.2578659369125129 [Eh]
	 SCS Correlation Energy    =      -0.2805880492022328 [Eh]
	 SCS Total Energy          =     -76.3414548386695060 [Eh]
	-----------------------------------------------------------

*** Psi4 exiting successfully. Buy a developer a beer!
