                               Psi4 1.9 release

  ==> Input File <==

--------------------------------------------------------------------------
MEMORY 60 GB

molecule dimer {
1 1
K          0.000000     0.000000     0.000000
O         -1.079975    -2.519084    -1.114293
H         -1.161689    -2.449086    -2.142292
H         -0.354682    -3.093749    -0.915162
O          1.908494     1.199004     1.428095
H          1.949247     2.134957     1.646687
H          2.266614     0.791491     2.173180
O          1.456059     1.407035    -1.667662
H          2.234873     1.586585    -1.148718
H          1.247923     2.161680    -2.201385
O          2.223638    -1.618894    -0.002776
H          2.648935    -1.081482     0.723639
H          2.271674    -2.530630     0.297885
O         -2.357044     0.556742    -0.791296
H         -2.362310     1.515093    -0.520705
H         -2.704638     0.650218    -1.700959
O         -1.360042    -0.673605     2.109571
H         -2.212517    -0.566043     1.680662
H         -1.415840    -1.458593     2.705608

units ang
no_reorient
no_com
symmetry c1
}

set {
basis        aug-cc-pVTZ
scf_type     df
}

energy("mp2")
--------------------------------------------------------------------------

    Molecular point group: c1

    Geometry (in Angstrom), charge = 1, multiplicity = 1:

       Center              X                  Y                   Z               Mass
    ------------   -----------------  -----------------  -----------------  -----------------
         K            0.000000000000     0.000000000000     0.000000000000    38.963706486400
         O           -1.079975000000    -2.519084000000    -1.114293000000    15.994914619570
         H           -1.161689000000    -2.449086000000    -2.142292000000     1.007825032230
         H           -0.354682000000    -3.093749000000    -0.915162000000     1.007825032230
         O            1.908494000000     1.199004000000     1.428095000000    15.994914619570
         H            1.949247000000     2.134957000000     1.646687000000     1.007825032230
         H            2.266614000000     0.791491000000     2.173180000000     1.007825032230
         O            1.456059000000     1.407035000000    -1.667662000000    15.994914619570
         H            2.234873000000     1.586585000000    -1.148718000000     1.007825032230
         H            1.247923000000     2.161680000000    -2.201385000000     1.007825032230
         O            2.223638000000    -1.618894000000    -0.002776000000    15.994914619570
         H            2.648935000000    -1.081482000000     0.723639000000     1.007825032230
         H            2.271674000000    -2.530630000000     0.297885000000     1.007825032230
         O           -2.357044000000     0.556742000000    -0.791296000000    15.994914619570
         H           -2.362310000000     1.515093000000    -0.520705000000     1.007825032230
         H           -2.704638000000     0.650218000000    -1.700959000000     1.007825032230
         O           -1.360042000000    -0.673605000000     2.109571000000    15.994914619570
         H           -2.212517000000    -0.566043000000     1.680662000000     1.007825032230
         H           -1.415840000000    -1.458593000000     2.705608000000     1.007825032230

  Charge       = 1
  Multiplicity = 1
  Basis Set: AUG-CC-PVTZ
    Blend: AUG-CC-PVTZ
  Basis Set: (AUG-CC-PVTZ AUX)
    Blend: AUG-CC-PVTZ-JKFIT + DEF2-UNIVERSAL-JKFIT

    Orbital Energies [Eh]
    ---------------------

    Doubly Occupied:

       1A   -133.565160     2A    -20.722547     3A    -20.719964
       4A    -20.706539     5A    -20.697229     6A    -20.697210
       7A    -20.690255     8A    -14.524300     9A    -11.554079
      10A    -11.553978    11A    -11.553915    12A     -1.791890
      13A     -1.525537    14A     -1.494310    15A     -1.491699
      16A     -1.481467    17A     -1.477272    18A     -1.458370
      19A     -1.006885    20A     -1.003649    21A     -1.002909
      22A     -0.887446    23A     -0.867883    24A     -0.849043
      25A     -0.844928    26A     -0.840429    27A     -0.827741
      28A     -0.758782    29A     -0.743154    30A     -0.723026
      31A     -0.718660    32A     -0.712061    33A     -0.694390
      34A     -0.675860    35A     -0.662370    36A     -0.649546
      37A     -0.648068    38A     -0.642391    39A     -0.629781

  @DF-RHF Final Energy: -1055.45148207534498

   => Energetics <=

    Nuclear Repulsion Energy =            467.4791125516450734
    One-Electron Energy =               -2377.6717341290604963
    Two-Electron Energy =                 854.7411395020703822
    Total Energy =                      -1055.4514820753449840
 Dipole X            :        -15.9449082           16.5098380            0.5649298
 Dipole Y            :         29.9258071          -29.3473995            0.5784076
 Dipole Z            :         -0.1022198            0.5509534            0.4487336
 Magnitude           :                                                    0.9246961
  Basis Set: (AUG-CC-PVTZ AUX)
    Blend: AUG-CC-PVTZ-RI + DEF2-QZVPP-RI
	 Reference Energy          =   -1055.4514820753449840 [Eh]
	 Singles Energy            =      -0.0000000000000000 [Eh]
	 Same-Spin Energy          =      -0.4599038496724180 [Eh]
	 Opposite-Spin Energy      =      -1.4014358707480721 [Eh]
	 Correlation Energy        =      -1.8613397204204900 [Eh]
	 Total Energy              =   -1057.3128217957655579 [Eh]

	 ================> DF-SCS-MP2 Energies <==================
	-----------------------------------------------------------
	 SCS Same-Spin Scale       =       0.3333333333333333 [-]
	 SCS Opposite-Spin Scale   =       1.2000000000000000 [-]
	 SCS Same-Spin Energy      =      -0.1533012832241393 [Eh]
	 SCS Opposite-Spin Energy  =      -1.6817230448976865 [Eh]
	 SCS Correlation Energy    =      -1.8350243281218259 [Eh]
	 SCS Total Energy          =   -1057.2865064034667739 [Eh]
	-----------------------------------------------------------

*** Psi4 exiting successfully. Buy a developer a beer!
