                               Psi4 1.9 release

  ==> Input File <==

--------------------------------------------------------------------------
MEMORY 60 GB

molecule dimer {
1 1
K      0.000000     0.000000     0.000000
--
0 1
O     -1.729110    -1.440725    -1.595164
H     -2.115495    -2.310628    -1.338981
H     -0.967161    -1.699838    -2.095225
O      0.740104    -1.194157    -2.503143
H      1.668496    -1.305924    -2.331578
H      0.556187    -0.378147    -2.935790
O      2.193072    -0.562674     1.394934
H      2.531896     0.323809     1.640430
H      3.009910    -1.052773     1.088316
O     -1.344795     2.320045    -0.663814
H     -1.343982     2.818484     0.147861
H     -0.624916     2.584864    -1.279756

units ang
no_reorient
no_com
symmetry c1
}

set {
basis        aug-cc-pVTZ
scf_type     df
}

energy("mp2", bsse_type="cp")
--------------------------------------------------------------------------

                               Psi4 1.9 release
    Molecular point group: c1
  Charge       = 0
  Multiplicity = 1
  Basis Set: AUG-CC-PVTZ
    Blend: AUG-CC-PVTZ
  Basis Set: (AUG-CC-PVTZ AUX)
    Blend: AUG-CC-PVTZ-JKFIT + DEF2-UNIVERSAL-JKFIT
  @DF-RHF Final Energy:  -304.22752946116458
    Total Energy =                       -304.2275294611645791
 Dipole X            :         -0.8595750            3.0029695            2.1433944
 Dipole Y            :         15.7468821          -15.1938535            0.5530286
 Dipole Z            :         64.1013177          -64.3304706           -0.2291529
 Magnitude           :                                                    2.2254194
  Basis Set: (AUG-CC-PVTZ AUX)
    Blend: AUG-CC-PVTZ-RI + DEF2-QZVPP-RI
	 Reference Energy          =    -304.2275294611645791 [Eh]
	 Singles Energy            =      -0.0000000000000000 [Eh]
	 Same-Spin Energy          =      -0.2764304011505903 [Eh]
	 Opposite-Spin Energy      =      -0.8663704595562502 [Eh]
	 Correlation Energy        =      -1.1428008607068405 [Eh]
	 Total Energy              =    -305.3703303218713927 [Eh]
	 SCS Total Energy          =    -305.3593174796822609 [Eh]
                               Psi4 1.9 release
    Molecular point group: c1
  Multiplicity = 1
  Basis Set: AUG-CC-PVTZ
    Blend: AUG-CC-PVTZ
  Basis Set: (AUG-CC-PVTZ AUX)
    Blend: AUG-CC-PVTZ-JKFIT + DEF2-UNIVERSAL-JKFIT
  @DF-RHF Final Energy:  -599.01751467733811
    Total Energy =                       -599.0175146773381130
  Basis Set: (AUG-CC-PVTZ AUX)
	 Singles Energy            =      -0.0000000000000000 [Eh]
	 Same-Spin Energy          =      -0.0352234392172135 [Eh]
	 Opposite-Spin Energy      =      -0.0850365048525556 [Eh]
	 Correlation Energy        =      -0.1202599440697691 [Eh]
	 Total Energy              =    -599.1377746214078570 [Eh]
	 SCS Total Energy          =    -599.1312996295669109 [Eh]
                               Psi4 1.9 release
    Molecular point group: c1

    Geometry (in Bohr), charge = 1, multiplicity = 1:

       Center              X                  Y                   Z               Mass
    ------------   -----------------  -----------------  -----------------  -----------------
         K            0.000000000000     0.000000000000     0.000000000000    38.963706486400
         O           -3.267544340790    -2.722575672100    -3.014423085190    15.994914619570
         H           -3.997706169775    -4.366454097814    -2.530307377192     1.007825032230
         H           -1.827669409224    -3.212228277646    -3.959401421212     1.007825032230
         O            1.398593864356    -2.256629680798    -4.730254722857    15.994914619570
         H            3.153000481422    -2.467838700662    -4.406043860143     1.007825032230
         H            1.051041104540    -0.714594265164    -5.547839061858     1.007825032230
         O            4.144305453410    -1.063299757916     2.636043223089    15.994914619570
         H            4.784590018142     0.611910326958     3.099963427985     1.007825032230
         H            5.687905562277    -1.989452642277     2.056619177954     1.007825032230
         O           -2.541294244885     4.384249648738    -1.254426658245    15.994914619570
         H           -2.539757897545     5.326162848985     0.279416794636     1.007825032230
         H           -1.180920091417     4.884685031555    -2.418388347411     1.007825032230

  Charge       = 1
  Multiplicity = 1
  Basis Set: AUG-CC-PVTZ
    Blend: AUG-CC-PVTZ
  Basis Set: (AUG-CC-PVTZ AUX)
    Blend: AUG-CC-PVTZ-JKFIT + DEF2-UNIVERSAL-JKFIT

    Orbital Energies [Eh]
    ---------------------

    Doubly Occupied:

       1A   -133.643734     2A    -20.744510     3A    -20.741334
       4A    -20.724567     5A    -20.690181     6A    -14.601368
       7A    -11.631343     8A    -11.631219     9A    -11.631052
      10A     -1.863580    11A     -1.540935    12A     -1.513614
      13A     -1.505030    14A     -1.478090    15A     -1.074870
      16A     -1.072775    17A     -1.070375    18A     -0.922738
      19A     -0.887802    20A     -0.872548    21A     -0.848494
      22A     -0.760975    23A     -0.755909    24A     -0.728208
      25A     -0.712592    26A     -0.696726    27A     -0.685296
      28A     -0.671115    29A     -0.638812

  @DF-RHF Final Energy:  -903.30498234646529

   => Energetics <=

    Nuclear Repulsion Energy =            256.5276601049320107
    One-Electron Energy =               -1746.9856980109107099
    Two-Electron Energy =                 587.1530555595134047
    Total Energy =                       -903.3049823464652945
 Dipole X            :         -0.8416664            3.0029695            2.1613031
 Dipole Y            :         15.6490315          -15.1938535            0.4551780
 Dipole Z            :         63.8389050          -64.3304706           -0.4915656
 Magnitude           :                                                    2.2627538
  Basis Set: (AUG-CC-PVTZ AUX)
    Blend: AUG-CC-PVTZ-RI + DEF2-QZVPP-RI
	 Reference Energy          =    -903.3049823464652945 [Eh]
	 Singles Energy            =      -0.0000000000000000 [Eh]
	 Same-Spin Energy          =      -0.3148535333321554 [Eh]
	 Opposite-Spin Energy      =      -0.9523836310605387 [Eh]
	 Correlation Energy        =      -1.2672371643926941 [Eh]
	 Total Energy              =    -904.5722195108579626 [Eh]

	 ================> DF-SCS-MP2 Energies <==================
	-----------------------------------------------------------
	 SCS Same-Spin Scale       =       0.3333333333333333 [-]
	 SCS Opposite-Spin Scale   =       1.2000000000000000 [-]
	 SCS Same-Spin Energy      =      -0.1049511777773851 [Eh]
	 SCS Opposite-Spin Energy  =      -1.1428603572726463 [Eh]
	 SCS Correlation Energy    =      -1.2478115350500314 [Eh]
	 SCS Total Energy          =    -904.5527938815152993 [Eh]
	-----------------------------------------------------------

*** Psi4 exiting successfully. Buy a developer a beer!
