                               Psi4 1.9 release

  ==> Input File <==

--------------------------------------------------------------------------
MEMORY 60 GB

molecule dimer {
1 1
K      0.000000     0.000000     0.000000
--
0 1
O      1.561623    -1.801787     1.465392
H      1.495913    -1.409150     2.361074
H      2.405619    -2.025458     1.077899
O     -1.424639    -0.655851     2.090662
H     -0.921701    -0.097964     2.672960
H     -2.396934    -0.579047     2.394294
O     -0.430437    -1.342300    -2.594784
H     -0.028298    -2.177339    -2.869167
H     -0.070011    -0.628832    -3.155245
O      1.871301     1.921050    -0.065534
H      2.359953     2.169210     0.749252
H      2.507104     1.476286    -0.655249

units ang
no_reorient
no_com
symmetry c1
}

set {
basis        aug-cc-pVTZ
scf_type     df
}

energy("mp2", bsse_type="cp")
--------------------------------------------------------------------------

                               Psi4 1.9 release
    Molecular point group: c1
  Charge       = 0
  Multiplicity = 1
  Basis Set: AUG-CC-PVTZ
    Blend: AUG-CC-PVTZ
  Basis Set: (AUG-CC-PVTZ AUX)
    Blend: AUG-CC-PVTZ-JKFIT + DEF2-UNIVERSAL-JKFIT
  @DF-RHF Final Energy:  -304.21704485517921
    Total Energy =                       -304.2170448551792106
 Dipole X            :        -32.5449029           33.9667481            1.4218452
 Dipole Y            :         34.8887404          -34.5884094            0.3003310
 Dipole Z            :        -17.9245017           18.4091563            0.4846546
 Magnitude           :                                                    1.5319049
  Basis Set: (AUG-CC-PVTZ AUX)
    Blend: AUG-CC-PVTZ-RI + DEF2-QZVPP-RI
	 Reference Energy          =    -304.2170448551792106 [Eh]
	 Singles Energy            =      -0.0000000000000000 [Eh]
	 Same-Spin Energy          =      -0.2754879321434590 [Eh]
	 Opposite-Spin Energy      =      -0.8663173278925966 [Eh]
	 Correlation Energy        =      -1.1418052600360555 [Eh]
	 Total Energy              =    -305.3588501152152617 [Eh]
	 SCS Total Energy          =    -305.3484549593648012 [Eh]
                               Psi4 1.9 release
    Molecular point group: c1
  Multiplicity = 1
  Basis Set: AUG-CC-PVTZ
    Blend: AUG-CC-PVTZ
  Basis Set: (AUG-CC-PVTZ AUX)
    Blend: AUG-CC-PVTZ-JKFIT + DEF2-UNIVERSAL-JKFIT
  @DF-RHF Final Energy:  -599.01751474147545
    Total Energy =                       -599.0175147414754520
  Basis Set: (AUG-CC-PVTZ AUX)
	 Singles Energy            =      -0.0000000000000000 [Eh]
	 Same-Spin Energy          =      -0.0349921915819401 [Eh]
	 Opposite-Spin Energy      =      -0.0843914030713957 [Eh]
	 Correlation Energy        =      -0.1193835946533358 [Eh]
	 Total Energy              =    -599.1368983361287519 [Eh]
	 SCS Total Energy          =    -599.1304484890217736 [Eh]
                               Psi4 1.9 release
    Molecular point group: c1

    Geometry (in Bohr), charge = 1, multiplicity = 1:

       Center              X                  Y                   Z               Mass
    ------------   -----------------  -----------------  -----------------  -----------------
         K            0.000000000000     0.000000000000     0.000000000000    38.963706486400
         O            2.951039781216    -3.404883966410     2.769189546437    15.994914619570
         H            2.826865877512    -2.662907569689     4.461783221939     1.007825032230
         H            4.545961072198    -3.827560898618     2.036933900905     1.007825032230
         O           -2.692177537646    -1.239378769108     3.950778600902    15.994914619570
         H           -1.741762459561    -0.185125130154     5.051162344304     1.007825032230
         H           -4.529548800798    -1.094240243768     4.524559923827     1.007825032230
         O           -0.813408044264    -2.536579378202    -4.903431114720    15.994914619570
         H           -0.053475469898    -4.114574392278    -5.421939838201     1.007825032230
         H           -0.132301615769    -1.188320258924    -5.962548908720     1.007825032230
         O            3.536246388295     3.630258373311    -0.123841311906    15.994914619570
         H            4.459664838953     4.099212808604     1.415881078952     1.007825032230
         H            4.737739928040     2.789776222848    -1.238241153980     1.007825032230

  Charge       = 1
  Multiplicity = 1
  Basis Set: AUG-CC-PVTZ
    Blend: AUG-CC-PVTZ
  Basis Set: (AUG-CC-PVTZ AUX)
    Blend: AUG-CC-PVTZ-JKFIT + DEF2-UNIVERSAL-JKFIT

    Orbital Energies [Eh]
    ---------------------

    Doubly Occupied:

       1A   -133.629391     2A    -20.734014     3A    -20.728692
       4A    -20.714282     5A    -20.711749     6A    -14.587027
       7A    -11.616925     8A    -11.616894     9A    -11.616773
      10A     -1.849271    11A     -1.509856    12A     -1.502664
      13A     -1.493355    14A     -1.489145    15A     -1.060277
      16A     -1.058577    17A     -1.056880    18A     -0.895829
      19A     -0.877717    20A     -0.866297    21A     -0.861478
      22A     -0.748695    23A     -0.742368    24A     -0.723931
      25A     -0.709695    26A     -0.678671    27A     -0.671090
      28A     -0.661477    29A     -0.655207

  @DF-RHF Final Energy:  -903.30793625645538

   => Energetics <=

    Nuclear Repulsion Energy =            250.3385565623662785
    One-Electron Energy =               -1735.1565259294368389
    Two-Electron Energy =                 581.5100331106152680
    Total Energy =                       -903.3079362564553776
 Dipole X            :        -32.3954129           33.9667481            1.5713352
 Dipole Y            :         34.7236568          -34.5884094            0.1352474
 Dipole Z            :        -17.7534433           18.4091563            0.6557131
 Magnitude           :                                                    1.7080239
  Basis Set: (AUG-CC-PVTZ AUX)
    Blend: AUG-CC-PVTZ-RI + DEF2-QZVPP-RI
	 Reference Energy          =    -903.3079362564553776 [Eh]
	 Singles Energy            =      -0.0000000000000000 [Eh]
	 Same-Spin Energy          =      -0.3133787844206922 [Eh]
	 Opposite-Spin Energy      =      -0.9508208552211216 [Eh]
	 Correlation Energy        =      -1.2641996396418138 [Eh]
	 Total Energy              =    -904.5721358960971656 [Eh]

	 ================> DF-SCS-MP2 Energies <==================
	-----------------------------------------------------------
	 SCS Same-Spin Scale       =       0.3333333333333333 [-]
	 SCS Opposite-Spin Scale   =       1.2000000000000000 [-]
	 SCS Same-Spin Energy      =      -0.1044595948068974 [Eh]
	 SCS Opposite-Spin Energy  =      -1.1409850262653458 [Eh]
	 SCS Correlation Energy    =      -1.2454446210722432 [Eh]
	 SCS Total Energy          =    -904.5533808775276157 [Eh]
	-----------------------------------------------------------

*** Psi4 exiting successfully. Buy a developer a beer!
