                               Psi4 1.9 release

  ==> Input File <==

--------------------------------------------------------------------------
MEMORY 60 GB

molecule dimer {
1 1
K          0.000000     0.000000     0.000000
O          0.614161    -2.662596    -1.000568
H         -0.113826    -3.251565    -1.198118
H          1.186112    -2.667876    -1.734079
O          0.729810     2.373837    -1.025151
H          1.167478     2.701220    -1.857432
H         -0.147525     2.842033    -0.995735
O         -1.008658     0.423253     2.460831
H         -0.735495    -0.358124     2.948601
H         -1.939879     0.354150     2.274018
O          2.850153    -0.237363     0.329338
H          3.197928    -1.122902     0.376841
H          3.494571     0.227443    -0.233883
O         -2.469746    -0.508728    -1.426203
H         -3.370408    -0.248234    -1.430514
H         -2.421727    -0.991925    -2.274776

units ang
no_reorient
no_com
symmetry c1
}

set {
basis        aug-cc-pVTZ
scf_type     df
}

energy("mp2")
--------------------------------------------------------------------------

    Molecular point group: c1

    Geometry (in Angstrom), charge = 1, multiplicity = 1:

       Center              X                  Y                   Z               Mass
    ------------   -----------------  -----------------  -----------------  -----------------
         K            0.000000000000     0.000000000000     0.000000000000    38.963706486400
         O            0.614161000000    -2.662596000000    -1.000568000000    15.994914619570
         H           -0.113826000000    -3.251565000000    -1.198118000000     1.007825032230
         H            1.186112000000    -2.667876000000    -1.734079000000     1.007825032230
         O            0.729810000000     2.373837000000    -1.025151000000    15.994914619570
         H            1.167478000000     2.701220000000    -1.857432000000     1.007825032230
         H           -0.147525000000     2.842033000000    -0.995735000000     1.007825032230
         O           -1.008658000000     0.423253000000     2.460831000000    15.994914619570
         H           -0.735495000000    -0.358124000000     2.948601000000     1.007825032230
         H           -1.939879000000     0.354150000000     2.274018000000     1.007825032230
         O            2.850153000000    -0.237363000000     0.329338000000    15.994914619570
         H            3.197928000000    -1.122902000000     0.376841000000     1.007825032230
         H            3.494571000000     0.227443000000    -0.233883000000     1.007825032230
         O           -2.469746000000    -0.508728000000    -1.426203000000    15.994914619570
         H           -3.370408000000    -0.248234000000    -1.430514000000     1.007825032230
         H           -2.421727000000    -0.991925000000    -2.274776000000     1.007825032230

  Charge       = 1
  Multiplicity = 1
  Basis Set: AUG-CC-PVTZ
    Blend: AUG-CC-PVTZ
  Basis Set: (AUG-CC-PVTZ AUX)
    Blend: AUG-CC-PVTZ-JKFIT + DEF2-UNIVERSAL-JKFIT

    Orbital Energies [Eh]
    ---------------------

    Doubly Occupied:

       1A   -133.602465     2A    -20.717556     3A    -20.714455
       4A    -20.707395     5A    -20.706401     6A    -20.697186
       7A    -14.560062     8A    -11.589954     9A    -11.589910
      10A    -11.589856    11A     -1.822183    12A     -1.507273
      13A     -1.504384    14A     -1.496171    15A     -1.481872
      16A     -1.479677    17A     -1.032807    18A     -1.031778
      19A     -1.030418    20A     -0.876049    21A     -0.868768
      22A     -0.859601    23A     -0.842715    24A     -0.840809
      25A     -0.751241    26A     -0.732895    27A     -0.726907
      28A     -0.723327    29A     -0.721114    30A     -0.663955
      31A     -0.658493    32A     -0.656271    33A     -0.652978
      34A     -0.642251

  @DF-RHF Final Energy:  -979.40073031403722

   => Energetics <=

    Nuclear Repulsion Energy =            338.1101177421720649
    One-Electron Energy =               -2014.8633396867983265
    Two-Electron Energy =                 697.3524916305889292
    Total Energy =                       -979.4007303140372187
 Dipole X            :        -12.1158039           11.4195942           -0.6962097
 Dipole Y            :         13.1318404          -14.0001418           -0.8683014
 Dipole Z            :         15.9036227          -17.7995212           -1.8958985
 Magnitude           :                                                    2.1984282
  Basis Set: (AUG-CC-PVTZ AUX)
    Blend: AUG-CC-PVTZ-RI + DEF2-QZVPP-RI
	 Reference Energy          =    -979.4007303140372187 [Eh]
	 Singles Energy            =      -0.0000000000000000 [Eh]
	 Same-Spin Energy          =      -0.3826524018243380 [Eh]
	 Opposite-Spin Energy      =      -1.1677593616569681 [Eh]
	 Correlation Energy        =      -1.5504117634813062 [Eh]
	 Total Energy              =    -980.9511420775185115 [Eh]

	 ================> DF-SCS-MP2 Energies <==================
	-----------------------------------------------------------
	 SCS Same-Spin Scale       =       0.3333333333333333 [-]
	 SCS Opposite-Spin Scale   =       1.2000000000000000 [-]
	 SCS Same-Spin Energy      =      -0.1275508006081127 [Eh]
	 SCS Opposite-Spin Energy  =      -1.4013112339883618 [Eh]
	 SCS Correlation Energy    =      -1.5288620345964745 [Eh]
	 SCS Total Energy          =    -980.9295923486337188 [Eh]
	-----------------------------------------------------------

*** Psi4 exiting successfully. Buy a developer a beer!
