                               Psi4 1.9 release

  ==> Input File <==

--------------------------------------------------------------------------
MEMORY 60 GB

molecule dimer {
1 1
K      0.000000     0.000000     0.000000
--
0 1
O     -1.065191    -0.359975    -2.461163
H     -1.794196    -0.828061    -2.830220
H     -1.027565     0.480586    -2.947244
O      2.344028     1.678726    -0.213882
H      3.157394     1.389741    -0.585666
H      2.557494     1.811841     0.674913
O     -1.246221     2.415696    -0.621119
H     -2.238963     2.335390    -0.711467
H     -0.854818     2.401486    -1.478482
O     -1.890709     0.266806     2.144480
H     -1.944298     1.042797     2.694641
H     -2.715672     0.216960     1.683755

units ang
no_reorient
no_com
symmetry c1
}

set {
basis        aug-cc-pVTZ
scf_type     df
}

energy("mp2", bsse_type="cp")
--------------------------------------------------------------------------

                               Psi4 1.9 release
    Molecular point group: c1
  Charge       = 0
  Multiplicity = 1
  Basis Set: AUG-CC-PVTZ
    Blend: AUG-CC-PVTZ
  Basis Set: (AUG-CC-PVTZ AUX)
    Blend: AUG-CC-PVTZ-JKFIT + DEF2-UNIVERSAL-JKFIT
  @DF-RHF Final Energy:  -304.23084560069691
    Total Energy =                       -304.2308456006969095
 Dipole X            :         36.5924383          -37.2755432           -0.6831050
 Dipole Y            :        -76.7144519           77.2156532            0.5012013
 Dipole Z            :         23.2733594          -24.0245455           -0.7511862
 Magnitude           :                                                    1.1323055
  Basis Set: (AUG-CC-PVTZ AUX)
    Blend: AUG-CC-PVTZ-RI + DEF2-QZVPP-RI
	 Reference Energy          =    -304.2308456006969095 [Eh]
	 Singles Energy            =      -0.0000000000000000 [Eh]
	 Same-Spin Energy          =      -0.2741189308865759 [Eh]
	 Opposite-Spin Energy      =      -0.8621296055691987 [Eh]
	 Correlation Energy        =      -1.1362485364557746 [Eh]
	 Total Energy              =    -305.3670941371526624 [Eh]
	 SCS Total Energy          =    -305.3567741043421506 [Eh]
                               Psi4 1.9 release
    Molecular point group: c1
  Multiplicity = 1
  Basis Set: AUG-CC-PVTZ
    Blend: AUG-CC-PVTZ
  Basis Set: (AUG-CC-PVTZ AUX)
    Blend: AUG-CC-PVTZ-JKFIT + DEF2-UNIVERSAL-JKFIT
  @DF-RHF Final Energy:  -599.01751463235405
    Total Energy =                       -599.0175146323540503
  Basis Set: (AUG-CC-PVTZ AUX)
	 Singles Energy            =      -0.0000000000000000 [Eh]
	 Same-Spin Energy          =      -0.0344600509365934 [Eh]
	 Opposite-Spin Energy      =      -0.0828351957112091 [Eh]
	 Correlation Energy        =      -0.1172952466478025 [Eh]
	 Total Energy              =    -599.1348098790018639 [Eh]
	 SCS Total Energy          =    -599.1284035508530224 [Eh]
                               Psi4 1.9 release
    Molecular point group: c1

    Geometry (in Bohr), charge = 1, multiplicity = 1:

       Center              X                  Y                   Z               Mass
    ------------   -----------------  -----------------  -----------------  -----------------
         K            0.000000000000     0.000000000000     0.000000000000    38.963706486400
         O           -2.012919261303    -0.680254162012    -4.650924020110    15.994914619570
         H           -3.390539055392    -1.564808505173    -5.348340674793     1.007825032230
         H           -1.941816426106     0.908175919729    -5.569483984899     1.007825032230
         O            4.429570950405     3.172332379685    -0.404178403165    15.994914619570
         H            5.966609930164     2.626229875320    -1.106748340992     1.007825032230
         H            4.832963227502     3.423883272876     1.275400728511     1.007825032230
         O           -2.355016381794     4.565003842364    -1.173744801318    15.994914619570
         H           -4.231026875033     4.413247496133    -1.344477777301     1.007825032230
         H           -1.615371907112     4.538150834121    -2.793926061419     1.007825032230
         O           -3.572922192938     0.504190268629     4.052479881522    15.994914619570
         H           -3.674190726275     1.970600734449     5.092133496430     1.007825032230
         H           -5.131876326574     0.409994980179     3.181835812370     1.007825032230

  Charge       = 1
  Multiplicity = 1
  Basis Set: AUG-CC-PVTZ
    Blend: AUG-CC-PVTZ
  Basis Set: (AUG-CC-PVTZ AUX)
    Blend: AUG-CC-PVTZ-JKFIT + DEF2-UNIVERSAL-JKFIT

    Orbital Energies [Eh]
    ---------------------

    Doubly Occupied:

       1A   -133.637227     2A    -20.732530     3A    -20.721753
       4A    -20.712399     5A    -20.712199     6A    -14.594382
       7A    -11.624310     8A    -11.624272     9A    -11.624231
      10A     -1.855055    11A     -1.522820    12A     -1.518922
      13A     -1.505922    14A     -1.501653    15A     -1.064914
      16A     -1.063751    17A     -1.062887    18A     -0.889143
      19A     -0.878287    20A     -0.874311    21A     -0.872962
      22A     -0.760114    23A     -0.748679    24A     -0.737853
      25A     -0.731807    26A     -0.683746    27A     -0.666697
      28A     -0.665742    29A     -0.659805

  @DF-RHF Final Energy:  -903.32327811209802

   => Energetics <=

    Nuclear Repulsion Energy =            252.6127574843201842
    One-Electron Energy =               -1739.3753222914449452
    Two-Electron Energy =                 583.4392866950267944
    Total Energy =                       -903.3232781120980235
 Dipole X            :         36.3671551          -37.2755432           -0.9083882
 Dipole Y            :        -76.3469269           77.2156532            0.8687263
 Dipole Z            :         23.1243134          -24.0245455           -0.9002322
 Magnitude           :                                                    1.5460506
  Basis Set: (AUG-CC-PVTZ AUX)
    Blend: AUG-CC-PVTZ-RI + DEF2-QZVPP-RI
	 Reference Energy          =    -903.3232781120980235 [Eh]
	 Singles Energy            =      -0.0000000000000000 [Eh]
	 Same-Spin Energy          =      -0.3110100557787737 [Eh]
	 Opposite-Spin Energy      =      -0.9449574963800680 [Eh]
	 Correlation Energy        =      -1.2559675521588418 [Eh]
	 Total Energy              =    -904.5792456642568595 [Eh]

	 ================> DF-SCS-MP2 Energies <==================
	-----------------------------------------------------------
	 SCS Same-Spin Scale       =       0.3333333333333333 [-]
	 SCS Opposite-Spin Scale   =       1.2000000000000000 [-]
	 SCS Same-Spin Energy      =      -0.1036700185929246 [Eh]
	 SCS Opposite-Spin Energy  =      -1.1339489956560815 [Eh]
	 SCS Correlation Energy    =      -1.2376190142490060 [Eh]
	 SCS Total Energy          =    -904.5608971263470721 [Eh]
	-----------------------------------------------------------

*** Psi4 exiting successfully. Buy a developer a beer!
