                               Psi4 1.9 release

  ==> Input File <==

--------------------------------------------------------------------------
MEMORY 60 GB

molecule dimer {
0 1
Gh(K)      0.000000     0.000000     0.000000
Gh(O)     -0.783516    -1.726652    -2.324142
Gh(H)     -0.445420    -2.452607    -2.906614
Gh(H)     -1.685040    -1.971929    -2.112103
O         -1.927039     1.937313     0.043663
H         -2.389142     2.022854    -0.811322
H         -2.517278     1.567321     0.684851
Gh(O)     -2.525078    -0.395205     1.459688
Gh(H)     -3.459078    -0.500987     1.132919
Gh(H)     -2.571024    -0.259444     2.424365
Gh(O)      0.460553     2.520123    -1.287438
Gh(H)      0.400227     3.147385    -0.553485
Gh(H)     -0.048493     2.950684    -2.000751
Gh(O)      2.234484    -1.510392    -1.101739
Gh(H)      2.294983    -2.389683    -1.472288
Gh(H)      3.130234    -1.125978    -1.166978
Gh(O)      0.616844     0.643018     2.586690
Gh(H)      1.504879     1.005239     2.404662
Gh(H)      0.025962     1.431530     2.685422
Gh(O)     -0.281188    -2.832605     0.143332
Gh(H)      0.444960    -3.141684    -0.384431
Gh(H)     -1.165527    -3.190720    -0.205701

units ang
no_reorient
no_com
symmetry c1
}

set {
basis        aug-cc-pVTZ
scf_type     df
}

energy("mp2")
--------------------------------------------------------------------------

    Molecular point group: c1

    Geometry (in Angstrom), charge = 0, multiplicity = 1:

       Center              X                  Y                   Z               Mass
    ------------   -----------------  -----------------  -----------------  -----------------
      Gh(K)           0.000000000000     0.000000000000     0.000000000000    38.963706486400
      Gh(O)          -0.783516000000    -1.726652000000    -2.324142000000    15.994914619570
      Gh(H)          -0.445420000000    -2.452607000000    -2.906614000000     1.007825032230
      Gh(H)          -1.685040000000    -1.971929000000    -2.112103000000     1.007825032230
         O           -1.927039000000     1.937313000000     0.043663000000    15.994914619570
         H           -2.389142000000     2.022854000000    -0.811322000000     1.007825032230
         H           -2.517278000000     1.567321000000     0.684851000000     1.007825032230
      Gh(O)          -2.525078000000    -0.395205000000     1.459688000000    15.994914619570
      Gh(H)          -3.459078000000    -0.500987000000     1.132919000000     1.007825032230
      Gh(H)          -2.571024000000    -0.259444000000     2.424365000000     1.007825032230
      Gh(O)           0.460553000000     2.520123000000    -1.287438000000    15.994914619570
      Gh(H)           0.400227000000     3.147385000000    -0.553485000000     1.007825032230
      Gh(H)          -0.048493000000     2.950684000000    -2.000751000000     1.007825032230
      Gh(O)           2.234484000000    -1.510392000000    -1.101739000000    15.994914619570
      Gh(H)           2.294983000000    -2.389683000000    -1.472288000000     1.007825032230
      Gh(H)           3.130234000000    -1.125978000000    -1.166978000000     1.007825032230
      Gh(O)           0.616844000000     0.643018000000     2.586690000000    15.994914619570
      Gh(H)           1.504879000000     1.005239000000     2.404662000000     1.007825032230
      Gh(H)           0.025962000000     1.431530000000     2.685422000000     1.007825032230
      Gh(O)          -0.281188000000    -2.832605000000     0.143332000000    15.994914619570
      Gh(H)           0.444960000000    -3.141684000000    -0.384431000000     1.007825032230
      Gh(H)          -1.165527000000    -3.190720000000    -0.205701000000     1.007825032230

  Charge       = 0
  Multiplicity = 1
  Basis Set: AUG-CC-PVTZ
    Blend: AUG-CC-PVTZ
  Basis Set: (AUG-CC-PVTZ AUX)
    Blend: AUG-CC-PVTZ-JKFIT + DEF2-UNIVERSAL-JKFIT

    Orbital Energies [Eh]
    ---------------------

    Doubly Occupied:

       1A    -20.565407     2A     -1.348200     3A     -0.724749
       4A     -0.574501     5A     -0.508516

  @DF-RHF Final Energy:   -76.05970565787261

   => Energetics <=

    Nuclear Repulsion Energy =              9.1477512861979005
    One-Electron Energy =                -122.9721642925038623
    Two-Electron Energy =                  37.7647073484333475
    Total Energy =                        -76.0597056578726125
 Dipole X            :         37.6951892          -38.4043976           -0.7092084
 Dipole Y            :        -36.2650010           36.0723754           -0.1926256
 Dipole Z            :         -0.5609244            0.4210933           -0.1398311
 Magnitude           :                                                    0.7480869
  Basis Set: (AUG-CC-PVTZ AUX)
    Blend: AUG-CC-PVTZ-RI + DEF2-QZVPP-RI
	 Reference Energy          =     -76.0597056578726125 [Eh]
	 Singles Energy            =      -0.0000000000000000 [Eh]
	 Same-Spin Energy          =      -0.0684226796938919 [Eh]
	 Opposite-Spin Energy      =      -0.2159307891021833 [Eh]
	 Correlation Energy        =      -0.2843534687960751 [Eh]
	 Total Energy              =     -76.3440591266686823 [Eh]

	 ================> DF-SCS-MP2 Energies <==================
	-----------------------------------------------------------
	 SCS Same-Spin Scale       =       0.3333333333333333 [-]
	 SCS Opposite-Spin Scale   =       1.2000000000000000 [-]
	 SCS Same-Spin Energy      =      -0.0228075598979640 [Eh]
	 SCS Opposite-Spin Energy  =      -0.2591169469226199 [Eh]
	 SCS Correlation Energy    =      -0.2819245068205839 [Eh]
	 SCS Total Energy          =     -76.3416301646931998 [Eh]
	-----------------------------------------------------------

*** Psi4 exiting successfully. Buy a developer a beer!
