                               Psi4 1.9 release

  ==> Input File <==

--------------------------------------------------------------------------
MEMORY 60 GB

molecule dimer {
1 1
K          0.000000     0.000000     0.000000
O          2.160859     1.290133    -0.400753
H          1.851863     2.165893    -0.347882
H          2.858507     1.265871    -1.028996
O         -0.224116     2.890704    -0.587416
H          0.184621     3.724005    -0.298127
H         -0.628412     3.022379    -1.479339
O         -0.596279     0.293745     2.645164
H         -0.155475     0.327230     3.510654
H         -0.745470     1.203896     2.319434
O         -2.653038     0.116948    -0.474000
H         -3.072390     0.994919    -0.656688
H         -3.153251    -0.529245    -0.935285
O          0.199903    -1.131038    -2.302949
H          0.210418    -2.106909    -2.322390
H          1.094372    -1.077689    -2.576535
O          1.590735    -1.740659     0.686324
H          2.345406    -1.342599     1.136997
H          1.996290    -2.458499     0.178618

units ang
no_reorient
no_com
symmetry c1
}

set {
basis        aug-cc-pVTZ
scf_type     df
}

energy("mp2")
--------------------------------------------------------------------------

    Molecular point group: c1

    Geometry (in Angstrom), charge = 1, multiplicity = 1:

       Center              X                  Y                   Z               Mass
    ------------   -----------------  -----------------  -----------------  -----------------
         K            0.000000000000     0.000000000000     0.000000000000    38.963706486400
         O            2.160859000000     1.290133000000    -0.400753000000    15.994914619570
         H            1.851863000000     2.165893000000    -0.347882000000     1.007825032230
         H            2.858507000000     1.265871000000    -1.028996000000     1.007825032230
         O           -0.224116000000     2.890704000000    -0.587416000000    15.994914619570
         H            0.184621000000     3.724005000000    -0.298127000000     1.007825032230
         H           -0.628412000000     3.022379000000    -1.479339000000     1.007825032230
         O           -0.596279000000     0.293745000000     2.645164000000    15.994914619570
         H           -0.155475000000     0.327230000000     3.510654000000     1.007825032230
         H           -0.745470000000     1.203896000000     2.319434000000     1.007825032230
         O           -2.653038000000     0.116948000000    -0.474000000000    15.994914619570
         H           -3.072390000000     0.994919000000    -0.656688000000     1.007825032230
         H           -3.153251000000    -0.529245000000    -0.935285000000     1.007825032230
         O            0.199903000000    -1.131038000000    -2.302949000000    15.994914619570
         H            0.210418000000    -2.106909000000    -2.322390000000     1.007825032230
         H            1.094372000000    -1.077689000000    -2.576535000000     1.007825032230
         O            1.590735000000    -1.740659000000     0.686324000000    15.994914619570
         H            2.345406000000    -1.342599000000     1.136997000000     1.007825032230
         H            1.996290000000    -2.458499000000     0.178618000000     1.007825032230

  Charge       = 1
  Multiplicity = 1
  Basis Set: AUG-CC-PVTZ
    Blend: AUG-CC-PVTZ
  Basis Set: (AUG-CC-PVTZ AUX)
    Blend: AUG-CC-PVTZ-JKFIT + DEF2-UNIVERSAL-JKFIT

    Orbital Energies [Eh]
    ---------------------

    Doubly Occupied:

       1A   -133.555300     2A    -20.721892     3A    -20.710799
       4A    -20.704804     5A    -20.700088     6A    -20.693925
       7A    -20.690830     8A    -14.514865     9A    -11.544582
      10A    -11.544485    11A    -11.544447    12A     -1.784048
      13A     -1.509457    14A     -1.508468    15A     -1.494948
      16A     -1.492704    17A     -1.479133    18A     -1.467496
      19A     -0.999385    20A     -0.997677    21A     -0.996367
      22A     -0.884996    23A     -0.866911    24A     -0.850247
      25A     -0.848400    26A     -0.841967    27A     -0.835652
      28A     -0.756097    29A     -0.736369    30A     -0.733886
      31A     -0.729885    32A     -0.713317    33A     -0.699496
      34A     -0.671193    35A     -0.662070    36A     -0.651539
      37A     -0.648921    38A     -0.640369    39A     -0.633554

  @DF-RHF Final Energy: -1055.45133473670194

   => Energetics <=

    Nuclear Repulsion Energy =            471.0969854027170527
    One-Electron Energy =               -2384.9754980692887329
    Two-Electron Energy =                 858.4271779298695719
    Total Energy =                      -1055.4513347367019378
 Dipole X            :        -11.2884430           12.4929624            1.2045194
 Dipole Y            :        -34.5511884           35.8063719            1.2551835
 Dipole Z            :         10.1172509          -11.2789797           -1.1617288
 Magnitude           :                                                    2.0918810
  Basis Set: (AUG-CC-PVTZ AUX)
    Blend: AUG-CC-PVTZ-RI + DEF2-QZVPP-RI
	 Reference Energy          =   -1055.4513347367019378 [Eh]
	 Singles Energy            =      -0.0000000000000000 [Eh]
	 Same-Spin Energy          =      -0.4600272619182222 [Eh]
	 Opposite-Spin Energy      =      -1.4003198580240812 [Eh]
	 Correlation Energy        =      -1.8603471199423034 [Eh]
	 Total Energy              =   -1057.3116818566443271 [Eh]

	 ================> DF-SCS-MP2 Energies <==================
	-----------------------------------------------------------
	 SCS Same-Spin Scale       =       0.3333333333333333 [-]
	 SCS Opposite-Spin Scale   =       1.2000000000000000 [-]
	 SCS Same-Spin Energy      =      -0.1533424206394074 [Eh]
	 SCS Opposite-Spin Energy  =      -1.6803838296288973 [Eh]
	 SCS Correlation Energy    =      -1.8337262502683047 [Eh]
	 SCS Total Energy          =   -1057.2850609869701657 [Eh]
	-----------------------------------------------------------

*** Psi4 exiting successfully. Buy a developer a beer!
