                               Psi4 1.9 release

  ==> Input File <==

--------------------------------------------------------------------------
MEMORY 60 GB

molecule dimer {
0 1
Gh(K)      0.000000     0.000000     0.000000
Gh(O)      1.395321     2.485796    -0.499111
Gh(H)      0.475724     2.530364    -0.908150
Gh(H)      1.541025     3.296659     0.059292
Gh(O)     -0.298366     0.277828    -2.884288
Gh(H)     -1.052425    -0.252557    -3.266455
Gh(H)     -0.007761     0.938512    -3.499209
O         -0.844454     0.705415     2.485358
H         -0.439561     1.442536     2.982417
H         -0.765232    -0.044769     3.073039
Gh(O)      2.206718    -0.416213    -1.515557
Gh(H)      2.624132    -1.306624    -1.434775
Gh(H)      1.710832    -0.523339    -2.322752
Gh(O)      2.287985     0.406779     1.536207
Gh(H)      1.848703     0.878967     2.243779
Gh(H)      2.356853     1.050663     0.803187
Gh(O)     -0.926946    -2.528131    -0.885140
Gh(H)     -0.638585    -2.814555    -0.002462
Gh(H)     -0.175227    -2.863224    -1.473137
Gh(O)     -2.524902     0.657056     0.276186
Gh(H)     -2.345141     0.830225     1.144007
Gh(H)     -3.348189     0.216696     0.083786

units ang
no_reorient
no_com
symmetry c1
}

set {
basis        aug-cc-pVTZ
scf_type     df
}

energy("mp2")
--------------------------------------------------------------------------

    Molecular point group: c1

    Geometry (in Angstrom), charge = 0, multiplicity = 1:

       Center              X                  Y                   Z               Mass
    ------------   -----------------  -----------------  -----------------  -----------------
      Gh(K)           0.000000000000     0.000000000000     0.000000000000    38.963706486400
      Gh(O)           1.395321000000     2.485796000000    -0.499111000000    15.994914619570
      Gh(H)           0.475724000000     2.530364000000    -0.908150000000     1.007825032230
      Gh(H)           1.541025000000     3.296659000000     0.059292000000     1.007825032230
      Gh(O)          -0.298366000000     0.277828000000    -2.884288000000    15.994914619570
      Gh(H)          -1.052425000000    -0.252557000000    -3.266455000000     1.007825032230
      Gh(H)          -0.007761000000     0.938512000000    -3.499209000000     1.007825032230
         O           -0.844454000000     0.705415000000     2.485358000000    15.994914619570
         H           -0.439561000000     1.442536000000     2.982417000000     1.007825032230
         H           -0.765232000000    -0.044769000000     3.073039000000     1.007825032230
      Gh(O)           2.206718000000    -0.416213000000    -1.515557000000    15.994914619570
      Gh(H)           2.624132000000    -1.306624000000    -1.434775000000     1.007825032230
      Gh(H)           1.710832000000    -0.523339000000    -2.322752000000     1.007825032230
      Gh(O)           2.287985000000     0.406779000000     1.536207000000    15.994914619570
      Gh(H)           1.848703000000     0.878967000000     2.243779000000     1.007825032230
      Gh(H)           2.356853000000     1.050663000000     0.803187000000     1.007825032230
      Gh(O)          -0.926946000000    -2.528131000000    -0.885140000000    15.994914619570
      Gh(H)          -0.638585000000    -2.814555000000    -0.002462000000     1.007825032230
      Gh(H)          -0.175227000000    -2.863224000000    -1.473137000000     1.007825032230
      Gh(O)          -2.524902000000     0.657056000000     0.276186000000    15.994914619570
      Gh(H)          -2.345141000000     0.830225000000     1.144007000000     1.007825032230
      Gh(H)          -3.348189000000     0.216696000000     0.083786000000     1.007825032230

  Charge       = 0
  Multiplicity = 1
  Basis Set: AUG-CC-PVTZ
    Blend: AUG-CC-PVTZ
  Basis Set: (AUG-CC-PVTZ AUX)
    Blend: AUG-CC-PVTZ-JKFIT + DEF2-UNIVERSAL-JKFIT

    Orbital Energies [Eh]
    ---------------------

    Doubly Occupied:

       1A    -20.568755     2A     -1.349029     3A     -0.712012
       4A     -0.583671     5A     -0.509661

  @DF-RHF Final Energy:   -76.05974867595640

   => Energetics <=

    Nuclear Repulsion Energy =              9.1075109562991550
    One-Electron Energy =                -122.8882599806043601
    Two-Electron Energy =                  37.7210003483488236
    Total Energy =                        -76.0597486759563850
 Dipole X            :         15.3619395          -15.0430231            0.3189164
 Dipole Y            :        -13.3178679           13.3057261           -0.0121418
 Dipole Z            :        -48.2995277           49.0163210            0.7167933
 Magnitude           :                                                    0.7846322
  Basis Set: (AUG-CC-PVTZ AUX)
    Blend: AUG-CC-PVTZ-RI + DEF2-QZVPP-RI
	 Reference Energy          =     -76.0597486759563992 [Eh]
	 Singles Energy            =      -0.0000000000000000 [Eh]
	 Same-Spin Energy          =      -0.0686047515758962 [Eh]
	 Opposite-Spin Energy      =      -0.2166157369894527 [Eh]
	 Correlation Energy        =      -0.2852204885653489 [Eh]
	 Total Energy              =     -76.3449691645217428 [Eh]

	 ================> DF-SCS-MP2 Energies <==================
	-----------------------------------------------------------
	 SCS Same-Spin Scale       =       0.3333333333333333 [-]
	 SCS Opposite-Spin Scale   =       1.2000000000000000 [-]
	 SCS Same-Spin Energy      =      -0.0228682505252987 [Eh]
	 SCS Opposite-Spin Energy  =      -0.2599388843873432 [Eh]
	 SCS Correlation Energy    =      -0.2828071349126420 [Eh]
	 SCS Total Energy          =     -76.3425558108690439 [Eh]
	-----------------------------------------------------------

*** Psi4 exiting successfully. Buy a developer a beer!
