                               Psi4 1.9 release

  ==> Input File <==

--------------------------------------------------------------------------
MEMORY 60 GB

molecule dimer {
1 1
K          0.000000     0.000000     0.000000
O         -0.015696    -0.345584    -2.941205
H          0.515652    -0.599405    -3.713110
H         -0.673237     0.300386    -3.283334
O         -2.446947    -1.823863     0.179839
H         -2.158831    -2.714217     0.379934
H         -2.806161    -1.416264     1.005551
O          2.301395     1.583890     1.081324
H          1.387959     1.838924     0.873685
H          2.218707     0.954213     1.825131
O          2.051371    -1.795200    -0.845859
H          2.285042    -2.269202    -0.005706
H          2.857258    -1.807046    -1.325303
O          1.560729     1.646549    -1.959294
H          1.936631     0.802346    -2.208848
H          2.350103     2.037956    -1.650044

units ang
no_reorient
no_com
symmetry c1
}

set {
basis        aug-cc-pVTZ
scf_type     df
}

energy("mp2")
--------------------------------------------------------------------------

    Molecular point group: c1

    Geometry (in Angstrom), charge = 1, multiplicity = 1:

       Center              X                  Y                   Z               Mass
    ------------   -----------------  -----------------  -----------------  -----------------
         K            0.000000000000     0.000000000000     0.000000000000    38.963706486400
         O           -0.015696000000    -0.345584000000    -2.941205000000    15.994914619570
         H            0.515652000000    -0.599405000000    -3.713110000000     1.007825032230
         H           -0.673237000000     0.300386000000    -3.283334000000     1.007825032230
         O           -2.446947000000    -1.823863000000     0.179839000000    15.994914619570
         H           -2.158831000000    -2.714217000000     0.379934000000     1.007825032230
         H           -2.806161000000    -1.416264000000     1.005551000000     1.007825032230
         O            2.301395000000     1.583890000000     1.081324000000    15.994914619570
         H            1.387959000000     1.838924000000     0.873685000000     1.007825032230
         H            2.218707000000     0.954213000000     1.825131000000     1.007825032230
         O            2.051371000000    -1.795200000000    -0.845859000000    15.994914619570
         H            2.285042000000    -2.269202000000    -0.005706000000     1.007825032230
         H            2.857258000000    -1.807046000000    -1.325303000000     1.007825032230
         O            1.560729000000     1.646549000000    -1.959294000000    15.994914619570
         H            1.936631000000     0.802346000000    -2.208848000000     1.007825032230
         H            2.350103000000     2.037956000000    -1.650044000000     1.007825032230

  Charge       = 1
  Multiplicity = 1
  Basis Set: AUG-CC-PVTZ
    Blend: AUG-CC-PVTZ
  Basis Set: (AUG-CC-PVTZ AUX)
    Blend: AUG-CC-PVTZ-JKFIT + DEF2-UNIVERSAL-JKFIT

    Orbital Energies [Eh]
    ---------------------

    Doubly Occupied:

       1A   -133.661473     2A    -20.725426     3A    -20.724577
       4A    -20.714414     5A    -20.699250     6A    -20.692534
       7A    -14.618260     8A    -11.648238     9A    -11.648220
      10A    -11.648101    11A     -1.877723    12A     -1.509446
      13A     -1.502360    14A     -1.493784    15A     -1.490501
      16A     -1.475520    17A     -1.087235    18A     -1.086615
      19A     -1.083795    20A     -0.869449    21A     -0.864542
      22A     -0.862960    23A     -0.842208    24A     -0.836719
      25A     -0.751167    26A     -0.737314    27A     -0.730997
      28A     -0.722821    29A     -0.718153    30A     -0.673036
      31A     -0.664578    32A     -0.657184    33A     -0.641688
      34A     -0.639318

  @DF-RHF Final Energy:  -979.35927544032018

   => Energetics <=

    Nuclear Repulsion Energy =            342.2542364096674419
    One-Electron Energy =               -2022.0278039599979820
    Two-Electron Energy =                 700.4142921100102512
    Total Energy =                       -979.3592754403201752
 Dipole X            :        -66.2356045           67.1229567            0.8873522
 Dipole Y            :         15.4303584          -16.5274937           -1.0971353
 Dipole Z            :         83.3380463          -83.1169656            0.2210807
 Magnitude           :                                                    1.4282775
  Basis Set: (AUG-CC-PVTZ AUX)
    Blend: AUG-CC-PVTZ-RI + DEF2-QZVPP-RI
	 Reference Energy          =    -979.3592754403201752 [Eh]
	 Singles Energy            =      -0.0000000000000000 [Eh]
	 Same-Spin Energy          =      -0.3844770462755592 [Eh]
	 Opposite-Spin Energy      =      -1.1722775579400848 [Eh]
	 Correlation Energy        =      -1.5567546042156439 [Eh]
	 Total Energy              =    -980.9160300445357734 [Eh]

	 ================> DF-SCS-MP2 Energies <==================
	-----------------------------------------------------------
	 SCS Same-Spin Scale       =       0.3333333333333333 [-]
	 SCS Opposite-Spin Scale   =       1.2000000000000000 [-]
	 SCS Same-Spin Energy      =      -0.1281590154251864 [Eh]
	 SCS Opposite-Spin Energy  =      -1.4067330695281017 [Eh]
	 SCS Correlation Energy    =      -1.5348920849532881 [Eh]
	 SCS Total Energy          =    -980.8941675252734740 [Eh]
	-----------------------------------------------------------

*** Psi4 exiting successfully. Buy a developer a beer!
