                               Psi4 1.9 release

  ==> Input File <==

--------------------------------------------------------------------------
MEMORY 60 GB

molecule dimer {
1 1
K      0.000000     0.000000     0.000000
--
0 1
O      1.752063    -1.955740    -0.896493
H      2.693070    -2.147140    -1.012955
H      1.399783    -2.564561    -0.243759
O     -2.037636    -1.672138     0.117504
H     -2.427489    -2.365114     0.675856
H     -2.816892    -1.155028    -0.141307
O      0.519565    -0.340148     2.890005
H      0.272037     0.564577     2.764165
H     -0.190010    -0.696801     3.468111
O     -1.943971     1.609727     0.991987
H     -2.039868     2.479130     0.578168
H     -2.271273     1.714132     1.898834
O     -0.866082     1.453293    -2.302765
H     -0.118946     2.054102    -2.495125
H     -1.462586     2.104021    -1.901122

units ang
no_reorient
no_com
symmetry c1
}

set {
basis        aug-cc-pVTZ
scf_type     df
}

energy("mp2", bsse_type="cp")
--------------------------------------------------------------------------

                               Psi4 1.9 release
    Molecular point group: c1
  Charge       = 0
  Multiplicity = 1
  Basis Set: AUG-CC-PVTZ
    Blend: AUG-CC-PVTZ
  Basis Set: (AUG-CC-PVTZ AUX)
    Blend: AUG-CC-PVTZ-JKFIT + DEF2-UNIVERSAL-JKFIT
  @DF-RHF Final Energy:  -380.28557910374229
    Total Energy =                       -380.2855791037422932
 Dipole X            :         50.9396956          -52.1010003           -1.1613047
 Dipole Y            :         14.8682126          -13.7056734            1.1625392
 Dipole Z            :        -17.6350110           18.8835985            1.2485875
 Magnitude           :                                                    2.0637579
  Basis Set: (AUG-CC-PVTZ AUX)
    Blend: AUG-CC-PVTZ-RI + DEF2-QZVPP-RI
	 Reference Energy          =    -380.2855791037422932 [Eh]
	 Singles Energy            =      -0.0000000000000000 [Eh]
	 Same-Spin Energy          =      -0.3446705895895088 [Eh]
	 Opposite-Spin Energy      =      -1.0833429223680562 [Eh]
	 Correlation Energy        =      -1.4280135119575650 [Eh]
	 Total Energy              =    -381.7135926156998380 [Eh]
	 SCS Total Energy          =    -381.7004808071138200 [Eh]
                               Psi4 1.9 release
    Molecular point group: c1
  Multiplicity = 1
  Basis Set: AUG-CC-PVTZ
    Blend: AUG-CC-PVTZ
  Basis Set: (AUG-CC-PVTZ AUX)
    Blend: AUG-CC-PVTZ-JKFIT + DEF2-UNIVERSAL-JKFIT
  @DF-RHF Final Energy:  -599.01751620737150
    Total Energy =                       -599.0175162073715001
  Basis Set: (AUG-CC-PVTZ AUX)
	 Singles Energy            =      -0.0000000000000000 [Eh]
	 Same-Spin Energy          =      -0.0370119416434746 [Eh]
	 Opposite-Spin Energy      =      -0.0901048321105447 [Eh]
	 Correlation Energy        =      -0.1271167737540194 [Eh]
	 Total Energy              =    -599.1446329811254827 [Eh]
	 SCS Total Energy          =    -599.1379793197853587 [Eh]
                               Psi4 1.9 release
    Molecular point group: c1

    Geometry (in Bohr), charge = 1, multiplicity = 1:

       Center              X                  Y                   Z               Mass
    ------------   -----------------  -----------------  -----------------  -----------------
         K            0.000000000000     0.000000000000     0.000000000000    38.963706486400
         O            3.310919224548    -3.695812972603    -1.694126243390    15.994914619570
         H            5.089164736687    -4.057506553016    -1.914207527413     1.007825032230
         H            2.645206505072    -4.846317922030    -0.460637750615     1.007825032230
         O           -3.850573983373    -3.159882863971     0.222050378646    15.994914619570
         H           -4.587289382561    -4.469417715486     1.277182740247     1.007825032230
         H           -5.323154404993    -2.182686587235    -0.267031529610     1.007825032230
         O            0.981835554373    -0.642786562122     5.461317951204    15.994914619570
         H            0.514075425991     1.066895906733     5.223514815576     1.007825032230
         H           -0.359066861098    -1.316763053945     6.553779962688     1.007825032230
         O           -3.673572785832     3.041943166755     1.874583750015    15.994914619570
         H           -3.854791852085     4.684876729406     1.092579174504     1.007825032230
         H           -4.292083926147     3.239240022883     3.588276217708     1.007825032230
         O           -1.636657782189     2.746325750045    -4.351595181290    15.994914619570
         H           -0.224775363719     3.881690213755    -4.715102898783     1.007825032230
         H           -2.763886974929     3.976023452212    -3.592599911083     1.007825032230

  Charge       = 1
  Multiplicity = 1
  Basis Set: AUG-CC-PVTZ
    Blend: AUG-CC-PVTZ
  Basis Set: (AUG-CC-PVTZ AUX)
    Blend: AUG-CC-PVTZ-JKFIT + DEF2-UNIVERSAL-JKFIT

    Orbital Energies [Eh]
    ---------------------

    Doubly Occupied:

       1A   -133.613038     2A    -20.740614     3A    -20.720232
       4A    -20.715099     5A    -20.712332     6A    -20.699772
       7A    -14.570811     8A    -11.600712     9A    -11.600632
      10A    -11.600579    11A     -1.833502    12A     -1.522650
      13A     -1.499503    14A     -1.497155    15A     -1.496510
      16A     -1.483793    17A     -1.044838    18A     -1.042990
      19A     -1.042191    20A     -0.888971    21A     -0.857145
      22A     -0.856436    23A     -0.853372    24A     -0.843759
      25A     -0.762628    26A     -0.744795    27A     -0.742712
      28A     -0.731011    29A     -0.717318    30A     -0.686468
      31A     -0.662987    32A     -0.660417    33A     -0.655277
      34A     -0.645925

  @DF-RHF Final Energy:  -979.38854250774443

   => Energetics <=

    Nuclear Repulsion Energy =            345.8372229645025868
    One-Electron Energy =               -2029.7591813111580450
    Two-Electron Energy =                 704.5334158389109689
    Total Energy =                       -979.3885425077444324
 Dipole X            :         50.6513429          -52.1010003           -1.4496573
 Dipole Y            :         14.7572737          -13.7056734            1.0516003
 Dipole Z            :        -17.5484726           18.8835985            1.3351259
 Magnitude           :                                                    2.2338153
  Basis Set: (AUG-CC-PVTZ AUX)
    Blend: AUG-CC-PVTZ-RI + DEF2-QZVPP-RI
	 Reference Energy          =    -979.3885425077444324 [Eh]
	 Singles Energy            =      -0.0000000000000000 [Eh]
	 Same-Spin Energy          =      -0.3850015075898338 [Eh]
	 Opposite-Spin Energy      =      -1.1734410657791259 [Eh]
	 Correlation Energy        =      -1.5584425733689597 [Eh]
	 Total Energy              =    -980.9469850811134393 [Eh]

	 ================> DF-SCS-MP2 Energies <==================
	-----------------------------------------------------------
	 SCS Same-Spin Scale       =       0.3333333333333333 [-]
	 SCS Opposite-Spin Scale   =       1.2000000000000000 [-]
	 SCS Same-Spin Energy      =      -0.1283338358632779 [Eh]
	 SCS Opposite-Spin Energy  =      -1.4081292789349511 [Eh]
	 SCS Correlation Energy    =      -1.5364631147982291 [Eh]
	 SCS Total Energy          =    -980.9250056225426988 [Eh]
	-----------------------------------------------------------

*** Psi4 exiting successfully. Buy a developer a beer!
