                               Psi4 1.9 release

  ==> Input File <==

--------------------------------------------------------------------------
MEMORY 60 GB

molecule dimer {
1 1
K      0.000000     0.000000     0.000000
--
0 1
O     -1.748582    -1.917623     0.824916
H     -1.927657    -2.525574     0.033501
H     -1.050096    -2.347738     1.319853
O     -1.621019    -0.026661    -2.495029
H     -2.157829     0.783290    -2.142273
H     -0.938955     0.298904    -3.093444
O      1.590594     2.164731    -0.894823
H      1.235565     3.044904    -0.640630
H      1.783507     2.237495    -1.824659
O     -1.616151     1.949068     0.718448
H     -1.919618     2.437775    -0.050766
H     -2.417592     1.668498     1.285757
O      1.392847    -1.450900    -1.792945
H      2.296831    -1.347027    -1.608727
H      1.207511    -1.120090    -2.693635

units ang
no_reorient
no_com
symmetry c1
}

set {
basis        aug-cc-pVTZ
scf_type     df
}

energy("mp2", bsse_type="cp")
--------------------------------------------------------------------------

                               Psi4 1.9 release
    Molecular point group: c1
  Charge       = 0
  Multiplicity = 1
  Basis Set: AUG-CC-PVTZ
    Blend: AUG-CC-PVTZ
  Basis Set: (AUG-CC-PVTZ AUX)
    Blend: AUG-CC-PVTZ-JKFIT + DEF2-UNIVERSAL-JKFIT
  @DF-RHF Final Energy:  -380.27107970075474
    Total Energy =                       -380.2710797007547399
 Dipole X            :         37.7489934          -37.6184397            0.1305536
 Dipole Y            :        -15.7191922           16.7795529            1.0603607
 Dipole Z            :         71.5327736          -72.8120679           -1.2792943
 Magnitude           :                                                    1.6667342
  Basis Set: (AUG-CC-PVTZ AUX)
    Blend: AUG-CC-PVTZ-RI + DEF2-QZVPP-RI
	 Reference Energy          =    -380.2710797007547399 [Eh]
	 Singles Energy            =      -0.0000000000000000 [Eh]
	 Same-Spin Energy          =      -0.3452304166123175 [Eh]
	 Opposite-Spin Energy      =      -1.0853254931032057 [Eh]
	 Correlation Energy        =      -1.4305559097155232 [Eh]
	 Total Energy              =    -381.7016356104702481 [Eh]
	 SCS Total Energy          =    -381.6885470980160449 [Eh]
                               Psi4 1.9 release
    Molecular point group: c1
  Multiplicity = 1
  Basis Set: AUG-CC-PVTZ
    Blend: AUG-CC-PVTZ
  Basis Set: (AUG-CC-PVTZ AUX)
    Blend: AUG-CC-PVTZ-JKFIT + DEF2-UNIVERSAL-JKFIT
  @DF-RHF Final Energy:  -599.01751622340362
    Total Energy =                       -599.0175162234036179
  Basis Set: (AUG-CC-PVTZ AUX)
	 Singles Energy            =      -0.0000000000000000 [Eh]
	 Same-Spin Energy          =      -0.0371575452665439 [Eh]
	 Opposite-Spin Energy      =      -0.0905337144719901 [Eh]
	 Correlation Energy        =      -0.1276912597385340 [Eh]
	 Total Energy              =    -599.1452074831421442 [Eh]
	 SCS Total Energy          =    -599.1385425291921365 [Eh]
                               Psi4 1.9 release
    Molecular point group: c1

    Geometry (in Bohr), charge = 1, multiplicity = 1:

       Center              X                  Y                   Z               Mass
    ------------   -----------------  -----------------  -----------------  -----------------
         K            0.000000000000     0.000000000000     0.000000000000    38.963706486400
         O           -3.304341087905    -3.623782281879     1.558865316508    15.994914619570
         H           -3.642743793822    -4.772643169577     0.063307714929     1.007825032230
         H           -1.984393845439    -4.436581834330     2.494160695864     1.007825032230
         O           -3.063281954164    -0.050381988231    -4.714921485075    15.994914619570
         H           -4.077705835571     1.480203576810    -4.048309255963     1.007825032230
         H           -1.774367794129     0.564846697804    -5.845761944441     1.007825032230
         O            3.005787036796     4.090748725288    -1.690970400761    15.994914619570
         H            2.334879460201     5.754034638311    -1.210615247752     1.007825032230
         H            3.370339772837     4.228252757081    -3.448105782352     1.007825032230
         O           -3.054082767385     3.683204719894     1.357669955383    15.994914619570
         H           -3.627552285499     4.606727105488    -0.095933836485     1.007825032230
         H           -4.568586763098     3.153004260874     2.429728593890     1.007825032230
         O            2.632099364666    -2.741803635427    -3.388175008009    15.994914619570
         H            4.340381546461    -2.545512113597    -3.040053440629     1.007825032230
         H            2.281865083478    -2.116663335864    -5.090232431948     1.007825032230

  Charge       = 1
  Multiplicity = 1
  Basis Set: AUG-CC-PVTZ
    Blend: AUG-CC-PVTZ
  Basis Set: (AUG-CC-PVTZ AUX)
    Blend: AUG-CC-PVTZ-JKFIT + DEF2-UNIVERSAL-JKFIT

    Orbital Energies [Eh]
    ---------------------

    Doubly Occupied:

       1A   -133.609557     2A    -20.728171     3A    -20.725094
       4A    -20.722830     5A    -20.718523     6A    -20.712730
       7A    -14.567646     8A    -11.597569     9A    -11.597369
      10A    -11.597359    11A     -1.831446    12A     -1.511173
      13A     -1.504854    14A     -1.497577    15A     -1.486509
      16A     -1.484910    17A     -1.043370    18A     -1.041009
      19A     -1.039688    20A     -0.886230    21A     -0.871046
      22A     -0.867636    23A     -0.855797    24A     -0.847052
      25A     -0.743901    26A     -0.739941    27A     -0.733954
      28A     -0.724548    29A     -0.723279    30A     -0.673736
      31A     -0.668684    32A     -0.666899    33A     -0.660532
      34A     -0.654841

  @DF-RHF Final Energy:  -979.37110437196077

   => Energetics <=

    Nuclear Repulsion Energy =            350.7900578309574939
    One-Electron Energy =               -2039.6513960262534511
    Two-Electron Energy =                 709.4902338233351884
    Total Energy =                       -979.3711043719607687
 Dipole X            :         37.5316045          -37.6184397           -0.0868352
 Dipole Y            :        -15.6292662           16.7795529            1.1502867
 Dipole Z            :         71.1940220          -72.8120679           -1.6180459
 Magnitude           :                                                    1.9871518
  Basis Set: (AUG-CC-PVTZ AUX)
    Blend: AUG-CC-PVTZ-RI + DEF2-QZVPP-RI
	 Reference Energy          =    -979.3711043719607687 [Eh]
	 Singles Energy            =      -0.0000000000000000 [Eh]
	 Same-Spin Energy          =      -0.3861521898511049 [Eh]
	 Opposite-Spin Energy      =      -1.1764399559771990 [Eh]
	 Correlation Energy        =      -1.5625921458283039 [Eh]
	 Total Energy              =    -980.9336965177890306 [Eh]

	 ================> DF-SCS-MP2 Energies <==================
	-----------------------------------------------------------
	 SCS Same-Spin Scale       =       0.3333333333333333 [-]
	 SCS Opposite-Spin Scale   =       1.2000000000000000 [-]
	 SCS Same-Spin Energy      =      -0.1287173966170350 [Eh]
	 SCS Opposite-Spin Energy  =      -1.4117279471726387 [Eh]
	 SCS Correlation Energy    =      -1.5404453437896737 [Eh]
	 SCS Total Energy          =    -980.9115497157504251 [Eh]
	-----------------------------------------------------------

*** Psi4 exiting successfully. Buy a developer a beer!
