                               Psi4 1.9 release

  ==> Input File <==

--------------------------------------------------------------------------
MEMORY 60 GB

molecule dimer {
1 1
K          0.000000     0.000000     0.000000
O          0.075155    -1.723621    -2.222691
H          0.160553    -2.664415    -2.167190
H          0.364851    -1.484375    -3.131935
O          1.231668    -2.456321     1.234605
H          1.127068    -3.384287     0.950491
H          0.887056    -2.271199     2.158531
O         -2.591511    -1.086420     0.720781
H         -3.095590    -1.651979     1.265500
H         -3.189225    -0.757403     0.067002
O          0.999639     2.617895     0.271985
H          0.388983     3.122801     0.770979
H          1.638461     2.439843     1.007245
O          1.255850     0.564449     2.393699
H          1.293308     0.072444     3.193687
H          1.888924     1.216741     2.629633

units ang
no_reorient
no_com
symmetry c1
}

set {
basis        aug-cc-pVTZ
scf_type     df
}

energy("mp2")
--------------------------------------------------------------------------

    Molecular point group: c1

    Geometry (in Angstrom), charge = 1, multiplicity = 1:

       Center              X                  Y                   Z               Mass
    ------------   -----------------  -----------------  -----------------  -----------------
         K            0.000000000000     0.000000000000     0.000000000000    38.963706486400
         O            0.075155000000    -1.723621000000    -2.222691000000    15.994914619570
         H            0.160553000000    -2.664415000000    -2.167190000000     1.007825032230
         H            0.364851000000    -1.484375000000    -3.131935000000     1.007825032230
         O            1.231668000000    -2.456321000000     1.234605000000    15.994914619570
         H            1.127068000000    -3.384287000000     0.950491000000     1.007825032230
         H            0.887056000000    -2.271199000000     2.158531000000     1.007825032230
         O           -2.591511000000    -1.086420000000     0.720781000000    15.994914619570
         H           -3.095590000000    -1.651979000000     1.265500000000     1.007825032230
         H           -3.189225000000    -0.757403000000     0.067002000000     1.007825032230
         O            0.999639000000     2.617895000000     0.271985000000    15.994914619570
         H            0.388983000000     3.122801000000     0.770979000000     1.007825032230
         H            1.638461000000     2.439843000000     1.007245000000     1.007825032230
         O            1.255850000000     0.564449000000     2.393699000000    15.994914619570
         H            1.293308000000     0.072444000000     3.193687000000     1.007825032230
         H            1.888924000000     1.216741000000     2.629633000000     1.007825032230

  Charge       = 1
  Multiplicity = 1
  Basis Set: AUG-CC-PVTZ
    Blend: AUG-CC-PVTZ
  Basis Set: (AUG-CC-PVTZ AUX)
    Blend: AUG-CC-PVTZ-JKFIT + DEF2-UNIVERSAL-JKFIT

    Orbital Energies [Eh]
    ---------------------

    Doubly Occupied:

       1A   -133.610370     2A    -20.726253     3A    -20.709056
       4A    -20.704039     5A    -20.702422     6A    -20.701832
       7A    -14.567567     8A    -11.597528     9A    -11.597494
      10A    -11.597368    11A     -1.828303    12A     -1.532463
      13A     -1.502912    14A     -1.497760    15A     -1.487538
      16A     -1.466764    17A     -1.038425    18A     -1.037764
      19A     -1.035970    20A     -0.881200    21A     -0.871072
      22A     -0.853667    23A     -0.850623    24A     -0.837023
      25A     -0.774238    26A     -0.741032    27A     -0.733988
      28A     -0.727365    29A     -0.699375    30A     -0.677468
      31A     -0.654363    32A     -0.653664    33A     -0.649178
      34A     -0.640892

  @DF-RHF Final Energy:  -979.38918240579073

   => Energetics <=

    Nuclear Repulsion Energy =            339.8654420170237813
    One-Electron Energy =               -2018.1352801877428647
    Two-Electron Energy =                 698.8806557649284059
    Total Energy =                       -979.3891824057907343
 Dipole X            :        -17.7323948           17.4436782           -0.2887166
 Dipole Y            :         40.6328135          -41.6381744           -1.0053610
 Dipole Z            :        -47.5868929           49.0024409            1.4155481
 Magnitude           :                                                    1.7600807
  Basis Set: (AUG-CC-PVTZ AUX)
    Blend: AUG-CC-PVTZ-RI + DEF2-QZVPP-RI
	 Reference Energy          =    -979.3891824057907343 [Eh]
	 Singles Energy            =      -0.0000000000000000 [Eh]
	 Same-Spin Energy          =      -0.3823242017286176 [Eh]
	 Opposite-Spin Energy      =      -1.1665656340305206 [Eh]
	 Correlation Energy        =      -1.5488898357591383 [Eh]
	 Total Energy              =    -980.9380722415498894 [Eh]

	 ================> DF-SCS-MP2 Energies <==================
	-----------------------------------------------------------
	 SCS Same-Spin Scale       =       0.3333333333333333 [-]
	 SCS Opposite-Spin Scale   =       1.2000000000000000 [-]
	 SCS Same-Spin Energy      =      -0.1274414005762058 [Eh]
	 SCS Opposite-Spin Energy  =      -1.3998787608366248 [Eh]
	 SCS Correlation Energy    =      -1.5273201614128307 [Eh]
	 SCS Total Energy          =    -980.9165025672035654 [Eh]
	-----------------------------------------------------------

*** Psi4 exiting successfully. Buy a developer a beer!
