                               Psi4 1.9 release

  ==> Input File <==

--------------------------------------------------------------------------
MEMORY 60 GB

molecule dimer {
0 1
Gh(K)      0.000000     0.000000     0.000000
O          1.648898    -1.546006    -1.857996
H          2.092535    -1.100966    -2.598197
H          2.194052    -2.356053    -1.700477
Gh(O)     -1.568301     2.383087    -1.001812
Gh(H)     -1.802415     2.237050    -1.910497
Gh(H)     -1.213233     3.238371    -0.886325
Gh(O)      2.091592     1.900784     0.705839
Gh(H)      2.615292     1.641900     1.402222
Gh(H)      2.546075     1.586819    -0.079299
Gh(O)      0.683124    -2.379385     1.323810
Gh(H)      1.575264    -2.320863     1.667866
Gh(H)      0.490384    -3.085364     0.686686
Gh(O)     -1.338183    -0.586736    -2.404592
Gh(H)     -2.281260    -0.401331    -2.486804
Gh(H)     -1.244841    -1.567581    -2.320192
Gh(O)     -2.060914     0.053466     1.559508
Gh(H)     -2.771129     0.606849     1.759945
Gh(H)     -2.154751    -0.845782     1.906871

units ang
no_reorient
no_com
symmetry c1
}

set {
basis        aug-cc-pVTZ
scf_type     df
}

energy("mp2")
--------------------------------------------------------------------------

    Molecular point group: c1

    Geometry (in Angstrom), charge = 0, multiplicity = 1:

       Center              X                  Y                   Z               Mass
    ------------   -----------------  -----------------  -----------------  -----------------
      Gh(K)           0.000000000000     0.000000000000     0.000000000000    38.963706486400
         O            1.648898000000    -1.546006000000    -1.857996000000    15.994914619570
         H            2.092535000000    -1.100966000000    -2.598197000000     1.007825032230
         H            2.194052000000    -2.356053000000    -1.700477000000     1.007825032230
      Gh(O)          -1.568301000000     2.383087000000    -1.001812000000    15.994914619570
      Gh(H)          -1.802415000000     2.237050000000    -1.910497000000     1.007825032230
      Gh(H)          -1.213233000000     3.238371000000    -0.886325000000     1.007825032230
      Gh(O)           2.091592000000     1.900784000000     0.705839000000    15.994914619570
      Gh(H)           2.615292000000     1.641900000000     1.402222000000     1.007825032230
      Gh(H)           2.546075000000     1.586819000000    -0.079299000000     1.007825032230
      Gh(O)           0.683124000000    -2.379385000000     1.323810000000    15.994914619570
      Gh(H)           1.575264000000    -2.320863000000     1.667866000000     1.007825032230
      Gh(H)           0.490384000000    -3.085364000000     0.686686000000     1.007825032230
      Gh(O)          -1.338183000000    -0.586736000000    -2.404592000000    15.994914619570
      Gh(H)          -2.281260000000    -0.401331000000    -2.486804000000     1.007825032230
      Gh(H)          -1.244841000000    -1.567581000000    -2.320192000000     1.007825032230
      Gh(O)          -2.060914000000     0.053466000000     1.559508000000    15.994914619570
      Gh(H)          -2.771129000000     0.606849000000     1.759945000000     1.007825032230
      Gh(H)          -2.154751000000    -0.845782000000     1.906871000000     1.007825032230

  Charge       = 0
  Multiplicity = 1
  Basis Set: AUG-CC-PVTZ
    Blend: AUG-CC-PVTZ
  Basis Set: (AUG-CC-PVTZ AUX)
    Blend: AUG-CC-PVTZ-JKFIT + DEF2-UNIVERSAL-JKFIT

    Orbital Energies [Eh]
    ---------------------

    Doubly Occupied:

       1A    -20.571169     2A     -1.342374     3A     -0.704874
       4A     -0.581136     5A     -0.508605

  @DF-RHF Final Energy:   -76.05808350792707

   => Energetics <=

    Nuclear Repulsion Energy =              8.9825770287868689
    One-Electron Energy =                -122.6650037212985040
    Two-Electron Energy =                  37.6243431845845819
    Total Energy =                        -76.0580835079270514
 Dipole X            :        -32.3805696           33.0282005            0.6476309
 Dipole Y            :         29.6683832          -29.9050425           -0.2366593
 Dipole Z            :         35.8284866          -36.2121452           -0.3836586
 Magnitude           :                                                    0.7890674
  Basis Set: (AUG-CC-PVTZ AUX)
    Blend: AUG-CC-PVTZ-RI + DEF2-QZVPP-RI
	 Reference Energy          =     -76.0580835079270656 [Eh]
	 Singles Energy            =      -0.0000000000000000 [Eh]
	 Same-Spin Energy          =      -0.0687898757683990 [Eh]
	 Opposite-Spin Energy      =      -0.2168138739299781 [Eh]
	 Correlation Energy        =      -0.2856037496983770 [Eh]
	 Total Energy              =     -76.3436872576254473 [Eh]

	 ================> DF-SCS-MP2 Energies <==================
	-----------------------------------------------------------
	 SCS Same-Spin Scale       =       0.3333333333333333 [-]
	 SCS Opposite-Spin Scale   =       1.2000000000000000 [-]
	 SCS Same-Spin Energy      =      -0.0229299585894663 [Eh]
	 SCS Opposite-Spin Energy  =      -0.2601766487159737 [Eh]
	 SCS Correlation Energy    =      -0.2831066073054400 [Eh]
	 SCS Total Energy          =     -76.3411901152325072 [Eh]
	-----------------------------------------------------------

*** Psi4 exiting successfully. Buy a developer a beer!
