                               Psi4 1.9 release

  ==> Input File <==

--------------------------------------------------------------------------
MEMORY 60 GB

molecule dimer {
0 1
Gh(K)      0.000000     0.000000     0.000000
Gh(O)      0.577144     2.541320     0.000600
Gh(H)      1.213804     2.744613     0.747683
Gh(H)     -0.094201     3.104652     0.284161
Gh(O)     -2.116734    -0.221233    -1.605170
Gh(H)     -2.311595     0.706106    -1.826664
Gh(H)     -1.611838    -0.483958    -2.409399
O         -0.049892    -1.890371     2.061110
H          0.247910    -2.821836     2.137168
H         -0.958496    -1.910780     2.339261
Gh(O)      1.916245     0.015119    -1.956164
Gh(H)      2.821662     0.235522    -1.746799
Gh(H)      1.929350    -0.944808    -2.052363

units ang
no_reorient
no_com
symmetry c1
}

set {
basis        aug-cc-pVTZ
scf_type     df
}

energy("mp2")
--------------------------------------------------------------------------

    Molecular point group: c1

    Geometry (in Angstrom), charge = 0, multiplicity = 1:

       Center              X                  Y                   Z               Mass
    ------------   -----------------  -----------------  -----------------  -----------------
      Gh(K)           0.000000000000     0.000000000000     0.000000000000    38.963706486400
      Gh(O)           0.577144000000     2.541320000000     0.000600000000    15.994914619570
      Gh(H)           1.213804000000     2.744613000000     0.747683000000     1.007825032230
      Gh(H)          -0.094201000000     3.104652000000     0.284161000000     1.007825032230
      Gh(O)          -2.116734000000    -0.221233000000    -1.605170000000    15.994914619570
      Gh(H)          -2.311595000000     0.706106000000    -1.826664000000     1.007825032230
      Gh(H)          -1.611838000000    -0.483958000000    -2.409399000000     1.007825032230
         O           -0.049892000000    -1.890371000000     2.061110000000    15.994914619570
         H            0.247910000000    -2.821836000000     2.137168000000     1.007825032230
         H           -0.958496000000    -1.910780000000     2.339261000000     1.007825032230
      Gh(O)           1.916245000000     0.015119000000    -1.956164000000    15.994914619570
      Gh(H)           2.821662000000     0.235522000000    -1.746799000000     1.007825032230
      Gh(H)           1.929350000000    -0.944808000000    -2.052363000000     1.007825032230

  Charge       = 0
  Multiplicity = 1
  Basis Set: AUG-CC-PVTZ
    Blend: AUG-CC-PVTZ
  Basis Set: (AUG-CC-PVTZ AUX)
    Blend: AUG-CC-PVTZ-JKFIT + DEF2-UNIVERSAL-JKFIT

    Orbital Energies [Eh]
    ---------------------

    Doubly Occupied:

       1A    -20.568626     2A     -1.349598     3A     -0.712883
       4A     -0.583601     5A     -0.509728

  @DF-RHF Final Energy:   -76.05951782085359

   => Energetics <=

    Nuclear Repulsion Energy =              9.1170957358665135
    One-Electron Energy =                -122.9043528241934382
    Two-Electron Energy =                  37.7277392674733321
    Total Energy =                        -76.0595178208535856
 Dipole X            :          1.6889320           -2.0970707           -0.4081387
 Dipole Y            :         36.8952161          -37.5216158           -0.6263997
 Dipole Z            :        -39.3835462           39.6186921            0.2351459
 Magnitude           :                                                    0.7837393
  Basis Set: (AUG-CC-PVTZ AUX)
    Blend: AUG-CC-PVTZ-RI + DEF2-QZVPP-RI
	 Reference Energy          =     -76.0595178208535856 [Eh]
	 Singles Energy            =      -0.0000000000000000 [Eh]
	 Same-Spin Energy          =      -0.0685178234892081 [Eh]
	 Opposite-Spin Energy      =      -0.2158995510090219 [Eh]
	 Correlation Energy        =      -0.2844173744982300 [Eh]
	 Total Energy              =     -76.3439351953518184 [Eh]

	 ================> DF-SCS-MP2 Energies <==================
	-----------------------------------------------------------
	 SCS Same-Spin Scale       =       0.3333333333333333 [-]
	 SCS Opposite-Spin Scale   =       1.2000000000000000 [-]
	 SCS Same-Spin Energy      =      -0.0228392744964027 [Eh]
	 SCS Opposite-Spin Energy  =      -0.2590794612108262 [Eh]
	 SCS Correlation Energy    =      -0.2819187357072289 [Eh]
	 SCS Total Energy          =     -76.3414365565608080 [Eh]
	-----------------------------------------------------------

*** Psi4 exiting successfully. Buy a developer a beer!
