                               Psi4 1.9 release

  ==> Input File <==

--------------------------------------------------------------------------
MEMORY 60 GB

molecule dimer {
1 1
K      0.000000     0.000000     0.000000
--
0 1
O     -1.761971     1.679819    -1.384796
H     -1.993530     1.859311    -2.310131
H     -1.491064     2.551322    -1.061033
O     -1.934913    -2.329125     0.427012
H     -2.429676    -2.843944    -0.200316
H     -2.478147    -1.527226     0.550138
O     -0.769395    -1.744512    -2.140743
H     -0.280499    -2.412102    -1.484121
H     -1.513491    -2.237356    -2.422087
O      0.163245     3.037506     0.036371
H      0.343344     3.833379    -0.472962
H      0.088329     3.252112     0.940310
O      2.337800     1.279403    -0.997110
H      2.614134     2.061165    -0.590317
H      1.747208     1.653313    -1.667772
O      0.977425    -0.442696     2.492052
H      1.859603    -0.903416     2.580845
H      0.477952    -0.770092     3.245807

units ang
no_reorient
no_com
symmetry c1
}

set {
basis        aug-cc-pVTZ
scf_type     df
}

energy("mp2", bsse_type="cp")
--------------------------------------------------------------------------

                               Psi4 1.9 release
    Molecular point group: c1
  Charge       = 0
  Multiplicity = 1
  Basis Set: AUG-CC-PVTZ
    Blend: AUG-CC-PVTZ
  Basis Set: (AUG-CC-PVTZ AUX)
    Blend: AUG-CC-PVTZ-JKFIT + DEF2-UNIVERSAL-JKFIT
  @DF-RHF Final Energy:  -456.33054468668342
    Total Energy =                       -456.3305446866834245
 Dipole X            :         20.0592070          -20.7082028           -0.6489958
 Dipole Y            :        -29.8114706           30.9152127            1.1037421
 Dipole Z            :         29.5196363          -29.1572477            0.3623887
 Magnitude           :                                                    1.3307019
  Basis Set: (AUG-CC-PVTZ AUX)
    Blend: AUG-CC-PVTZ-RI + DEF2-QZVPP-RI
	 Reference Energy          =    -456.3305446866834245 [Eh]
	 Singles Energy            =      -0.0000000000000000 [Eh]
	 Same-Spin Energy          =      -0.4156145283716692 [Eh]
	 Opposite-Spin Energy      =      -1.3020669547893722 [Eh]
	 Correlation Energy        =      -1.7176814831610414 [Eh]
	 Total Energy              =    -458.0482261698444404 [Eh]
	 SCS Total Energy          =    -458.0315632085545872 [Eh]
                               Psi4 1.9 release
    Molecular point group: c1
  Multiplicity = 1
  Basis Set: AUG-CC-PVTZ
    Blend: AUG-CC-PVTZ
  Basis Set: (AUG-CC-PVTZ AUX)
    Blend: AUG-CC-PVTZ-JKFIT + DEF2-UNIVERSAL-JKFIT
  @DF-RHF Final Energy:  -599.01751651678023
    Total Energy =                       -599.0175165167802334
  Basis Set: (AUG-CC-PVTZ AUX)
	 Singles Energy            =      -0.0000000000000000 [Eh]
	 Same-Spin Energy          =      -0.0378329467044258 [Eh]
	 Opposite-Spin Energy      =      -0.0924146485220751 [Eh]
	 Correlation Energy        =      -0.1302475952265010 [Eh]
	 Total Energy              =    -599.1477641120067119 [Eh]
	 SCS Total Energy          =    -599.1410250772415793 [Eh]
                               Psi4 1.9 release
    Molecular point group: c1

    Geometry (in Bohr), charge = 1, multiplicity = 1:

       Center              X                  Y                   Z               Mass
    ------------   -----------------  -----------------  -----------------  -----------------
         K            0.000000000000     0.000000000000     0.000000000000    38.963706486400
         O           -3.329642630999     3.174397850340    -2.616885179629    15.994914619570
         H           -3.767225722884     3.513588572051    -4.365514903930     1.007825032230
         H           -2.817702595530     4.821299837855    -2.005061780073     1.007825032230
         O           -3.656455646588    -4.401408361957     0.806935732284    15.994914619570
         H           -4.591422213598    -5.374275276139    -0.378542378547     1.007825032230
         H           -4.683019128625    -2.886038871678     1.039610151207     1.007825032230
         O           -1.453945832297    -3.296649902575    -4.045417974991    15.994914619570
         H           -0.530066288465    -4.558212166669    -2.804582227041     1.007825032230
         H           -2.860083483345    -4.227990085150    -4.577081082032     1.007825032230
         O            0.308488341350     5.740054444435     0.068731228909    15.994914619570
         H            0.648826126819     7.244036445081    -0.893768647749     1.007825032230
         H            0.166917618936     6.145601009315     1.776928373029     1.007825032230
         O            4.417801736095     2.417721274089    -1.884264816955    15.994914619570
         H            4.939997315248     3.895037349379    -1.115537457202     1.007825032230
         H            3.301744604209     3.124308769659    -3.151632319707     1.007825032230
         O            1.847065558176    -0.836574196836     4.709295770399    15.994914619570
         H            3.514140372080    -1.707208817357     4.877090222257     1.007825032230
         H            0.903198381115    -1.455262971406     6.133686286094     1.007825032230

  Charge       = 1
  Multiplicity = 1
  Basis Set: AUG-CC-PVTZ
    Blend: AUG-CC-PVTZ
  Basis Set: (AUG-CC-PVTZ AUX)
    Blend: AUG-CC-PVTZ-JKFIT + DEF2-UNIVERSAL-JKFIT

    Orbital Energies [Eh]
    ---------------------

    Doubly Occupied:

       1A   -133.609481     2A    -20.723017     3A    -20.714589
       4A    -20.703101     5A    -20.700039     6A    -20.694395
       7A    -20.693532     8A    -14.566876     9A    -11.596875
      10A    -11.596741    11A    -11.596634    12A     -1.828354
      13A     -1.521908    14A     -1.493216    15A     -1.489947
      16A     -1.489657    17A     -1.477633    18A     -1.468457
      19A     -1.039788    20A     -1.037594    21A     -1.035759
      22A     -0.898374    23A     -0.851848    24A     -0.848577
      25A     -0.842781    26A     -0.841389    27A     -0.827345
      28A     -0.748311    29A     -0.736937    30A     -0.728852
      31A     -0.725528    32A     -0.722663    33A     -0.712218
      34A     -0.676735    35A     -0.663382    36A     -0.657266
      37A     -0.641052    38A     -0.638579    39A     -0.624523

  @DF-RHF Final Energy: -1055.44185460330436

   => Energetics <=

    Nuclear Repulsion Energy =            447.8435192027764060
    One-Electron Energy =               -2337.6428346875954958
    Two-Electron Energy =                 834.3574608815148395
    Total Energy =                      -1055.4418546033043640
 Dipole X            :         20.0070116          -20.7082028           -0.7011913
 Dipole Y            :        -29.6919071           30.9152127            1.2233056
 Dipole Z            :         29.3926831          -29.1572477            0.2354354
 Magnitude           :                                                    1.4295368
  Basis Set: (AUG-CC-PVTZ AUX)
    Blend: AUG-CC-PVTZ-RI + DEF2-QZVPP-RI
	 Reference Energy          =   -1055.4418546033043640 [Eh]
	 Singles Energy            =      -0.0000000000000000 [Eh]
	 Same-Spin Energy          =      -0.4564998027260290 [Eh]
	 Opposite-Spin Energy      =      -1.3940236610794039 [Eh]
	 Correlation Energy        =      -1.8505234638054329 [Eh]
	 Total Energy              =   -1057.2923780671098939 [Eh]

	 ================> DF-SCS-MP2 Energies <==================
	-----------------------------------------------------------
	 SCS Same-Spin Scale       =       0.3333333333333333 [-]
	 SCS Opposite-Spin Scale   =       1.2000000000000000 [-]
	 SCS Same-Spin Energy      =      -0.1521666009086763 [Eh]
	 SCS Opposite-Spin Energy  =      -1.6728283932952845 [Eh]
	 SCS Correlation Energy    =      -1.8249949942039609 [Eh]
	 SCS Total Energy          =   -1057.2668495975083260 [Eh]
	-----------------------------------------------------------

*** Psi4 exiting successfully. Buy a developer a beer!
