                               Psi4 1.9 release

  ==> Input File <==

--------------------------------------------------------------------------
MEMORY 60 GB

molecule dimer {
1 1
K          0.000000     0.000000     0.000000
O          1.071555     0.954094    -2.190576
H          0.988044     0.627626    -3.082246
H          2.033843     1.175330    -2.123700
O          0.274950    -2.378870     1.386517
H          1.061758    -2.885643     1.678485
H         -0.286488    -2.176641     2.185497
O         -2.600308    -0.631598     1.158703
H         -3.127240     0.272988     1.162722
H         -3.320091    -1.304406     1.282020
O          1.663337     0.245190     1.974484
H          1.864456    -0.680749     1.983483
H          0.980603     0.492300     2.612029
O         -1.135864     2.411578    -0.478100
H         -1.659332     3.079461    -0.022507
H         -0.274050     2.843524    -0.678120

units ang
no_reorient
no_com
symmetry c1
}

set {
basis        aug-cc-pVTZ
scf_type     df
}

energy("mp2")
--------------------------------------------------------------------------

    Molecular point group: c1

    Geometry (in Angstrom), charge = 1, multiplicity = 1:

       Center              X                  Y                   Z               Mass
    ------------   -----------------  -----------------  -----------------  -----------------
         K            0.000000000000     0.000000000000     0.000000000000    38.963706486400
         O            1.071555000000     0.954094000000    -2.190576000000    15.994914619570
         H            0.988044000000     0.627626000000    -3.082246000000     1.007825032230
         H            2.033843000000     1.175330000000    -2.123700000000     1.007825032230
         O            0.274950000000    -2.378870000000     1.386517000000    15.994914619570
         H            1.061758000000    -2.885643000000     1.678485000000     1.007825032230
         H           -0.286488000000    -2.176641000000     2.185497000000     1.007825032230
         O           -2.600308000000    -0.631598000000     1.158703000000    15.994914619570
         H           -3.127240000000     0.272988000000     1.162722000000     1.007825032230
         H           -3.320091000000    -1.304406000000     1.282020000000     1.007825032230
         O            1.663337000000     0.245190000000     1.974484000000    15.994914619570
         H            1.864456000000    -0.680749000000     1.983483000000     1.007825032230
         H            0.980603000000     0.492300000000     2.612029000000     1.007825032230
         O           -1.135864000000     2.411578000000    -0.478100000000    15.994914619570
         H           -1.659332000000     3.079461000000    -0.022507000000     1.007825032230
         H           -0.274050000000     2.843524000000    -0.678120000000     1.007825032230

  Charge       = 1
  Multiplicity = 1
  Basis Set: AUG-CC-PVTZ
    Blend: AUG-CC-PVTZ
  Basis Set: (AUG-CC-PVTZ AUX)
    Blend: AUG-CC-PVTZ-JKFIT + DEF2-UNIVERSAL-JKFIT

    Orbital Energies [Eh]
    ---------------------

    Doubly Occupied:

       1A   -133.598368     2A    -20.722423     3A    -20.720099
       4A    -20.718651     5A    -20.709984     6A    -20.709521
       7A    -14.556745     8A    -11.586601     9A    -11.586509
      10A    -11.586431    11A     -1.821507    12A     -1.503094
      13A     -1.502422    14A     -1.490729    15A     -1.488059
      16A     -1.468376    17A     -1.033188    18A     -1.031855
      19A     -1.031197    20A     -0.886069    21A     -0.862078
      22A     -0.860527    23A     -0.853167    24A     -0.824615
      25A     -0.746690    26A     -0.732207    27A     -0.727278
      28A     -0.724868    29A     -0.724225    30A     -0.672634
      31A     -0.666239    32A     -0.653387    33A     -0.652198
      34A     -0.650396

  @DF-RHF Final Energy:  -979.37870411878475

   => Energetics <=

    Nuclear Repulsion Energy =            352.3682958067737445
    One-Electron Energy =               -2043.2893144483921333
    Two-Electron Energy =                 711.5423145228337489
    Total Energy =                       -979.3787041187847535
 Dipole X            :         14.0052726          -14.2658014           -0.2605288
 Dipole Y            :        -11.6535947           11.8050095            0.1514148
 Dipole Z            :        -36.5614454           37.4277021            0.8662567
 Magnitude           :                                                    0.9171708
  Basis Set: (AUG-CC-PVTZ AUX)
    Blend: AUG-CC-PVTZ-RI + DEF2-QZVPP-RI
	 Reference Energy          =    -979.3787041187847535 [Eh]
	 Singles Energy            =      -0.0000000000000000 [Eh]
	 Same-Spin Energy          =      -0.3877840980056462 [Eh]
	 Opposite-Spin Energy      =      -1.1790734172390900 [Eh]
	 Correlation Energy        =      -1.5668575152447362 [Eh]
	 Total Energy              =    -980.9455616340294455 [Eh]

	 ================> DF-SCS-MP2 Energies <==================
	-----------------------------------------------------------
	 SCS Same-Spin Scale       =       0.3333333333333333 [-]
	 SCS Opposite-Spin Scale   =       1.2000000000000000 [-]
	 SCS Same-Spin Energy      =      -0.1292613660018820 [Eh]
	 SCS Opposite-Spin Energy  =      -1.4148881006869078 [Eh]
	 SCS Correlation Energy    =      -1.5441494666887898 [Eh]
	 SCS Total Energy          =    -980.9228535854734901 [Eh]
	-----------------------------------------------------------

*** Psi4 exiting successfully. Buy a developer a beer!
