                               Psi4 1.9 release

  ==> Input File <==

--------------------------------------------------------------------------
MEMORY 60 GB

molecule dimer {
0 1
Gh(K)      0.000000     0.000000     0.000000
Gh(O)      0.614161    -2.662596    -1.000568
Gh(H)     -0.113826    -3.251565    -1.198118
Gh(H)      1.186112    -2.667876    -1.734079
Gh(O)      0.729810     2.373837    -1.025151
Gh(H)      1.167478     2.701220    -1.857432
Gh(H)     -0.147525     2.842033    -0.995735
Gh(O)     -1.008658     0.423253     2.460831
Gh(H)     -0.735495    -0.358124     2.948601
Gh(H)     -1.939879     0.354150     2.274018
O          2.850153    -0.237363     0.329338
H          3.197928    -1.122902     0.376841
H          3.494571     0.227443    -0.233883
Gh(O)     -2.469746    -0.508728    -1.426203
Gh(H)     -3.370408    -0.248234    -1.430514
Gh(H)     -2.421727    -0.991925    -2.274776

units ang
no_reorient
no_com
symmetry c1
}

set {
basis        aug-cc-pVTZ
scf_type     df
}

energy("mp2")
--------------------------------------------------------------------------

    Molecular point group: c1

    Geometry (in Angstrom), charge = 0, multiplicity = 1:

       Center              X                  Y                   Z               Mass
    ------------   -----------------  -----------------  -----------------  -----------------
      Gh(K)           0.000000000000     0.000000000000     0.000000000000    38.963706486400
      Gh(O)           0.614161000000    -2.662596000000    -1.000568000000    15.994914619570
      Gh(H)          -0.113826000000    -3.251565000000    -1.198118000000     1.007825032230
      Gh(H)           1.186112000000    -2.667876000000    -1.734079000000     1.007825032230
      Gh(O)           0.729810000000     2.373837000000    -1.025151000000    15.994914619570
      Gh(H)           1.167478000000     2.701220000000    -1.857432000000     1.007825032230
      Gh(H)          -0.147525000000     2.842033000000    -0.995735000000     1.007825032230
      Gh(O)          -1.008658000000     0.423253000000     2.460831000000    15.994914619570
      Gh(H)          -0.735495000000    -0.358124000000     2.948601000000     1.007825032230
      Gh(H)          -1.939879000000     0.354150000000     2.274018000000     1.007825032230
         O            2.850153000000    -0.237363000000     0.329338000000    15.994914619570
         H            3.197928000000    -1.122902000000     0.376841000000     1.007825032230
         H            3.494571000000     0.227443000000    -0.233883000000     1.007825032230
      Gh(O)          -2.469746000000    -0.508728000000    -1.426203000000    15.994914619570
      Gh(H)          -3.370408000000    -0.248234000000    -1.430514000000     1.007825032230
      Gh(H)          -2.421727000000    -0.991925000000    -2.274776000000     1.007825032230

  Charge       = 0
  Multiplicity = 1
  Basis Set: AUG-CC-PVTZ
    Blend: AUG-CC-PVTZ
  Basis Set: (AUG-CC-PVTZ AUX)
    Blend: AUG-CC-PVTZ-JKFIT + DEF2-UNIVERSAL-JKFIT

    Orbital Energies [Eh]
    ---------------------

    Doubly Occupied:

       1A    -20.568639     2A     -1.351394     3A     -0.712290
       4A     -0.585976     5A     -0.510193

  @DF-RHF Final Energy:   -76.05988747607870

   => Energetics <=

    Nuclear Repulsion Energy =              9.1410823798529197
    One-Electron Energy =                -122.9449521827503986
    Two-Electron Energy =                  37.7439823268187808
    Total Energy =                        -76.0598874760786998
 Dipole X            :        -55.0802794           55.7350589            0.6547795
 Dipole Y            :          4.9993541           -5.2805808           -0.2812267
 Dipole Z            :         -5.5879555            5.2490204           -0.3389351
 Magnitude           :                                                    0.7891144
  Basis Set: (AUG-CC-PVTZ AUX)
    Blend: AUG-CC-PVTZ-RI + DEF2-QZVPP-RI
	 Reference Energy          =     -76.0598874760786998 [Eh]
	 Singles Energy            =      -0.0000000000000000 [Eh]
	 Same-Spin Energy          =      -0.0685034446486664 [Eh]
	 Opposite-Spin Energy      =      -0.2158789016861245 [Eh]
	 Correlation Energy        =      -0.2843823463347909 [Eh]
	 Total Energy              =     -76.3442698224134944 [Eh]

	 ================> DF-SCS-MP2 Energies <==================
	-----------------------------------------------------------
	 SCS Same-Spin Scale       =       0.3333333333333333 [-]
	 SCS Opposite-Spin Scale   =       1.2000000000000000 [-]
	 SCS Same-Spin Energy      =      -0.0228344815495555 [Eh]
	 SCS Opposite-Spin Energy  =      -0.2590546820233494 [Eh]
	 SCS Correlation Energy    =      -0.2818891635729048 [Eh]
	 SCS Total Energy          =     -76.3417766396515987 [Eh]
	-----------------------------------------------------------

*** Psi4 exiting successfully. Buy a developer a beer!
