                               Psi4 1.9 release

  ==> Input File <==

--------------------------------------------------------------------------
MEMORY 60 GB

molecule dimer {
1 1
K          0.000000     0.000000     0.000000
O         -2.137032    -0.856625     1.512180
H         -1.868986    -0.256897     2.167979
H         -2.239988    -1.648355     2.041290
O          2.175127     1.925803    -0.413797
H          1.709840     2.569824    -0.952341
H          2.889234     1.626517    -1.020393
O          0.141167     0.967816     2.459987
H         -0.589109     1.582427     2.558548
H          0.912326     1.572431     2.509376
O         -1.688514     1.833831    -0.432819
H         -2.264011     1.940198     0.309424
H         -2.154571     1.891732    -1.244451
O          1.446652    -0.632454    -2.619546
H          2.280514    -0.166052    -2.786880
H          1.538590    -1.544524    -2.934943
O          2.182475    -1.748894     0.845704
H          2.180246    -2.541209     0.250924
H          2.896339    -1.190755     0.512360

units ang
no_reorient
no_com
symmetry c1
}

set {
basis        aug-cc-pVTZ
scf_type     df
}

energy("mp2")
--------------------------------------------------------------------------

    Molecular point group: c1

    Geometry (in Angstrom), charge = 1, multiplicity = 1:

       Center              X                  Y                   Z               Mass
    ------------   -----------------  -----------------  -----------------  -----------------
         K            0.000000000000     0.000000000000     0.000000000000    38.963706486400
         O           -2.137032000000    -0.856625000000     1.512180000000    15.994914619570
         H           -1.868986000000    -0.256897000000     2.167979000000     1.007825032230
         H           -2.239988000000    -1.648355000000     2.041290000000     1.007825032230
         O            2.175127000000     1.925803000000    -0.413797000000    15.994914619570
         H            1.709840000000     2.569824000000    -0.952341000000     1.007825032230
         H            2.889234000000     1.626517000000    -1.020393000000     1.007825032230
         O            0.141167000000     0.967816000000     2.459987000000    15.994914619570
         H           -0.589109000000     1.582427000000     2.558548000000     1.007825032230
         H            0.912326000000     1.572431000000     2.509376000000     1.007825032230
         O           -1.688514000000     1.833831000000    -0.432819000000    15.994914619570
         H           -2.264011000000     1.940198000000     0.309424000000     1.007825032230
         H           -2.154571000000     1.891732000000    -1.244451000000     1.007825032230
         O            1.446652000000    -0.632454000000    -2.619546000000    15.994914619570
         H            2.280514000000    -0.166052000000    -2.786880000000     1.007825032230
         H            1.538590000000    -1.544524000000    -2.934943000000     1.007825032230
         O            2.182475000000    -1.748894000000     0.845704000000    15.994914619570
         H            2.180246000000    -2.541209000000     0.250924000000     1.007825032230
         H            2.896339000000    -1.190755000000     0.512360000000     1.007825032230

  Charge       = 1
  Multiplicity = 1
  Basis Set: AUG-CC-PVTZ
    Blend: AUG-CC-PVTZ
  Basis Set: (AUG-CC-PVTZ AUX)
    Blend: AUG-CC-PVTZ-JKFIT + DEF2-UNIVERSAL-JKFIT

    Orbital Energies [Eh]
    ---------------------

    Doubly Occupied:

       1A   -133.585363     2A    -20.716976     3A    -20.715574
       4A    -20.712063     5A    -20.711759     6A    -20.700533
       7A    -20.698798     8A    -14.543715     9A    -11.573534
      10A    -11.573458    11A    -11.573442    12A     -1.808497
      13A     -1.513267    14A     -1.503828    15A     -1.498656
      16A     -1.495288    17A     -1.490361    18A     -1.474965
      19A     -1.020748    20A     -1.018912    21A     -1.018273
      22A     -0.895460    23A     -0.864424    24A     -0.863944
      25A     -0.851234    26A     -0.844644    27A     -0.837885
      28A     -0.745107    29A     -0.737084    30A     -0.735784
      31A     -0.734537    32A     -0.725467    33A     -0.713026
      34A     -0.667201    35A     -0.663764    36A     -0.661075
      37A     -0.654201    38A     -0.650159    39A     -0.640742

  @DF-RHF Final Energy: -1055.45649197422426

   => Energetics <=

    Nuclear Repulsion Energy =            456.1408424072429852
    One-Electron Energy =               -2354.3271560341222539
    Two-Electron Energy =                 842.7298216526551187
    Total Energy =                      -1055.4564919742242637
 Dipole X            :        -41.2926605           42.0453178            0.7526573
 Dipole Y            :        -29.0648820           29.7653653            0.7004834
 Dipole Z            :        -23.8465582           23.1010799           -0.7454783
 Magnitude           :                                                    1.2700031
  Basis Set: (AUG-CC-PVTZ AUX)
    Blend: AUG-CC-PVTZ-RI + DEF2-QZVPP-RI
	 Reference Energy          =   -1055.4564919742242637 [Eh]
	 Singles Energy            =      -0.0000000000000000 [Eh]
	 Same-Spin Energy          =      -0.4568337222521742 [Eh]
	 Opposite-Spin Energy      =      -1.3950117648781348 [Eh]
	 Correlation Energy        =      -1.8518454871303089 [Eh]
	 Total Energy              =   -1057.3083374613545402 [Eh]

	 ================> DF-SCS-MP2 Energies <==================
	-----------------------------------------------------------
	 SCS Same-Spin Scale       =       0.3333333333333333 [-]
	 SCS Opposite-Spin Scale   =       1.2000000000000000 [-]
	 SCS Same-Spin Energy      =      -0.1522779074173914 [Eh]
	 SCS Opposite-Spin Energy  =      -1.6740141178537618 [Eh]
	 SCS Correlation Energy    =      -1.8262920252711532 [Eh]
	 SCS Total Energy          =   -1057.2827839994954502 [Eh]
	-----------------------------------------------------------

*** Psi4 exiting successfully. Buy a developer a beer!
