                               Psi4 1.9 release

  ==> Input File <==

--------------------------------------------------------------------------
MEMORY 60 GB

molecule dimer {
1 1
K          0.000000     0.000000     0.000000
O         -0.410929    -0.700784    -2.509863
H         -1.217513    -1.219559    -2.665649
H         -0.164264    -0.548002    -3.391802
O          0.364162     2.737792     0.615970
H         -0.368150     3.382202     0.757426
H          0.419133     2.301238     1.419304
O         -1.302168    -1.379093     2.269078
H         -1.734333    -1.173294     3.111865
H         -1.340808    -2.327373     2.231571
O          2.554230    -0.782247     0.698580
H          2.890378    -1.647175     0.845380
H          3.241882    -0.204019     0.218312

units ang
no_reorient
no_com
symmetry c1
}

set {
basis        aug-cc-pVTZ
scf_type     df
}

energy("mp2")
--------------------------------------------------------------------------

    Molecular point group: c1

    Geometry (in Angstrom), charge = 1, multiplicity = 1:

       Center              X                  Y                   Z               Mass
    ------------   -----------------  -----------------  -----------------  -----------------
         K            0.000000000000     0.000000000000     0.000000000000    38.963706486400
         O           -0.410929000000    -0.700784000000    -2.509863000000    15.994914619570
         H           -1.217513000000    -1.219559000000    -2.665649000000     1.007825032230
         H           -0.164264000000    -0.548002000000    -3.391802000000     1.007825032230
         O            0.364162000000     2.737792000000     0.615970000000    15.994914619570
         H           -0.368150000000     3.382202000000     0.757426000000     1.007825032230
         H            0.419133000000     2.301238000000     1.419304000000     1.007825032230
         O           -1.302168000000    -1.379093000000     2.269078000000    15.994914619570
         H           -1.734333000000    -1.173294000000     3.111865000000     1.007825032230
         H           -1.340808000000    -2.327373000000     2.231571000000     1.007825032230
         O            2.554230000000    -0.782247000000     0.698580000000    15.994914619570
         H            2.890378000000    -1.647175000000     0.845380000000     1.007825032230
         H            3.241882000000    -0.204019000000     0.218312000000     1.007825032230

  Charge       = 1
  Multiplicity = 1
  Basis Set: AUG-CC-PVTZ
    Blend: AUG-CC-PVTZ
  Basis Set: (AUG-CC-PVTZ AUX)
    Blend: AUG-CC-PVTZ-JKFIT + DEF2-UNIVERSAL-JKFIT

    Orbital Energies [Eh]
    ---------------------

    Doubly Occupied:

       1A   -133.629986     2A    -20.722702     3A    -20.714575
       4A    -20.713782     5A    -20.712261     6A    -14.587248
       7A    -11.617181     8A    -11.617143     9A    -11.617069
      10A     -1.848256    11A     -1.520196    12A     -1.507842
      13A     -1.500694    14A     -1.489632    15A     -1.059263
      16A     -1.057063    17A     -1.055847    18A     -0.868324
      19A     -0.866507    20A     -0.865898    21A     -0.860770
      22A     -0.764643    23A     -0.742916    24A     -0.737710
      25A     -0.725506    26A     -0.672449    27A     -0.661392
      28A     -0.659376    29A     -0.658059

  @DF-RHF Final Energy:  -903.32467300559711

   => Energetics <=

    Nuclear Repulsion Energy =            244.5197375461647482
    One-Electron Energy =               -1723.5802254391651331
    Two-Electron Energy =                 575.7358148874031940
    Total Energy =                       -903.3246730055971057
 Dipole X            :        -21.8070298           21.4837011           -0.3233288
 Dipole Y            :          3.7513230           -4.5932401           -0.8419172
 Dipole Z            :        -20.7472328           21.0071915            0.2599587
 Magnitude           :                                                    0.9385865
  Basis Set: (AUG-CC-PVTZ AUX)
    Blend: AUG-CC-PVTZ-RI + DEF2-QZVPP-RI
	 Reference Energy          =    -903.3246730055971057 [Eh]
	 Singles Energy            =      -0.0000000000000000 [Eh]
	 Same-Spin Energy          =      -0.3112828444794343 [Eh]
	 Opposite-Spin Energy      =      -0.9462693798912483 [Eh]
	 Correlation Energy        =      -1.2575522243706825 [Eh]
	 Total Energy              =    -904.5822252299677757 [Eh]

	 ================> DF-SCS-MP2 Energies <==================
	-----------------------------------------------------------
	 SCS Same-Spin Scale       =       0.3333333333333333 [-]
	 SCS Opposite-Spin Scale   =       1.2000000000000000 [-]
	 SCS Same-Spin Energy      =      -0.1037609481598114 [Eh]
	 SCS Opposite-Spin Energy  =      -1.1355232558694979 [Eh]
	 SCS Correlation Energy    =      -1.2392842040293093 [Eh]
	 SCS Total Energy          =    -904.5639572096264374 [Eh]
	-----------------------------------------------------------

*** Psi4 exiting successfully. Buy a developer a beer!
