                               Psi4 1.9 release

  ==> Input File <==

--------------------------------------------------------------------------
MEMORY 60 GB

molecule dimer {
0 1
Gh(K)      0.000000     0.000000     0.000000
O         -2.788678     0.406415     0.653974
H         -3.199869     0.958424    -0.018216
H         -2.648871     0.994298     1.339656
Gh(O)     -0.538075    -0.007256    -2.587985
Gh(H)     -1.178974     0.573219    -3.036130
Gh(H)     -0.622551    -0.842304    -3.100694
Gh(O)      1.217666    -2.504639    -1.246697
Gh(H)      2.075220    -2.521579    -1.694555
Gh(H)      1.096683    -3.374284    -0.758390
Gh(O)     -0.231617     1.394607     2.438855
Gh(H)     -0.561266     2.289091     2.589398
Gh(H)      0.557946     1.311939     2.977921
Gh(O)      2.575424     0.453046    -0.769981
Gh(H)      2.519390    -0.471796    -0.995216
Gh(H)      3.471222     0.584527    -0.443942

units ang
no_reorient
no_com
symmetry c1
}

set {
basis        aug-cc-pVTZ
scf_type     df
}

energy("mp2")
--------------------------------------------------------------------------

    Molecular point group: c1

    Geometry (in Angstrom), charge = 0, multiplicity = 1:

       Center              X                  Y                   Z               Mass
    ------------   -----------------  -----------------  -----------------  -----------------
      Gh(K)           0.000000000000     0.000000000000     0.000000000000    38.963706486400
         O           -2.788678000000     0.406415000000     0.653974000000    15.994914619570
         H           -3.199869000000     0.958424000000    -0.018216000000     1.007825032230
         H           -2.648871000000     0.994298000000     1.339656000000     1.007825032230
      Gh(O)          -0.538075000000    -0.007256000000    -2.587985000000    15.994914619570
      Gh(H)          -1.178974000000     0.573219000000    -3.036130000000     1.007825032230
      Gh(H)          -0.622551000000    -0.842304000000    -3.100694000000     1.007825032230
      Gh(O)           1.217666000000    -2.504639000000    -1.246697000000    15.994914619570
      Gh(H)           2.075220000000    -2.521579000000    -1.694555000000     1.007825032230
      Gh(H)           1.096683000000    -3.374284000000    -0.758390000000     1.007825032230
      Gh(O)          -0.231617000000     1.394607000000     2.438855000000    15.994914619570
      Gh(H)          -0.561266000000     2.289091000000     2.589398000000     1.007825032230
      Gh(H)           0.557946000000     1.311939000000     2.977921000000     1.007825032230
      Gh(O)           2.575424000000     0.453046000000    -0.769981000000    15.994914619570
      Gh(H)           2.519390000000    -0.471796000000    -0.995216000000     1.007825032230
      Gh(H)           3.471222000000     0.584527000000    -0.443942000000     1.007825032230

  Charge       = 0
  Multiplicity = 1
  Basis Set: AUG-CC-PVTZ
    Blend: AUG-CC-PVTZ
  Basis Set: (AUG-CC-PVTZ AUX)
    Blend: AUG-CC-PVTZ-JKFIT + DEF2-UNIVERSAL-JKFIT

    Orbital Energies [Eh]
    ---------------------

    Doubly Occupied:

       1A    -20.564198     2A     -1.365664     3A     -0.725005
       4A     -0.591870     5A     -0.512534

  @DF-RHF Final Energy:   -76.05956144663540

   => Energetics <=

    Nuclear Repulsion Energy =              9.3931817800457509
    One-Electron Energy =                -123.3869418501478350
    Two-Electron Energy =                  37.9341986234666919
    Total Energy =                        -76.0595614466353993
 Dipole X            :         53.0325039          -53.2112182           -0.1787143
 Dipole Y            :         -9.0702309            9.8342141            0.7639832
 Dipole Z            :        -12.3663570           12.3838137            0.0174567
 Magnitude           :                                                    0.7848018
  Basis Set: (AUG-CC-PVTZ AUX)
    Blend: AUG-CC-PVTZ-RI + DEF2-QZVPP-RI
	 Reference Energy          =     -76.0595614466353993 [Eh]
	 Singles Energy            =      -0.0000000000000000 [Eh]
	 Same-Spin Energy          =      -0.0680777593518436 [Eh]
	 Opposite-Spin Energy      =      -0.2146754236004283 [Eh]
	 Correlation Energy        =      -0.2827531829522719 [Eh]
	 Total Energy              =     -76.3423146295876762 [Eh]

	 ================> DF-SCS-MP2 Energies <==================
	-----------------------------------------------------------
	 SCS Same-Spin Scale       =       0.3333333333333333 [-]
	 SCS Opposite-Spin Scale   =       1.2000000000000000 [-]
	 SCS Same-Spin Energy      =      -0.0226925864506145 [Eh]
	 SCS Opposite-Spin Energy  =      -0.2576105083205140 [Eh]
	 SCS Correlation Energy    =      -0.2803030947711285 [Eh]
	 SCS Total Energy          =     -76.3398645414065271 [Eh]
	-----------------------------------------------------------

*** Psi4 exiting successfully. Buy a developer a beer!
