                               Psi4 1.9 release

  ==> Input File <==

--------------------------------------------------------------------------
MEMORY 60 GB

molecule dimer {
1 1
K          0.000000     0.000000     0.000000
Gh(O)     -1.578613    -2.113716     0.218354
Gh(H)     -0.981947    -2.793452    -0.097712
Gh(H)     -2.324957    -2.073157    -0.378677
Gh(O)      1.295700    -2.515411    -0.325869
Gh(H)      0.949642    -3.369730    -0.036852
Gh(H)      2.279970    -2.442741    -0.095265
Gh(O)      2.568601     0.147719    -0.427268
Gh(H)      2.727281    -0.077392    -1.363704
Gh(H)      3.370881     0.599596    -0.084938
Gh(O)     -0.362166     2.669565     0.838638
Gh(H)     -1.033657     3.293462     0.421097
Gh(H)      0.445519     2.915189     0.370285

units ang
no_reorient
no_com
symmetry c1
}

set {
basis        aug-cc-pVTZ
scf_type     df
}

energy("mp2")
--------------------------------------------------------------------------

    Molecular point group: c1

    Geometry (in Angstrom), charge = 1, multiplicity = 1:

       Center              X                  Y                   Z               Mass
    ------------   -----------------  -----------------  -----------------  -----------------
         K            0.000000000000     0.000000000000     0.000000000000    38.963706486400
      Gh(O)          -1.578613000000    -2.113716000000     0.218354000000    15.994914619570
      Gh(H)          -0.981947000000    -2.793452000000    -0.097712000000     1.007825032230
      Gh(H)          -2.324957000000    -2.073157000000    -0.378677000000     1.007825032230
      Gh(O)           1.295700000000    -2.515411000000    -0.325869000000    15.994914619570
      Gh(H)           0.949642000000    -3.369730000000    -0.036852000000     1.007825032230
      Gh(H)           2.279970000000    -2.442741000000    -0.095265000000     1.007825032230
      Gh(O)           2.568601000000     0.147719000000    -0.427268000000    15.994914619570
      Gh(H)           2.727281000000    -0.077392000000    -1.363704000000     1.007825032230
      Gh(H)           3.370881000000     0.599596000000    -0.084938000000     1.007825032230
      Gh(O)          -0.362166000000     2.669565000000     0.838638000000    15.994914619570
      Gh(H)          -1.033657000000     3.293462000000     0.421097000000     1.007825032230
      Gh(H)           0.445519000000     2.915189000000     0.370285000000     1.007825032230

  Charge       = 1
  Multiplicity = 1
  Basis Set: AUG-CC-PVTZ
    Blend: AUG-CC-PVTZ
  Basis Set: (AUG-CC-PVTZ AUX)
    Blend: AUG-CC-PVTZ-JKFIT + DEF2-UNIVERSAL-JKFIT

    Orbital Energies [Eh]
    ---------------------

    Doubly Occupied:

       1A   -133.752898     2A    -14.708518     3A    -11.738582
       4A    -11.738581     5A    -11.738577     6A     -1.964032
       7A     -1.170743     8A     -1.170725     9A     -1.170642

  @DF-RHF Final Energy:  -599.01751391526250

   => Energetics <=

    Nuclear Repulsion Energy =              0.0000000000000000
    One-Electron Energy =                -819.7284329777045286
    Two-Electron Energy =                 220.7109190624420592
    Total Energy =                       -599.0175139152624979
 Dipole X            :          0.0001358            0.0000000            0.0001358
 Dipole Y            :         -0.0000968            0.0000000           -0.0000968
 Dipole Z            :         -0.0000456            0.0000000           -0.0000456
 Magnitude           :                                                    0.0001729
  Basis Set: (AUG-CC-PVTZ AUX)
    Blend: AUG-CC-PVTZ-RI + DEF2-QZVPP-RI
	 Reference Energy          =    -599.0175139152624979 [Eh]
	 Singles Energy            =      -0.0000000000000000 [Eh]
	 Same-Spin Energy          =      -0.0348943423766215 [Eh]
	 Opposite-Spin Energy      =      -0.0846164667144166 [Eh]
	 Correlation Energy        =      -0.1195108090910381 [Eh]
	 Total Energy              =    -599.1370247243535232 [Eh]

	 ================> DF-SCS-MP2 Energies <==================
	-----------------------------------------------------------
	 SCS Same-Spin Scale       =       0.3333333333333333 [-]
	 SCS Opposite-Spin Scale   =       1.2000000000000000 [-]
	 SCS Same-Spin Energy      =      -0.0116314474588738 [Eh]
	 SCS Opposite-Spin Energy  =      -0.1015397600572999 [Eh]
	 SCS Correlation Energy    =      -0.1131712075161738 [Eh]
	 SCS Total Energy          =    -599.1306851227786865 [Eh]
	-----------------------------------------------------------

*** Psi4 exiting successfully. Buy a developer a beer!
