                               Psi4 1.9 release

  ==> Input File <==

--------------------------------------------------------------------------
MEMORY 60 GB

molecule dimer {
0 1
Gh(K)      0.000000     0.000000     0.000000
Gh(O)      1.288020     2.048155    -1.363242
Gh(H)      2.289687     1.970546    -1.403737
Gh(H)      1.067139     2.374250    -2.284171
Gh(O)      1.081330    -2.084572    -0.974603
Gh(H)      1.681074    -1.891306    -1.699856
Gh(H)      0.899362    -3.081487    -1.002484
Gh(O)      1.484184     1.194304     2.136076
Gh(H)      1.433747     1.868088     2.889056
Gh(H)      1.422654     0.344614     2.575615
Gh(O)     -2.340818    -0.324700    -1.276031
Gh(H)     -3.288057    -0.073244    -1.237822
Gh(H)     -2.441854    -1.272455    -1.265717
O         -1.588027    -0.288334     1.906629
H         -1.962376     0.465498     2.313524
H         -1.373894    -0.914990     2.624297

units ang
no_reorient
no_com
symmetry c1
}

set {
basis        aug-cc-pVTZ
scf_type     df
}

energy("mp2")
--------------------------------------------------------------------------

    Molecular point group: c1

    Geometry (in Angstrom), charge = 0, multiplicity = 1:

       Center              X                  Y                   Z               Mass
    ------------   -----------------  -----------------  -----------------  -----------------
      Gh(K)           0.000000000000     0.000000000000     0.000000000000    38.963706486400
      Gh(O)           1.288020000000     2.048155000000    -1.363242000000    15.994914619570
      Gh(H)           2.289687000000     1.970546000000    -1.403737000000     1.007825032230
      Gh(H)           1.067139000000     2.374250000000    -2.284171000000     1.007825032230
      Gh(O)           1.081330000000    -2.084572000000    -0.974603000000    15.994914619570
      Gh(H)           1.681074000000    -1.891306000000    -1.699856000000     1.007825032230
      Gh(H)           0.899362000000    -3.081487000000    -1.002484000000     1.007825032230
      Gh(O)           1.484184000000     1.194304000000     2.136076000000    15.994914619570
      Gh(H)           1.433747000000     1.868088000000     2.889056000000     1.007825032230
      Gh(H)           1.422654000000     0.344614000000     2.575615000000     1.007825032230
      Gh(O)          -2.340818000000    -0.324700000000    -1.276031000000    15.994914619570
      Gh(H)          -3.288057000000    -0.073244000000    -1.237822000000     1.007825032230
      Gh(H)          -2.441854000000    -1.272455000000    -1.265717000000     1.007825032230
         O           -1.588027000000    -0.288334000000     1.906629000000    15.994914619570
         H           -1.962376000000     0.465498000000     2.313524000000     1.007825032230
         H           -1.373894000000    -0.914990000000     2.624297000000     1.007825032230

  Charge       = 0
  Multiplicity = 1
  Basis Set: AUG-CC-PVTZ
    Blend: AUG-CC-PVTZ
  Basis Set: (AUG-CC-PVTZ AUX)
    Blend: AUG-CC-PVTZ-JKFIT + DEF2-UNIVERSAL-JKFIT

    Orbital Energies [Eh]
    ---------------------

    Doubly Occupied:

       1A    -20.565781     2A     -1.353271     3A     -0.722731
       4A     -0.581000     5A     -0.509887

  @DF-RHF Final Energy:   -76.05992628769360

   => Energetics <=

    Nuclear Repulsion Energy =              9.2088873339537312
    One-Electron Energy =                -123.0722817560296392
    Two-Electron Energy =                  37.8034681343822996
    Total Energy =                        -76.0599262876936137
 Dipole X            :         30.2019197          -30.3121255           -0.1102057
 Dipole Y            :          5.2996544           -5.2083951            0.0912593
 Dipole Z            :        -37.4030603           38.1551824            0.7521221
 Magnitude           :                                                    0.7656117
  Basis Set: (AUG-CC-PVTZ AUX)
    Blend: AUG-CC-PVTZ-RI + DEF2-QZVPP-RI
	 Reference Energy          =     -76.0599262876935995 [Eh]
	 Singles Energy            =      -0.0000000000000000 [Eh]
	 Same-Spin Energy          =      -0.0683193774036519 [Eh]
	 Opposite-Spin Energy      =      -0.2154135619659099 [Eh]
	 Correlation Energy        =      -0.2837329393695618 [Eh]
	 Total Energy              =     -76.3436592270631564 [Eh]

	 ================> DF-SCS-MP2 Energies <==================
	-----------------------------------------------------------
	 SCS Same-Spin Scale       =       0.3333333333333333 [-]
	 SCS Opposite-Spin Scale   =       1.2000000000000000 [-]
	 SCS Same-Spin Energy      =      -0.0227731258012173 [Eh]
	 SCS Opposite-Spin Energy  =      -0.2584962743590918 [Eh]
	 SCS Correlation Energy    =      -0.2812694001603092 [Eh]
	 SCS Total Energy          =     -76.3411956878539115 [Eh]
	-----------------------------------------------------------

*** Psi4 exiting successfully. Buy a developer a beer!
