                               Psi4 1.9 release

  ==> Input File <==

--------------------------------------------------------------------------
MEMORY 60 GB

molecule dimer {
1 1
K          0.000000     0.000000     0.000000
Gh(O)      2.529918    -1.431771    -0.209555
Gh(H)      3.170446    -0.706615    -0.323319
Gh(H)      2.749458    -2.010204     0.519739
Gh(O)      1.813586     1.029246     2.230508
Gh(H)      1.419877     1.724132     2.765815
Gh(H)      2.307126     1.578543     1.545356
Gh(O)     -1.368704    -0.907145    -2.217904
Gh(H)     -1.940339    -1.698694    -2.000603
Gh(H)     -1.925491    -0.236454    -2.630828
Gh(O)      1.146945     2.118489    -1.194320
Gh(H)      1.871621     1.704285    -1.765925
Gh(H)      1.593857     2.809076    -0.560670
Gh(O)     -1.511741    -0.504052     2.510190
Gh(H)     -2.151551    -1.120327     2.142254
Gh(H)     -0.821208    -1.100007     2.922543

units ang
no_reorient
no_com
symmetry c1
}

set {
basis        aug-cc-pVTZ
scf_type     df
}

energy("mp2")
--------------------------------------------------------------------------

    Molecular point group: c1

    Geometry (in Angstrom), charge = 1, multiplicity = 1:

       Center              X                  Y                   Z               Mass
    ------------   -----------------  -----------------  -----------------  -----------------
         K            0.000000000000     0.000000000000     0.000000000000    38.963706486400
      Gh(O)           2.529918000000    -1.431771000000    -0.209555000000    15.994914619570
      Gh(H)           3.170446000000    -0.706615000000    -0.323319000000     1.007825032230
      Gh(H)           2.749458000000    -2.010204000000     0.519739000000     1.007825032230
      Gh(O)           1.813586000000     1.029246000000     2.230508000000    15.994914619570
      Gh(H)           1.419877000000     1.724132000000     2.765815000000     1.007825032230
      Gh(H)           2.307126000000     1.578543000000     1.545356000000     1.007825032230
      Gh(O)          -1.368704000000    -0.907145000000    -2.217904000000    15.994914619570
      Gh(H)          -1.940339000000    -1.698694000000    -2.000603000000     1.007825032230
      Gh(H)          -1.925491000000    -0.236454000000    -2.630828000000     1.007825032230
      Gh(O)           1.146945000000     2.118489000000    -1.194320000000    15.994914619570
      Gh(H)           1.871621000000     1.704285000000    -1.765925000000     1.007825032230
      Gh(H)           1.593857000000     2.809076000000    -0.560670000000     1.007825032230
      Gh(O)          -1.511741000000    -0.504052000000     2.510190000000    15.994914619570
      Gh(H)          -2.151551000000    -1.120327000000     2.142254000000     1.007825032230
      Gh(H)          -0.821208000000    -1.100007000000     2.922543000000     1.007825032230

  Charge       = 1
  Multiplicity = 1
  Basis Set: AUG-CC-PVTZ
    Blend: AUG-CC-PVTZ
  Basis Set: (AUG-CC-PVTZ AUX)
    Blend: AUG-CC-PVTZ-JKFIT + DEF2-UNIVERSAL-JKFIT

    Orbital Energies [Eh]
    ---------------------

    Doubly Occupied:

       1A   -133.752605     2A    -14.708282     3A    -11.738343
       4A    -11.738341     5A    -11.738339     6A     -1.963928
       7A     -1.170635     8A     -1.170623     9A     -1.170590

  @DF-RHF Final Energy:  -599.01751569872079

   => Energetics <=

    Nuclear Repulsion Energy =              0.0000000000000000
    One-Electron Energy =                -819.7316613303155464
    Two-Electron Energy =                 220.7141456315947607
    Total Energy =                       -599.0175156987207856
 Dipole X            :          0.0001990            0.0000000            0.0001990
 Dipole Y            :          0.0000365            0.0000000            0.0000365
 Dipole Z            :          0.0000282            0.0000000            0.0000282
 Magnitude           :                                                    0.0002043
  Basis Set: (AUG-CC-PVTZ AUX)
    Blend: AUG-CC-PVTZ-RI + DEF2-QZVPP-RI
	 Reference Energy          =    -599.0175156987207856 [Eh]
	 Singles Energy            =      -0.0000000000000000 [Eh]
	 Same-Spin Energy          =      -0.0359852579954008 [Eh]
	 Opposite-Spin Energy      =      -0.0871437294065728 [Eh]
	 Correlation Energy        =      -0.1231289874019735 [Eh]
	 Total Energy              =    -599.1406446861227550 [Eh]

	 ================> DF-SCS-MP2 Energies <==================
	-----------------------------------------------------------
	 SCS Same-Spin Scale       =       0.3333333333333333 [-]
	 SCS Opposite-Spin Scale   =       1.2000000000000000 [-]
	 SCS Same-Spin Energy      =      -0.0119950859984669 [Eh]
	 SCS Opposite-Spin Energy  =      -0.1045724752878874 [Eh]
	 SCS Correlation Energy    =      -0.1165675612863543 [Eh]
	 SCS Total Energy          =    -599.1340832600071735 [Eh]
	-----------------------------------------------------------

*** Psi4 exiting successfully. Buy a developer a beer!
