                               Psi4 1.9 release

  ==> Input File <==

--------------------------------------------------------------------------
MEMORY 60 GB

molecule dimer {
1 1
K          0.000000     0.000000     0.000000
Gh(O)      0.913124     1.392044     2.215266
Gh(H)      0.107898     1.589882     2.707194
Gh(H)      1.074752     2.048582     1.547337
Gh(O)      2.026680    -1.153352    -1.012698
Gh(H)      2.858159    -1.449304    -0.567475
Gh(H)      2.342505    -0.543742    -1.689308
Gh(O)     -1.825857    -2.133558     0.355993
Gh(H)     -1.430944    -2.920093     0.805392
Gh(H)     -1.781389    -2.429058    -0.509967
Gh(O)     -1.999435     0.997352    -1.712310
Gh(H)     -1.916758     1.159308    -2.674599
Gh(H)     -2.643508     1.624790    -1.332880
Gh(O)     -2.230302     0.207585     1.991219
Gh(H)     -2.672649     0.382701     2.901728
Gh(H)     -2.200317    -0.765324     1.906808

units ang
no_reorient
no_com
symmetry c1
}

set {
basis        aug-cc-pVTZ
scf_type     df
}

energy("mp2")
--------------------------------------------------------------------------

    Molecular point group: c1

    Geometry (in Angstrom), charge = 1, multiplicity = 1:

       Center              X                  Y                   Z               Mass
    ------------   -----------------  -----------------  -----------------  -----------------
         K            0.000000000000     0.000000000000     0.000000000000    38.963706486400
      Gh(O)           0.913124000000     1.392044000000     2.215266000000    15.994914619570
      Gh(H)           0.107898000000     1.589882000000     2.707194000000     1.007825032230
      Gh(H)           1.074752000000     2.048582000000     1.547337000000     1.007825032230
      Gh(O)           2.026680000000    -1.153352000000    -1.012698000000    15.994914619570
      Gh(H)           2.858159000000    -1.449304000000    -0.567475000000     1.007825032230
      Gh(H)           2.342505000000    -0.543742000000    -1.689308000000     1.007825032230
      Gh(O)          -1.825857000000    -2.133558000000     0.355993000000    15.994914619570
      Gh(H)          -1.430944000000    -2.920093000000     0.805392000000     1.007825032230
      Gh(H)          -1.781389000000    -2.429058000000    -0.509967000000     1.007825032230
      Gh(O)          -1.999435000000     0.997352000000    -1.712310000000    15.994914619570
      Gh(H)          -1.916758000000     1.159308000000    -2.674599000000     1.007825032230
      Gh(H)          -2.643508000000     1.624790000000    -1.332880000000     1.007825032230
      Gh(O)          -2.230302000000     0.207585000000     1.991219000000    15.994914619570
      Gh(H)          -2.672649000000     0.382701000000     2.901728000000     1.007825032230
      Gh(H)          -2.200317000000    -0.765324000000     1.906808000000     1.007825032230

  Charge       = 1
  Multiplicity = 1
  Basis Set: AUG-CC-PVTZ
    Blend: AUG-CC-PVTZ
  Basis Set: (AUG-CC-PVTZ AUX)
    Blend: AUG-CC-PVTZ-JKFIT + DEF2-UNIVERSAL-JKFIT

    Orbital Energies [Eh]
    ---------------------

    Doubly Occupied:

       1A   -133.752575     2A    -14.708259     3A    -11.738320
       4A    -11.738318     5A    -11.738317     6A     -1.963914
       7A     -1.170624     8A     -1.170608     9A     -1.170591

  @DF-RHF Final Energy:  -599.01751602840864

   => Energetics <=

    Nuclear Repulsion Energy =              0.0000000000000000
    One-Electron Energy =                -819.7319820546576921
    Two-Electron Energy =                 220.7144660262490845
    Total Energy =                       -599.0175160284086360
 Dipole X            :         -0.0001081            0.0000000           -0.0001081
 Dipole Y            :         -0.0000730            0.0000000           -0.0000730
 Dipole Z            :          0.0000591            0.0000000            0.0000591
 Magnitude           :                                                    0.0001432
  Basis Set: (AUG-CC-PVTZ AUX)
    Blend: AUG-CC-PVTZ-RI + DEF2-QZVPP-RI
	 Reference Energy          =    -599.0175160284086360 [Eh]
	 Singles Energy            =      -0.0000000000000000 [Eh]
	 Same-Spin Energy          =      -0.0368705286138321 [Eh]
	 Opposite-Spin Energy      =      -0.0896808562053517 [Eh]
	 Correlation Energy        =      -0.1265513848191838 [Eh]
	 Total Energy              =    -599.1440674132278446 [Eh]

	 ================> DF-SCS-MP2 Energies <==================
	-----------------------------------------------------------
	 SCS Same-Spin Scale       =       0.3333333333333333 [-]
	 SCS Opposite-Spin Scale   =       1.2000000000000000 [-]
	 SCS Same-Spin Energy      =      -0.0122901762046107 [Eh]
	 SCS Opposite-Spin Energy  =      -0.1076170274464221 [Eh]
	 SCS Correlation Energy    =      -0.1199072036510327 [Eh]
	 SCS Total Energy          =    -599.1374232320596320 [Eh]
	-----------------------------------------------------------

*** Psi4 exiting successfully. Buy a developer a beer!
