                               Psi4 1.9 release

  ==> Input File <==

--------------------------------------------------------------------------
MEMORY 60 GB

molecule dimer {
1 1
K      0.000000     0.000000     0.000000
--
0 1
O      2.102428     1.386670    -1.029358
H      1.785708     1.982325    -1.735266
H      3.054769     1.229330    -1.149632
O     -1.387566    -2.526538    -0.245913
H     -2.303481    -2.162204    -0.161558
H     -1.339001    -3.413108     0.108756
O     -2.609996    -0.019873     0.813235
H     -2.825722     0.803265     1.321763
H     -3.412621    -0.373229     0.472192
O      0.543936     1.404111     2.215947
H      1.365283     1.832211     2.534358
H     -0.163281     1.564772     2.878369
O      1.928879    -2.013912    -0.830288
H      1.588446    -2.627051    -1.468844
H      2.543503    -1.446099    -1.325233
O     -1.015672     1.980366    -1.649540
H     -0.491249     2.318255    -2.396721
H     -1.304712     2.818630    -1.072400

units ang
no_reorient
no_com
symmetry c1
}

set {
basis        aug-cc-pVTZ
scf_type     df
}

energy("mp2", bsse_type="cp")
--------------------------------------------------------------------------

                               Psi4 1.9 release
    Molecular point group: c1
  Charge       = 0
  Multiplicity = 1
  Basis Set: AUG-CC-PVTZ
    Blend: AUG-CC-PVTZ
  Basis Set: (AUG-CC-PVTZ AUX)
    Blend: AUG-CC-PVTZ-JKFIT + DEF2-UNIVERSAL-JKFIT
  @DF-RHF Final Energy:  -456.31558978346169
    Total Energy =                       -456.3155897834616894
 Dipole X            :          9.0256695           -9.4605094           -0.4348400
 Dipole Y            :         -6.5900207            7.9627182            1.3726975
 Dipole Z            :         14.4647679          -14.7427966           -0.2780287
 Magnitude           :                                                    1.4665211
  Basis Set: (AUG-CC-PVTZ AUX)
    Blend: AUG-CC-PVTZ-RI + DEF2-QZVPP-RI
	 Reference Energy          =    -456.3155897834616894 [Eh]
	 Singles Energy            =      -0.0000000000000000 [Eh]
	 Same-Spin Energy          =      -0.4155705485918149 [Eh]
	 Opposite-Spin Energy      =      -1.3044396260207083 [Eh]
	 Correlation Energy        =      -1.7200101746125231 [Eh]
	 Total Energy              =    -458.0355999580742150 [Eh]
	 SCS Total Energy          =    -458.0194408508838251 [Eh]
                               Psi4 1.9 release
    Molecular point group: c1
  Multiplicity = 1
  Basis Set: AUG-CC-PVTZ
    Blend: AUG-CC-PVTZ
  Basis Set: (AUG-CC-PVTZ AUX)
    Blend: AUG-CC-PVTZ-JKFIT + DEF2-UNIVERSAL-JKFIT
  @DF-RHF Final Energy:  -599.01751675361356
    Total Energy =                       -599.0175167536135632
  Basis Set: (AUG-CC-PVTZ AUX)
	 Singles Energy            =      -0.0000000000000000 [Eh]
	 Same-Spin Energy          =      -0.0379781659814631 [Eh]
	 Opposite-Spin Energy      =      -0.0927518574227047 [Eh]
	 Correlation Energy        =      -0.1307300234041678 [Eh]
	 Total Energy              =    -599.1482467770176754 [Eh]
	 SCS Total Energy          =    -599.1414783711812788 [Eh]
                               Psi4 1.9 release
    Molecular point group: c1

    Geometry (in Bohr), charge = 1, multiplicity = 1:

       Center              X                  Y                   Z               Mass
    ------------   -----------------  -----------------  -----------------  -----------------
         K            0.000000000000     0.000000000000     0.000000000000    38.963706486400
         O            3.973013118494     2.620426526389    -1.945204705049    15.994914619570
         H            3.374499060039     3.746051341648    -3.279177494819     1.007825032230
         H            5.772676786539     2.323097017809    -2.172489625062     1.007825032230
         O           -2.622119720997    -4.774464865562    -0.464708220690    15.994914619570
         H           -4.352948225196    -4.085973387369    -0.305300373377     1.007825032230
         H           -2.530345171714    -6.449839356609     0.205519054500     1.007825032230
         O           -4.932177628540    -0.037554527291     1.536791425637    15.994914619570
         H           -5.339840686681     1.517950856166     2.497770072764     1.007825032230
         H           -6.448919059986    -0.705300592078     0.892313558632     1.007825032230
         O            1.027890069777     2.653385239743     4.187532938530    15.994914619570
         H            2.580010953743     3.462376994051     4.789242523863     1.007825032230
         H           -0.308556371491     2.956990528785     5.439329098008     1.007825032230
         O            3.645053039147    -3.805742120773    -1.569016925254    15.994914619570
         H            3.001727905079    -4.964406907610    -2.775712881022     1.007825032230
         H            4.806524069280    -2.732731060298    -2.504327422419     1.007825032230
         O           -1.919341913296     3.742349368168    -3.117178832988    15.994914619570
         H           -0.928326069405     4.380867038973    -4.529146289133     1.007825032230
         H           -2.465548352598     5.326438748999    -2.026542296941     1.007825032230

  Charge       = 1
  Multiplicity = 1
  Basis Set: AUG-CC-PVTZ
    Blend: AUG-CC-PVTZ
  Basis Set: (AUG-CC-PVTZ AUX)
    Blend: AUG-CC-PVTZ-JKFIT + DEF2-UNIVERSAL-JKFIT

    Orbital Energies [Eh]
    ---------------------

    Doubly Occupied:

       1A   -133.571555     2A    -20.717360     3A    -20.712359
       4A    -20.711621     5A    -20.705901     6A    -20.685105
       7A    -20.684075     8A    -14.529588     9A    -11.559461
      10A    -11.559394    11A    -11.559342    12A     -1.793168
      13A     -1.497274    14A     -1.488968    15A     -1.479279
      16A     -1.471178    17A     -1.470369    18A     -1.462277
      19A     -1.004997    20A     -1.003767    21A     -1.002636
      22A     -0.873441    23A     -0.864136    24A     -0.850426
      25A     -0.839698    26A     -0.835945    27A     -0.834473
      28A     -0.732378    29A     -0.724391    30A     -0.719343
      31A     -0.717254    32A     -0.704629    33A     -0.694520
      34A     -0.658945    35A     -0.656324    36A     -0.651790
      37A     -0.647736    38A     -0.629692    39A     -0.627932

  @DF-RHF Final Energy: -1055.45234394244062

   => Energetics <=

    Nuclear Repulsion Energy =            452.6961364683156148
    One-Electron Energy =               -2348.4315003460296793
    Two-Electron Energy =                 840.2830199352733871
    Total Energy =                      -1055.4523439424406206
 Dipole X            :          8.9992727           -9.4605094           -0.4612367
 Dipole Y            :         -6.4723698            7.9627182            1.4903484
 Dipole Z            :         14.4314021          -14.7427966           -0.3113945
 Magnitude           :                                                    1.5908627
  Basis Set: (AUG-CC-PVTZ AUX)
    Blend: AUG-CC-PVTZ-RI + DEF2-QZVPP-RI
	 Reference Energy          =   -1055.4523439424406206 [Eh]
	 Singles Energy            =      -0.0000000000000000 [Eh]
	 Same-Spin Energy          =      -0.4569408482752866 [Eh]
	 Opposite-Spin Energy      =      -1.3958524949364399 [Eh]
	 Correlation Energy        =      -1.8527933432117265 [Eh]
	 Total Energy              =   -1057.3051372856523358 [Eh]

	 ================> DF-SCS-MP2 Energies <==================
	-----------------------------------------------------------
	 SCS Same-Spin Scale       =       0.3333333333333333 [-]
	 SCS Opposite-Spin Scale   =       1.2000000000000000 [-]
	 SCS Same-Spin Energy      =      -0.1523136160917622 [Eh]
	 SCS Opposite-Spin Energy  =      -1.6750229939237278 [Eh]
	 SCS Correlation Energy    =      -1.8273366100154900 [Eh]
	 SCS Total Energy          =   -1057.2796805524560568 [Eh]
	-----------------------------------------------------------

*** Psi4 exiting successfully. Buy a developer a beer!
