                               Psi4 1.9 release

  ==> Input File <==

--------------------------------------------------------------------------
MEMORY 60 GB

molecule dimer {
1 1
K      0.000000     0.000000     0.000000
--
0 1
O     -1.237201    -1.186877    -1.898620
H     -1.455599    -2.078405    -2.264946
H     -1.884303    -0.587869    -2.247465
O      1.982555    -1.627158    -0.050544
H      2.859228    -1.332600    -0.294042
H      2.024029    -2.574119    -0.007952
O      0.529545     2.030396     1.666827
H      0.081547     1.990380     2.491648
H      0.447311     2.993552     1.488365
O     -2.004583    -1.160979     1.036664
H     -2.719039    -0.691870     1.542242
H     -2.486547    -1.780673     0.451519

units ang
no_reorient
no_com
symmetry c1
}

set {
basis        aug-cc-pVTZ
scf_type     df
}

energy("mp2", bsse_type="cp")
--------------------------------------------------------------------------

                               Psi4 1.9 release
    Molecular point group: c1
  Charge       = 0
  Multiplicity = 1
  Basis Set: AUG-CC-PVTZ
    Blend: AUG-CC-PVTZ
  Basis Set: (AUG-CC-PVTZ AUX)
    Blend: AUG-CC-PVTZ-JKFIT + DEF2-UNIVERSAL-JKFIT
  @DF-RHF Final Energy:  -304.22336221216005
    Total Energy =                       -304.2233622121600547
 Dipole X            :         15.9307068          -16.9524402           -1.0217333
 Dipole Y            :         36.9837593          -37.0736827           -0.0899234
 Dipole Z            :        -13.8523398           13.5946614           -0.2576784
 Magnitude           :                                                    1.0575554
  Basis Set: (AUG-CC-PVTZ AUX)
    Blend: AUG-CC-PVTZ-RI + DEF2-QZVPP-RI
	 Reference Energy          =    -304.2233622121600547 [Eh]
	 Singles Energy            =      -0.0000000000000000 [Eh]
	 Same-Spin Energy          =      -0.2756462370347995 [Eh]
	 Opposite-Spin Energy      =      -0.8664423987916245 [Eh]
	 Correlation Energy        =      -1.1420886358264239 [Eh]
	 Total Energy              =    -305.3654508479864944 [Eh]
	 SCS Total Energy          =    -305.3549751697216266 [Eh]
                               Psi4 1.9 release
    Molecular point group: c1
  Multiplicity = 1
  Basis Set: AUG-CC-PVTZ
    Blend: AUG-CC-PVTZ
  Basis Set: (AUG-CC-PVTZ AUX)
    Blend: AUG-CC-PVTZ-JKFIT + DEF2-UNIVERSAL-JKFIT
  @DF-RHF Final Energy:  -599.01751529166950
    Total Energy =                       -599.0175152916694969
  Basis Set: (AUG-CC-PVTZ AUX)
	 Singles Energy            =      -0.0000000000000000 [Eh]
	 Same-Spin Energy          =      -0.0367207212985623 [Eh]
	 Opposite-Spin Energy      =      -0.0893849215734588 [Eh]
	 Correlation Energy        =      -0.1261056428720210 [Eh]
	 Total Energy              =    -599.1436209345415591 [Eh]
	 SCS Total Energy          =    -599.1370174379904938 [Eh]
                               Psi4 1.9 release
    Molecular point group: c1

    Geometry (in Bohr), charge = 1, multiplicity = 1:

       Center              X                  Y                   Z               Mass
    ------------   -----------------  -----------------  -----------------  -----------------
         K            0.000000000000     0.000000000000     0.000000000000    38.963706486400
         O           -2.337971052143    -2.242872474605    -3.587871816317    15.994914619570
         H           -2.750683458490    -3.927616227782    -4.280127628951     1.007825032230
         H           -3.560816607379    -1.110911407647    -4.247093326552     1.007825032230
         O            3.746485978657    -3.074882982848    -0.095514317285    15.994914619570
         H            5.403157850241    -2.518249034785    -0.555658849382     1.007825032230
         H            3.824860479984    -4.864379924337    -0.015027102150     1.007825032230
         O            1.000695021106     3.836892366225     3.149846528518    15.994914619570
         H            0.154101496353     3.761273085589     4.708532321045     1.007825032230
         H            0.845295282905     5.656993422317     2.812602224717     1.007825032230
         O           -3.788112865749    -2.193932347408     1.959011044122    15.994914619570
         H           -5.138239034439    -1.307444814421     2.914414999178     1.007825032230
         H           -4.698892828079    -3.364984288997     0.853247250441     1.007825032230

  Charge       = 1
  Multiplicity = 1
  Basis Set: AUG-CC-PVTZ
    Blend: AUG-CC-PVTZ
  Basis Set: (AUG-CC-PVTZ AUX)
    Blend: AUG-CC-PVTZ-JKFIT + DEF2-UNIVERSAL-JKFIT

    Orbital Energies [Eh]
    ---------------------

    Doubly Occupied:

       1A   -133.594129     2A    -20.724201     3A    -20.720479
       4A    -20.716946     5A    -20.710155     6A    -14.553004
       7A    -11.582836     8A    -11.582713     9A    -11.582632
      10A     -1.819339    11A     -1.509543    12A     -1.506500
      13A     -1.504018    14A     -1.493913    15A     -1.031764
      16A     -1.031201    17A     -1.030311    18A     -0.875738
      19A     -0.871135    20A     -0.855364    21A     -0.854433
      22A     -0.754709    23A     -0.743970    24A     -0.740554
      25A     -0.738148    26A     -0.677882    27A     -0.664165
      28A     -0.660548    29A     -0.657474

  @DF-RHF Final Energy:  -903.32797695949512

   => Energetics <=

    Nuclear Repulsion Energy =            262.7006391961128884
    One-Electron Energy =               -1760.4816197404654758
    Two-Electron Energy =                 594.4530035848574698
    Total Energy =                       -903.3279769594951176
 Dipole X            :         15.7973612          -16.9524402           -1.1550790
 Dipole Y            :         36.7128307          -37.0736827           -0.3608520
 Dipole Z            :        -13.7921510           13.5946614           -0.1974896
 Magnitude           :                                                    1.2261418
  Basis Set: (AUG-CC-PVTZ AUX)
    Blend: AUG-CC-PVTZ-RI + DEF2-QZVPP-RI
	 Reference Energy          =    -903.3279769594951176 [Eh]
	 Singles Energy            =      -0.0000000000000000 [Eh]
	 Same-Spin Energy          =      -0.3157338163647955 [Eh]
	 Opposite-Spin Energy      =      -0.9549327641881318 [Eh]
	 Correlation Energy        =      -1.2706665805529274 [Eh]
	 Total Energy              =    -904.5986435400481014 [Eh]

	 ================> DF-SCS-MP2 Energies <==================
	-----------------------------------------------------------
	 SCS Same-Spin Scale       =       0.3333333333333333 [-]
	 SCS Opposite-Spin Scale   =       1.2000000000000000 [-]
	 SCS Same-Spin Energy      =      -0.1052446054549318 [Eh]
	 SCS Opposite-Spin Energy  =      -1.1459193170257580 [Eh]
	 SCS Correlation Energy    =      -1.2511639224806899 [Eh]
	 SCS Total Energy          =    -904.5791408819758317 [Eh]
	-----------------------------------------------------------

*** Psi4 exiting successfully. Buy a developer a beer!
