                               Psi4 1.9 release

  ==> Input File <==

--------------------------------------------------------------------------
MEMORY 60 GB

molecule dimer {
0 1
Gh(K)      0.000000     0.000000     0.000000
O         -2.854442     0.584840    -0.122179
H         -3.265333    -0.153361     0.306368
H         -3.159443     1.375887     0.435029
Gh(O)      1.793507     2.390251     0.448386
Gh(H)      1.484797     2.937877    -0.247414
Gh(H)      2.760113     2.530882     0.485450
Gh(O)     -0.012318     1.515708    -2.116487
Gh(H)     -0.444712     1.661309    -2.931489
Gh(H)      0.234305     2.352957    -1.751290
Gh(O)     -0.359420    -0.604796     2.633990
Gh(H)      0.279877    -0.081645     3.137778
Gh(H)     -0.226378    -1.549243     2.698047
Gh(O)      2.595565    -1.054409     0.246960
Gh(H)      2.113393    -1.851888    -0.056301
Gh(H)      3.361367    -1.381693     0.744870
Gh(O)      0.402821    -2.381732    -1.341749
Gh(H)     -0.585953    -2.453448    -1.264600
Gh(H)      0.751084    -2.951825    -2.024247

units ang
no_reorient
no_com
symmetry c1
}

set {
basis        aug-cc-pVTZ
scf_type     df
}

energy("mp2")
--------------------------------------------------------------------------

    Molecular point group: c1

    Geometry (in Angstrom), charge = 0, multiplicity = 1:

       Center              X                  Y                   Z               Mass
    ------------   -----------------  -----------------  -----------------  -----------------
      Gh(K)           0.000000000000     0.000000000000     0.000000000000    38.963706486400
         O           -2.854442000000     0.584840000000    -0.122179000000    15.994914619570
         H           -3.265333000000    -0.153361000000     0.306368000000     1.007825032230
         H           -3.159443000000     1.375887000000     0.435029000000     1.007825032230
      Gh(O)           1.793507000000     2.390251000000     0.448386000000    15.994914619570
      Gh(H)           1.484797000000     2.937877000000    -0.247414000000     1.007825032230
      Gh(H)           2.760113000000     2.530882000000     0.485450000000     1.007825032230
      Gh(O)          -0.012318000000     1.515708000000    -2.116487000000    15.994914619570
      Gh(H)          -0.444712000000     1.661309000000    -2.931489000000     1.007825032230
      Gh(H)           0.234305000000     2.352957000000    -1.751290000000     1.007825032230
      Gh(O)          -0.359420000000    -0.604796000000     2.633990000000    15.994914619570
      Gh(H)           0.279877000000    -0.081645000000     3.137778000000     1.007825032230
      Gh(H)          -0.226378000000    -1.549243000000     2.698047000000     1.007825032230
      Gh(O)           2.595565000000    -1.054409000000     0.246960000000    15.994914619570
      Gh(H)           2.113393000000    -1.851888000000    -0.056301000000     1.007825032230
      Gh(H)           3.361367000000    -1.381693000000     0.744870000000     1.007825032230
      Gh(O)           0.402821000000    -2.381732000000    -1.341749000000    15.994914619570
      Gh(H)          -0.585953000000    -2.453448000000    -1.264600000000     1.007825032230
      Gh(H)           0.751084000000    -2.951825000000    -2.024247000000     1.007825032230

  Charge       = 0
  Multiplicity = 1
  Basis Set: AUG-CC-PVTZ
    Blend: AUG-CC-PVTZ
  Basis Set: (AUG-CC-PVTZ AUX)
    Blend: AUG-CC-PVTZ-JKFIT + DEF2-UNIVERSAL-JKFIT

    Orbital Energies [Eh]
    ---------------------

    Doubly Occupied:

       1A    -20.571532     2A     -1.343541     3A     -0.703014
       4A     -0.582389     5A     -0.508928

  @DF-RHF Final Energy:   -76.05608329599816

   => Energetics <=

    Nuclear Repulsion Energy =              8.9856198920010790
    One-Electron Energy =                -122.6645946374434573
    Two-Electron Energy =                  37.6228914494442108
    Total Energy =                        -76.0560832959981639
 Dipole X            :         54.8252570          -55.2939760           -0.4687190
 Dipole Y            :        -11.1291902           11.1517387            0.0225486
 Dipole Z            :          1.0888656           -0.4460415            0.6428241
 Magnitude           :                                                    0.7958824
  Basis Set: (AUG-CC-PVTZ AUX)
    Blend: AUG-CC-PVTZ-RI + DEF2-QZVPP-RI
	 Reference Energy          =     -76.0560832959981639 [Eh]
	 Singles Energy            =      -0.0000000000000000 [Eh]
	 Same-Spin Energy          =      -0.0688036097267450 [Eh]
	 Opposite-Spin Energy      =      -0.2168930073846473 [Eh]
	 Correlation Energy        =      -0.2856966171113923 [Eh]
	 Total Energy              =     -76.3417799131095620 [Eh]

	 ================> DF-SCS-MP2 Energies <==================
	-----------------------------------------------------------
	 SCS Same-Spin Scale       =       0.3333333333333333 [-]
	 SCS Opposite-Spin Scale   =       1.2000000000000000 [-]
	 SCS Same-Spin Energy      =      -0.0229345365755817 [Eh]
	 SCS Opposite-Spin Energy  =      -0.2602716088615768 [Eh]
	 SCS Correlation Energy    =      -0.2832061454371584 [Eh]
	 SCS Total Energy          =     -76.3392894414353265 [Eh]
	-----------------------------------------------------------

*** Psi4 exiting successfully. Buy a developer a beer!
