                               Psi4 1.9 release

  ==> Input File <==

--------------------------------------------------------------------------
MEMORY 60 GB

molecule dimer {
1 1
K      0.000000     0.000000     0.000000
--
0 1
O     -1.079975    -2.519084    -1.114293
H     -1.161689    -2.449086    -2.142292
H     -0.354682    -3.093749    -0.915162
O      1.908494     1.199004     1.428095
H      1.949247     2.134957     1.646687
H      2.266614     0.791491     2.173180
O      1.456059     1.407035    -1.667662
H      2.234873     1.586585    -1.148718
H      1.247923     2.161680    -2.201385
O      2.223638    -1.618894    -0.002776
H      2.648935    -1.081482     0.723639
H      2.271674    -2.530630     0.297885
O     -2.357044     0.556742    -0.791296
H     -2.362310     1.515093    -0.520705
H     -2.704638     0.650218    -1.700959
O     -1.360042    -0.673605     2.109571
H     -2.212517    -0.566043     1.680662
H     -1.415840    -1.458593     2.705608

units ang
no_reorient
no_com
symmetry c1
}

set {
basis        aug-cc-pVTZ
scf_type     df
}

energy("mp2", bsse_type="cp")
--------------------------------------------------------------------------

                               Psi4 1.9 release
    Molecular point group: c1
  Charge       = 0
  Multiplicity = 1
  Basis Set: AUG-CC-PVTZ
    Blend: AUG-CC-PVTZ
  Basis Set: (AUG-CC-PVTZ AUX)
    Blend: AUG-CC-PVTZ-JKFIT + DEF2-UNIVERSAL-JKFIT
  @DF-RHF Final Energy:  -456.33059872933904
    Total Energy =                       -456.3305987293390444
 Dipole X            :        -15.9933152           16.5098380            0.5165227
 Dipole Y            :         30.0268695          -29.3473995            0.6794700
 Dipole Z            :         -0.1016013            0.5509534            0.4493521
 Magnitude           :                                                    0.9645686
  Basis Set: (AUG-CC-PVTZ AUX)
    Blend: AUG-CC-PVTZ-RI + DEF2-QZVPP-RI
	 Reference Energy          =    -456.3305987293390444 [Eh]
	 Singles Energy            =      -0.0000000000000000 [Eh]
	 Same-Spin Energy          =      -0.4150226817575882 [Eh]
	 Opposite-Spin Energy      =      -1.3023443757752493 [Eh]
	 Correlation Energy        =      -1.7173670575328375 [Eh]
	 Total Energy              =    -458.0479657868718846 [Eh]
	 SCS Total Energy          =    -458.0317528741885553 [Eh]
                               Psi4 1.9 release
    Molecular point group: c1
  Multiplicity = 1
  Basis Set: AUG-CC-PVTZ
    Blend: AUG-CC-PVTZ
  Basis Set: (AUG-CC-PVTZ AUX)
    Blend: AUG-CC-PVTZ-JKFIT + DEF2-UNIVERSAL-JKFIT
  @DF-RHF Final Energy:  -599.01751757768341
    Total Energy =                       -599.0175175776832930
  Basis Set: (AUG-CC-PVTZ AUX)
	 Singles Energy            =      -0.0000000000000000 [Eh]
	 Same-Spin Energy          =      -0.0401646398961158 [Eh]
	 Opposite-Spin Energy      =      -0.0992093692452679 [Eh]
	 Correlation Energy        =      -0.1393740091413837 [Eh]
	 Total Energy              =    -599.1568915868248268 [Eh]
	 SCS Total Energy          =    -599.1499570340764649 [Eh]
                               Psi4 1.9 release
    Molecular point group: c1

    Geometry (in Bohr), charge = 1, multiplicity = 1:

       Center              X                  Y                   Z               Mass
    ------------   -----------------  -----------------  -----------------  -----------------
         K            0.000000000000     0.000000000000     0.000000000000    38.963706486400
         O           -2.040856972341    -4.760378847023    -2.105708593515    15.994914619570
         H           -2.195274052957    -4.628101797693    -4.048345160759     1.007825032230
         H           -0.670251841630    -5.846338310909    -1.729405540426     1.007825032230
         O            3.606530972080     2.265789183328     2.698708431136    15.994914619570
         H            3.683542980870     4.034484019629     3.111787444352     1.007825032230
         H            4.283279692128     1.495701220765     4.106715021322     1.007825032230
         O            2.751552732508     2.658910798934    -3.151424449833    15.994914619570
         H            4.223297895180     2.998211124760    -2.170762415384     1.007825032230
         H            2.358232695660     4.084983170880    -4.160014746691     1.007825032230
         O            4.202066822161    -3.059266286147    -0.005245879724    15.994914619570
         H            5.005761674140    -2.043704789612     1.367479523700     1.007825032230
         H            4.292841706323    -4.782197624867     0.562921066882     1.007825032230
         O           -4.454167625654     1.052089902540    -1.495332724170    15.994914619570
         H           -4.464118923430     2.863110824598    -0.983989842157     1.007825032230
         H           -5.111025088506     1.228733941843    -3.214346660633     1.007825032230
         O           -2.570106899120    -1.272928966739     3.986511432208    15.994914619570
         H           -4.181051177920    -1.069666245233     3.175990889464     1.007825032230
         H           -2.675549837468    -2.756341298510     5.112858122848     1.007825032230

  Charge       = 1
  Multiplicity = 1
  Basis Set: AUG-CC-PVTZ
    Blend: AUG-CC-PVTZ
  Basis Set: (AUG-CC-PVTZ AUX)
    Blend: AUG-CC-PVTZ-JKFIT + DEF2-UNIVERSAL-JKFIT

    Orbital Energies [Eh]
    ---------------------

    Doubly Occupied:

       1A   -133.565160     2A    -20.722547     3A    -20.719964
       4A    -20.706539     5A    -20.697229     6A    -20.697210
       7A    -20.690255     8A    -14.524300     9A    -11.554079
      10A    -11.553978    11A    -11.553915    12A     -1.791890
      13A     -1.525537    14A     -1.494310    15A     -1.491699
      16A     -1.481467    17A     -1.477272    18A     -1.458370
      19A     -1.006885    20A     -1.003649    21A     -1.002909
      22A     -0.887446    23A     -0.867883    24A     -0.849043
      25A     -0.844928    26A     -0.840429    27A     -0.827741
      28A     -0.758782    29A     -0.743154    30A     -0.723026
      31A     -0.718660    32A     -0.712061    33A     -0.694390
      34A     -0.675860    35A     -0.662370    36A     -0.649546
      37A     -0.648068    38A     -0.642391    39A     -0.629781

  @DF-RHF Final Energy: -1055.45148207454190

   => Energetics <=

    Nuclear Repulsion Energy =            467.4791125516450734
    One-Electron Energy =               -2377.6717341288567695
    Two-Electron Energy =                 854.7411395026697392
    Total Energy =                      -1055.4514820745419001
 Dipole X            :        -15.9449082           16.5098380            0.5649298
 Dipole Y            :         29.9258071          -29.3473995            0.5784076
 Dipole Z            :         -0.1022198            0.5509534            0.4487336
 Magnitude           :                                                    0.9246961
  Basis Set: (AUG-CC-PVTZ AUX)
    Blend: AUG-CC-PVTZ-RI + DEF2-QZVPP-RI
	 Reference Energy          =   -1055.4514820745419001 [Eh]
	 Singles Energy            =      -0.0000000000000000 [Eh]
	 Same-Spin Energy          =      -0.4599038496795442 [Eh]
	 Opposite-Spin Energy      =      -1.4014358707673105 [Eh]
	 Correlation Energy        =      -1.8613397204468547 [Eh]
	 Total Energy              =   -1057.3128217949888494 [Eh]

	 ================> DF-SCS-MP2 Energies <==================
	-----------------------------------------------------------
	 SCS Same-Spin Scale       =       0.3333333333333333 [-]
	 SCS Opposite-Spin Scale   =       1.2000000000000000 [-]
	 SCS Same-Spin Energy      =      -0.1533012832265147 [Eh]
	 SCS Opposite-Spin Energy  =      -1.6817230449207725 [Eh]
	 SCS Correlation Energy    =      -1.8350243281472873 [Eh]
	 SCS Total Energy          =   -1057.2865064026891559 [Eh]
	-----------------------------------------------------------

*** Psi4 exiting successfully. Buy a developer a beer!
