                               Psi4 1.9 release

  ==> Input File <==

--------------------------------------------------------------------------
MEMORY 60 GB

molecule dimer {
1 1
K      0.000000     0.000000     0.000000
--
0 1
O     -1.202188     2.642841     0.692677
H     -0.359877     2.846537     0.288544
H     -1.204085     2.921992     1.633837
O     -1.785275    -1.619405     1.542860
H     -1.608427    -2.541342     1.315844
H     -2.705446    -1.468932     1.288631
O      0.144826     0.555459     2.652150
H     -0.007468     1.382754     3.068522
H      0.885053     0.138197     3.140295
O      0.561667     0.361770    -2.784131
H      0.458919    -0.179426    -3.508356
H      0.977542     1.097592    -3.183885
O      1.915812    -1.620111     0.708210
H      2.736568    -1.603689     1.185820
H      2.168479    -1.743309    -0.203061
O      1.244176     2.226543    -0.413552
H      1.113277     2.980785    -0.948090
H      2.029386     2.478591     0.106543

units ang
no_reorient
no_com
symmetry c1
}

set {
basis        aug-cc-pVTZ
scf_type     df
}

energy("mp2", bsse_type="cp")
--------------------------------------------------------------------------

                               Psi4 1.9 release
    Molecular point group: c1
  Charge       = 0
  Multiplicity = 1
  Basis Set: AUG-CC-PVTZ
    Blend: AUG-CC-PVTZ
  Basis Set: (AUG-CC-PVTZ AUX)
    Blend: AUG-CC-PVTZ-JKFIT + DEF2-UNIVERSAL-JKFIT
  @DF-RHF Final Energy:  -456.33081705905244
    Total Energy =                       -456.3308170590524355
 Dipole X            :        -19.8543742           21.7622089            1.9078347
 Dipole Y            :        -49.7916453           50.4302254            0.6385800
 Dipole Z            :        -44.7280622           44.1635723           -0.5644899
 Magnitude           :                                                    2.0895614
  Basis Set: (AUG-CC-PVTZ AUX)
    Blend: AUG-CC-PVTZ-RI + DEF2-QZVPP-RI
	 Reference Energy          =    -456.3308170590524355 [Eh]
	 Singles Energy            =      -0.0000000000000000 [Eh]
	 Same-Spin Energy          =      -0.4149760126464726 [Eh]
	 Opposite-Spin Energy      =      -1.2994939693627443 [Eh]
	 Correlation Energy        =      -1.7144699820092169 [Eh]
	 Total Energy              =    -458.0452870410616697 [Eh]
	 SCS Total Energy          =    -458.0285351598365651 [Eh]
                               Psi4 1.9 release
    Molecular point group: c1
  Multiplicity = 1
  Basis Set: AUG-CC-PVTZ
    Blend: AUG-CC-PVTZ
  Basis Set: (AUG-CC-PVTZ AUX)
    Blend: AUG-CC-PVTZ-JKFIT + DEF2-UNIVERSAL-JKFIT
  @DF-RHF Final Energy:  -599.01751693439383
    Total Energy =                       -599.0175169343938251
  Basis Set: (AUG-CC-PVTZ AUX)
	 Singles Energy            =      -0.0000000000000000 [Eh]
	 Same-Spin Energy          =      -0.0387137941759727 [Eh]
	 Opposite-Spin Energy      =      -0.0949748683875788 [Eh]
	 Correlation Energy        =      -0.1336886625635516 [Eh]
	 Total Energy              =    -599.1512055969574249 [Eh]
	 SCS Total Energy          =    -599.1443913745175678 [Eh]
                               Psi4 1.9 release
    Molecular point group: c1

    Geometry (in Bohr), charge = 1, multiplicity = 1:

       Center              X                  Y                   Z               Mass
    ------------   -----------------  -----------------  -----------------  -----------------
         K            0.000000000000     0.000000000000     0.000000000000    38.963706486400
         O           -2.271806071312     4.994245683131     1.308969823404    15.994914619570
         H           -0.680068968851     5.379175335982     0.545269135144     1.007825032230
         H           -2.275390881772     5.521764620779     3.087504463640     1.007825032230
         O           -3.373680808627    -3.060231936197     2.915582849924    15.994914619570
         H           -3.039486522792    -4.802440371123     2.486584783827     1.007825032230
         H           -5.112551987215    -2.775879176921     2.435159666775     1.007825032230
         O            0.273681475846     1.049665383921     5.011837143633    15.994914619570
         H           -0.014112474705     2.613026358881     5.798666189942     1.007825032230
         H            1.672507776515     0.261154481360     5.934297503145     1.007825032230
         O            1.061396803708     0.683646220407    -5.261245087397    15.994914619570
         H            0.867231223769    -0.339065999786    -6.629831990607     1.007825032230
         H            1.847286656132     2.074148277494    -6.016670664953     1.007825032230
         O            3.620359987866    -3.061566082842     1.338322939310    15.994914619570
         H            5.171364043692    -3.030533000409     2.240875034090     1.007825032230
         H            4.097831418807    -3.294376562046    -0.383729676762     1.007825032230
         O            2.351151891868     4.207556476555    -0.781500018635    15.994914619570
         H            2.103788631771     5.632867288873    -1.791630442285     1.007825032230
         H            3.834983742838     4.683858167025     0.201337090585     1.007825032230

  Charge       = 1
  Multiplicity = 1
  Basis Set: AUG-CC-PVTZ
    Blend: AUG-CC-PVTZ
  Basis Set: (AUG-CC-PVTZ AUX)
    Blend: AUG-CC-PVTZ-JKFIT + DEF2-UNIVERSAL-JKFIT

    Orbital Energies [Eh]
    ---------------------

    Doubly Occupied:

       1A   -133.580559     2A    -20.736005     3A    -20.713248
       4A    -20.702447     5A    -20.692212     6A    -20.683910
       7A    -20.673343     8A    -14.538870     9A    -11.568722
      10A    -11.568696    11A    -11.568530    12A     -1.803491
      13A     -1.536252    14A     -1.517413    15A     -1.508269
      16A     -1.481054    17A     -1.466449    18A     -1.456417
      19A     -1.016969    20A     -1.015616    21A     -1.012162
      22A     -0.892480    23A     -0.871656    24A     -0.869348
      25A     -0.849690    26A     -0.839585    27A     -0.830593
      28A     -0.770194    29A     -0.748867    30A     -0.740477
      31A     -0.718806    32A     -0.705039    33A     -0.697289
      34A     -0.667657    35A     -0.663680    36A     -0.657484
      37A     -0.639395    38A     -0.629065    39A     -0.618446

  @DF-RHF Final Energy: -1055.45419689306345

   => Energetics <=

    Nuclear Repulsion Energy =            464.3762965001826046
    One-Electron Energy =               -2371.1602075859236720
    Two-Electron Energy =                 851.3297141926775566
    Total Energy =                      -1055.4541968930634539
 Dipole X            :        -19.6845433           21.7622089            2.0776656
 Dipole Y            :        -49.5689753           50.4302254            0.8612501
 Dipole Z            :        -44.4517376           44.1635723           -0.2881653
 Magnitude           :                                                    2.2674843
  Basis Set: (AUG-CC-PVTZ AUX)
    Blend: AUG-CC-PVTZ-RI + DEF2-QZVPP-RI
	 Reference Energy          =   -1055.4541968930634539 [Eh]
	 Singles Energy            =      -0.0000000000000000 [Eh]
	 Same-Spin Energy          =      -0.4574434574865340 [Eh]
	 Opposite-Spin Energy      =      -1.3938754373597952 [Eh]
	 Correlation Energy        =      -1.8513188948463293 [Eh]
	 Total Energy              =   -1057.3055157879098260 [Eh]

	 ================> DF-SCS-MP2 Energies <==================
	-----------------------------------------------------------
	 SCS Same-Spin Scale       =       0.3333333333333333 [-]
	 SCS Opposite-Spin Scale   =       1.2000000000000000 [-]
	 SCS Same-Spin Energy      =      -0.1524811524955113 [Eh]
	 SCS Opposite-Spin Energy  =      -1.6726505248317542 [Eh]
	 SCS Correlation Energy    =      -1.8251316773272657 [Eh]
	 SCS Total Energy          =   -1057.2793285703908168 [Eh]
	-----------------------------------------------------------

*** Psi4 exiting successfully. Buy a developer a beer!
