                               Psi4 1.9 release

  ==> Input File <==

--------------------------------------------------------------------------
MEMORY 60 GB

molecule dimer {
0 1
Gh(K)      0.000000     0.000000     0.000000
Gh(O)      2.508782    -0.141844     0.410377
Gh(H)      2.562458     0.762794     0.130963
Gh(H)      3.441425    -0.376554     0.562283
Gh(O)      1.412786    -1.432695    -1.957736
Gh(H)      2.326943    -1.625764    -2.277906
Gh(H)      0.935548    -2.250073    -1.821873
Gh(O)     -1.020538     1.606119     1.754091
Gh(H)     -1.273693     2.198824     1.035375
Gh(H)     -0.603547     2.090252     2.409861
O         -1.392791    -1.909610     1.353410
H         -1.147644    -2.832730     1.686886
H         -2.369302    -1.909809     0.980002
Gh(O)     -1.194174    -0.015023    -2.323203
Gh(H)     -1.115379    -0.877981    -2.766013
Gh(H)     -2.152801     0.190925    -2.210689

units ang
no_reorient
no_com
symmetry c1
}

set {
basis        aug-cc-pVTZ
scf_type     df
}

energy("mp2")
--------------------------------------------------------------------------

    Molecular point group: c1

    Geometry (in Angstrom), charge = 0, multiplicity = 1:

       Center              X                  Y                   Z               Mass
    ------------   -----------------  -----------------  -----------------  -----------------
      Gh(K)           0.000000000000     0.000000000000     0.000000000000    38.963706486400
      Gh(O)           2.508782000000    -0.141844000000     0.410377000000    15.994914619570
      Gh(H)           2.562458000000     0.762794000000     0.130963000000     1.007825032230
      Gh(H)           3.441425000000    -0.376554000000     0.562283000000     1.007825032230
      Gh(O)           1.412786000000    -1.432695000000    -1.957736000000    15.994914619570
      Gh(H)           2.326943000000    -1.625764000000    -2.277906000000     1.007825032230
      Gh(H)           0.935548000000    -2.250073000000    -1.821873000000     1.007825032230
      Gh(O)          -1.020538000000     1.606119000000     1.754091000000    15.994914619570
      Gh(H)          -1.273693000000     2.198824000000     1.035375000000     1.007825032230
      Gh(H)          -0.603547000000     2.090252000000     2.409861000000     1.007825032230
         O           -1.392791000000    -1.909610000000     1.353410000000    15.994914619570
         H           -1.147644000000    -2.832730000000     1.686886000000     1.007825032230
         H           -2.369302000000    -1.909809000000     0.980002000000     1.007825032230
      Gh(O)          -1.194174000000    -0.015023000000    -2.323203000000    15.994914619570
      Gh(H)          -1.115379000000    -0.877981000000    -2.766013000000     1.007825032230
      Gh(H)          -2.152801000000     0.190925000000    -2.210689000000     1.007825032230

  Charge       = 0
  Multiplicity = 1
  Basis Set: AUG-CC-PVTZ
    Blend: AUG-CC-PVTZ
  Basis Set: (AUG-CC-PVTZ AUX)
    Blend: AUG-CC-PVTZ-JKFIT + DEF2-UNIVERSAL-JKFIT

    Orbital Energies [Eh]
    ---------------------

    Doubly Occupied:

       1A    -20.576062     2A     -1.316587     3A     -0.689607
       4A     -0.560667     5A     -0.503120

  @DF-RHF Final Energy:   -76.04595794783516

   => Energetics <=

    Nuclear Repulsion Energy =              8.5477185047270439
    One-Electron Energy =                -121.8952616692445901
    Two-Electron Energy =                  37.3015852166823834
    Total Energy =                        -76.0459579478351628
 Dipole X            :         27.2321947          -27.7020131           -0.4698183
 Dipole Y            :         37.2311256          -37.8312191           -0.6000935
 Dipole Z            :        -25.5238850           25.5002818           -0.0236032
 Magnitude           :                                                    0.7624950
  Basis Set: (AUG-CC-PVTZ AUX)
    Blend: AUG-CC-PVTZ-RI + DEF2-QZVPP-RI
	 Reference Energy          =     -76.0459579478351628 [Eh]
	 Singles Energy            =      -0.0000000000000000 [Eh]
	 Same-Spin Energy          =      -0.0695312463071434 [Eh]
	 Opposite-Spin Energy      =      -0.2191483738983465 [Eh]
	 Correlation Energy        =      -0.2886796202054899 [Eh]
	 Total Energy              =     -76.3346375680406481 [Eh]

	 ================> DF-SCS-MP2 Energies <==================
	-----------------------------------------------------------
	 SCS Same-Spin Scale       =       0.3333333333333333 [-]
	 SCS Opposite-Spin Scale   =       1.2000000000000000 [-]
	 SCS Same-Spin Energy      =      -0.0231770821023811 [Eh]
	 SCS Opposite-Spin Energy  =      -0.2629780486780158 [Eh]
	 SCS Correlation Energy    =      -0.2861551307803969 [Eh]
	 SCS Total Energy          =     -76.3321130786155635 [Eh]
	-----------------------------------------------------------

*** Psi4 exiting successfully. Buy a developer a beer!
