                               Psi4 1.9 release

  ==> Input File <==

--------------------------------------------------------------------------
MEMORY 60 GB

molecule dimer {
1 1
K      0.000000     0.000000     0.000000
--
0 1
O      1.718018     0.231702     1.982918
H      2.030510    -0.589138     2.359944
H      1.757650     0.961818     2.605759
O     -1.357838     1.036276    -2.176719
H     -1.862644     1.908415    -2.195129
H     -2.093985     0.377470    -2.470949
O      0.093893    -2.699563    -1.187877
H     -0.368393    -3.368385    -0.686177
H      0.993326    -3.116036    -1.311465
O     -0.782278    -1.864644     1.959905
H     -0.286253    -2.712429     1.908728
H     -1.707732    -2.173103     2.104632

units ang
no_reorient
no_com
symmetry c1
}

set {
basis        aug-cc-pVTZ
scf_type     df
}

energy("mp2", bsse_type="cp")
--------------------------------------------------------------------------

                               Psi4 1.9 release
    Molecular point group: c1
  Charge       = 0
  Multiplicity = 1
  Basis Set: AUG-CC-PVTZ
    Blend: AUG-CC-PVTZ
  Basis Set: (AUG-CC-PVTZ AUX)
    Blend: AUG-CC-PVTZ-JKFIT + DEF2-UNIVERSAL-JKFIT
  @DF-RHF Final Energy:  -304.21322492342796
    Total Energy =                       -304.2132249234279016
 Dipole X            :          7.3104748           -7.8672341           -0.5567593
 Dipole Y            :         64.9922109          -66.2938979           -1.3016871
 Dipole Z            :        -12.3525168           13.1168895            0.7643727
 Magnitude           :                                                    1.6089238
  Basis Set: (AUG-CC-PVTZ AUX)
    Blend: AUG-CC-PVTZ-RI + DEF2-QZVPP-RI
	 Reference Energy          =    -304.2132249234279584 [Eh]
	 Singles Energy            =      -0.0000000000000000 [Eh]
	 Same-Spin Energy          =      -0.2767295003498428 [Eh]
	 Opposite-Spin Energy      =      -0.8699867330379287 [Eh]
	 Correlation Energy        =      -1.1467162333877714 [Eh]
	 Total Energy              =    -305.3599411568157507 [Eh]
	 SCS Total Energy          =    -305.3494521698567610 [Eh]
                               Psi4 1.9 release
    Molecular point group: c1
  Multiplicity = 1
  Basis Set: AUG-CC-PVTZ
    Blend: AUG-CC-PVTZ
  Basis Set: (AUG-CC-PVTZ AUX)
    Blend: AUG-CC-PVTZ-JKFIT + DEF2-UNIVERSAL-JKFIT
  @DF-RHF Final Energy:  -599.01751420770177
    Total Energy =                       -599.0175142077016517
  Basis Set: (AUG-CC-PVTZ AUX)
	 Singles Energy            =      -0.0000000000000000 [Eh]
	 Same-Spin Energy          =      -0.0343856456799692 [Eh]
	 Opposite-Spin Energy      =      -0.0829117560530793 [Eh]
	 Correlation Energy        =      -0.1172974017330485 [Eh]
	 Total Energy              =    -599.1348116094347915 [Eh]
	 SCS Total Energy          =    -599.1284701968587569 [Eh]
                               Psi4 1.9 release
    Molecular point group: c1

    Geometry (in Bohr), charge = 1, multiplicity = 1:

       Center              X                  Y                   Z               Mass
    ------------   -----------------  -----------------  -----------------  -----------------
         K            0.000000000000     0.000000000000     0.000000000000    38.963706486400
         O            3.246583498607     0.437853322721     3.747171949241    15.994914619570
         H            3.837107795003    -1.113309470100     4.459647831417     1.007825032230
         H            3.321477124411     1.817572602536     4.924170858947     1.007825032230
         O           -2.565941942739     1.958277830385    -4.113402762080    15.994914619570
         H           -3.519887029227     3.606381683716    -4.148192620050     1.007825032230
         H           -3.957058160817     0.713314920577    -4.669416879974     1.007825032230
         O            0.177432055098    -5.101434728419    -2.244762200730    15.994914619570
         H           -0.696161876536    -6.365325135100    -1.296686603588     1.007825032230
         H            1.877114093297    -5.888454637067    -2.478309673124     1.007825032230
         O           -1.478291173971    -3.523666481478     3.703683681915    15.994914619570
         H           -0.540939772591    -5.125747944749     3.606973167993     1.007825032230
         H           -3.227145775680    -4.106569512411     3.977178074875     1.007825032230

  Charge       = 1
  Multiplicity = 1
  Basis Set: AUG-CC-PVTZ
    Blend: AUG-CC-PVTZ
  Basis Set: (AUG-CC-PVTZ AUX)
    Blend: AUG-CC-PVTZ-JKFIT + DEF2-UNIVERSAL-JKFIT

    Orbital Energies [Eh]
    ---------------------

    Doubly Occupied:

       1A   -133.621759     2A    -20.726630     3A    -20.722262
       4A    -20.719485     5A    -20.711677     6A    -14.579221
       7A    -11.609204     8A    -11.609106     9A    -11.608956
      10A     -1.840722    11A     -1.500319    12A     -1.498364
      13A     -1.495234    14A     -1.473055    15A     -1.051318
      16A     -1.049848    17A     -1.048330    18A     -0.883113
      19A     -0.855410    20A     -0.850605    21A     -0.824193
      22A     -0.747081    23A     -0.739883    24A     -0.733084
      25A     -0.728151    26A     -0.672294    27A     -0.661029
      28A     -0.656315    29A     -0.655068

  @DF-RHF Final Energy:  -903.31693277939883

   => Energetics <=

    Nuclear Repulsion Energy =            249.5882742511376762
    One-Electron Energy =               -1734.0669775141464015
    Two-Electron Energy =                 581.1617704836099847
    Total Energy =                       -903.3169327793988259
 Dipole X            :          7.2735391           -7.8672341           -0.5936950
 Dipole Y            :         64.6988837          -66.2938979           -1.5950143
 Dipole Z            :        -12.2457779           13.1168895            0.8711116
 Magnitude           :                                                    1.9119047
  Basis Set: (AUG-CC-PVTZ AUX)
    Blend: AUG-CC-PVTZ-RI + DEF2-QZVPP-RI
	 Reference Energy          =    -903.3169327793988259 [Eh]
	 Singles Energy            =      -0.0000000000000000 [Eh]
	 Same-Spin Energy          =      -0.3134627736399764 [Eh]
	 Opposite-Spin Energy      =      -0.9519871374312010 [Eh]
	 Correlation Energy        =      -1.2654499110711774 [Eh]
	 Total Energy              =    -904.5823826904700127 [Eh]

	 ================> DF-SCS-MP2 Energies <==================
	-----------------------------------------------------------
	 SCS Same-Spin Scale       =       0.3333333333333333 [-]
	 SCS Opposite-Spin Scale   =       1.2000000000000000 [-]
	 SCS Same-Spin Energy      =      -0.1044875912133255 [Eh]
	 SCS Opposite-Spin Energy  =      -1.1423845649174411 [Eh]
	 SCS Correlation Energy    =      -1.2468721561307665 [Eh]
	 SCS Total Energy          =    -904.5638049355295607 [Eh]
	-----------------------------------------------------------

*** Psi4 exiting successfully. Buy a developer a beer!
