                               Psi4 1.9 release

  ==> Input File <==

--------------------------------------------------------------------------
MEMORY 60 GB

molecule dimer {
0 1
Gh(K)      0.000000     0.000000     0.000000
Gh(O)      0.049226     2.701947    -1.155143
Gh(H)     -0.920606     2.740287    -1.218459
Gh(H)      0.456142     2.515712    -2.012420
Gh(O)     -1.447501    -0.454706     2.173556
Gh(H)     -1.986228    -1.035711     1.657750
Gh(H)     -1.199479    -0.982340     2.918186
Gh(O)      0.653369    -2.372660     1.490410
Gh(H)      0.618963    -2.151815     2.431321
Gh(H)      0.120151    -3.194488     1.363670
Gh(O)     -2.496333    -0.502934    -0.545027
Gh(H)     -2.174543    -1.006544    -1.289153
Gh(H)     -2.868617     0.221761    -1.038251
O          1.045807    -0.664263    -2.649852
H          0.737206    -0.257818    -3.449876
H          1.018814    -1.657837    -2.920530
Gh(O)      1.773374     1.100513     1.657986
Gh(H)      2.390244     1.790927     1.817412
Gh(H)      1.689360     0.544883     2.439841

units ang
no_reorient
no_com
symmetry c1
}

set {
basis        aug-cc-pVTZ
scf_type     df
}

energy("mp2")
--------------------------------------------------------------------------

    Molecular point group: c1

    Geometry (in Angstrom), charge = 0, multiplicity = 1:

       Center              X                  Y                   Z               Mass
    ------------   -----------------  -----------------  -----------------  -----------------
      Gh(K)           0.000000000000     0.000000000000     0.000000000000    38.963706486400
      Gh(O)           0.049226000000     2.701947000000    -1.155143000000    15.994914619570
      Gh(H)          -0.920606000000     2.740287000000    -1.218459000000     1.007825032230
      Gh(H)           0.456142000000     2.515712000000    -2.012420000000     1.007825032230
      Gh(O)          -1.447501000000    -0.454706000000     2.173556000000    15.994914619570
      Gh(H)          -1.986228000000    -1.035711000000     1.657750000000     1.007825032230
      Gh(H)          -1.199479000000    -0.982340000000     2.918186000000     1.007825032230
      Gh(O)           0.653369000000    -2.372660000000     1.490410000000    15.994914619570
      Gh(H)           0.618963000000    -2.151815000000     2.431321000000     1.007825032230
      Gh(H)           0.120151000000    -3.194488000000     1.363670000000     1.007825032230
      Gh(O)          -2.496333000000    -0.502934000000    -0.545027000000    15.994914619570
      Gh(H)          -2.174543000000    -1.006544000000    -1.289153000000     1.007825032230
      Gh(H)          -2.868617000000     0.221761000000    -1.038251000000     1.007825032230
         O            1.045807000000    -0.664263000000    -2.649852000000    15.994914619570
         H            0.737206000000    -0.257818000000    -3.449876000000     1.007825032230
         H            1.018814000000    -1.657837000000    -2.920530000000     1.007825032230
      Gh(O)           1.773374000000     1.100513000000     1.657986000000    15.994914619570
      Gh(H)           2.390244000000     1.790927000000     1.817412000000     1.007825032230
      Gh(H)           1.689360000000     0.544883000000     2.439841000000     1.007825032230

  Charge       = 0
  Multiplicity = 1
  Basis Set: AUG-CC-PVTZ
    Blend: AUG-CC-PVTZ
  Basis Set: (AUG-CC-PVTZ AUX)
    Blend: AUG-CC-PVTZ-JKFIT + DEF2-UNIVERSAL-JKFIT

    Orbital Energies [Eh]
    ---------------------

    Doubly Occupied:

       1A    -20.574095     2A     -1.341667     3A     -0.693816
       4A     -0.585608     5A     -0.509134

  @DF-RHF Final Energy:   -76.05356137700502

   => Energetics <=

    Nuclear Repulsion Energy =              8.9182658767361502
    One-Electron Energy =                -122.5350108308986705
    Two-Electron Energy =                  37.5631835771574885
    Total Energy =                        -76.0535613770050389
 Dipole X            :        -19.3479003           19.1287074           -0.2191930
 Dipole Y            :         13.2979067          -13.6622645           -0.3643577
 Dipole Z            :         51.4018769          -52.0982791           -0.6964021
 Magnitude           :                                                    0.8159522
  Basis Set: (AUG-CC-PVTZ AUX)
    Blend: AUG-CC-PVTZ-RI + DEF2-QZVPP-RI
	 Reference Energy          =     -76.0535613770050247 [Eh]
	 Singles Energy            =      -0.0000000000000000 [Eh]
	 Same-Spin Energy          =      -0.0690171575306939 [Eh]
	 Opposite-Spin Energy      =      -0.2175757845983559 [Eh]
	 Correlation Energy        =      -0.2865929421290498 [Eh]
	 Total Energy              =     -76.3401543191340721 [Eh]

	 ================> DF-SCS-MP2 Energies <==================
	-----------------------------------------------------------
	 SCS Same-Spin Scale       =       0.3333333333333333 [-]
	 SCS Opposite-Spin Scale   =       1.2000000000000000 [-]
	 SCS Same-Spin Energy      =      -0.0230057191768980 [Eh]
	 SCS Opposite-Spin Energy  =      -0.2610909415180271 [Eh]
	 SCS Correlation Energy    =      -0.2840966606949251 [Eh]
	 SCS Total Energy          =     -76.3376580376999527 [Eh]
	-----------------------------------------------------------

*** Psi4 exiting successfully. Buy a developer a beer!
