                               Psi4 1.9 release

  ==> Input File <==

--------------------------------------------------------------------------
MEMORY 60 GB

molecule dimer {
1 1
K          0.000000     0.000000     0.000000
Gh(O)      2.447443     0.085993    -0.685068
Gh(H)      2.680985    -0.837747    -0.449500
Gh(H)      2.829525     0.251364    -1.547070
Gh(O)     -0.233139     0.163157    -2.500787
Gh(H)     -0.170321     1.052496    -2.894868
Gh(H)     -0.081279    -0.518299    -3.176040
Gh(O)      0.572340    -2.370612     0.170271
Gh(H)      1.401491    -2.685494    -0.138462
Gh(H)      0.365707    -2.920483     0.932021
Gh(O)     -1.422337    -0.715469     2.174589
Gh(H)     -1.861433     0.134559     2.211240
Gh(H)     -0.761789    -0.679178     2.924485
Gh(O)     -0.712298     2.966230    -0.259699
Gh(H)     -1.087339     3.581553    -0.884928
Gh(H)      0.231785     2.928736    -0.444753

units ang
no_reorient
no_com
symmetry c1
}

set {
basis        aug-cc-pVTZ
scf_type     df
}

energy("mp2")
--------------------------------------------------------------------------

    Molecular point group: c1

    Geometry (in Angstrom), charge = 1, multiplicity = 1:

       Center              X                  Y                   Z               Mass
    ------------   -----------------  -----------------  -----------------  -----------------
         K            0.000000000000     0.000000000000     0.000000000000    38.963706486400
      Gh(O)           2.447443000000     0.085993000000    -0.685068000000    15.994914619570
      Gh(H)           2.680985000000    -0.837747000000    -0.449500000000     1.007825032230
      Gh(H)           2.829525000000     0.251364000000    -1.547070000000     1.007825032230
      Gh(O)          -0.233139000000     0.163157000000    -2.500787000000    15.994914619570
      Gh(H)          -0.170321000000     1.052496000000    -2.894868000000     1.007825032230
      Gh(H)          -0.081279000000    -0.518299000000    -3.176040000000     1.007825032230
      Gh(O)           0.572340000000    -2.370612000000     0.170271000000    15.994914619570
      Gh(H)           1.401491000000    -2.685494000000    -0.138462000000     1.007825032230
      Gh(H)           0.365707000000    -2.920483000000     0.932021000000     1.007825032230
      Gh(O)          -1.422337000000    -0.715469000000     2.174589000000    15.994914619570
      Gh(H)          -1.861433000000     0.134559000000     2.211240000000     1.007825032230
      Gh(H)          -0.761789000000    -0.679178000000     2.924485000000     1.007825032230
      Gh(O)          -0.712298000000     2.966230000000    -0.259699000000    15.994914619570
      Gh(H)          -1.087339000000     3.581553000000    -0.884928000000     1.007825032230
      Gh(H)           0.231785000000     2.928736000000    -0.444753000000     1.007825032230

  Charge       = 1
  Multiplicity = 1
  Basis Set: AUG-CC-PVTZ
    Blend: AUG-CC-PVTZ
  Basis Set: (AUG-CC-PVTZ AUX)
    Blend: AUG-CC-PVTZ-JKFIT + DEF2-UNIVERSAL-JKFIT

    Orbital Energies [Eh]
    ---------------------

    Doubly Occupied:

       1A   -133.752439     2A    -14.708156     3A    -11.738215
       4A    -11.738215     5A    -11.738214     6A     -1.963871
       7A     -1.170590     8A     -1.170586     9A     -1.170555

  @DF-RHF Final Energy:  -599.01751664347375

   => Energetics <=

    Nuclear Repulsion Energy =              0.0000000000000000
    One-Electron Energy =                -819.7333527801292803
    Two-Electron Energy =                 220.7158361366554686
    Total Energy =                       -599.0175166434737548
 Dipole X            :          0.0001112            0.0000000            0.0001112
 Dipole Y            :         -0.0000720            0.0000000           -0.0000720
 Dipole Z            :         -0.0001104            0.0000000           -0.0001104
 Magnitude           :                                                    0.0001724
  Basis Set: (AUG-CC-PVTZ AUX)
    Blend: AUG-CC-PVTZ-RI + DEF2-QZVPP-RI
	 Reference Energy          =    -599.0175166434737548 [Eh]
	 Singles Energy            =      -0.0000000000000000 [Eh]
	 Same-Spin Energy          =      -0.0389321778869494 [Eh]
	 Opposite-Spin Energy      =      -0.0956774001654556 [Eh]
	 Correlation Energy        =      -0.1346095780524050 [Eh]
	 Total Energy              =    -599.1521262215261459 [Eh]

	 ================> DF-SCS-MP2 Energies <==================
	-----------------------------------------------------------
	 SCS Same-Spin Scale       =       0.3333333333333333 [-]
	 SCS Opposite-Spin Scale   =       1.2000000000000000 [-]
	 SCS Same-Spin Energy      =      -0.0129773926289831 [Eh]
	 SCS Opposite-Spin Energy  =      -0.1148128801985468 [Eh]
	 SCS Correlation Energy    =      -0.1277902728275299 [Eh]
	 SCS Total Energy          =    -599.1453069163012515 [Eh]
	-----------------------------------------------------------

*** Psi4 exiting successfully. Buy a developer a beer!
