                               Psi4 1.9 release

  ==> Input File <==

--------------------------------------------------------------------------
MEMORY 60 GB

molecule dimer {
0 1
Gh(K)      0.000000     0.000000     0.000000
O          0.309615    -2.623382    -1.550755
H          0.073529    -3.411695    -2.042004
H          0.732044    -2.924054    -0.731434
Gh(O)     -2.529295     1.007717     0.149432
Gh(H)     -3.031134     1.319525    -0.599291
Gh(H)     -2.665484     0.041905     0.322961
Gh(O)      1.728418     1.676356     0.611770
Gh(H)      1.306700     2.209773     1.232986
Gh(H)      2.018027     2.273752    -0.126886
Gh(O)      0.635505    -0.312124     2.701636
Gh(H)     -0.164451    -0.813360     3.054926
Gh(H)      0.947635     0.214693     3.417860
Gh(O)      0.007774     0.682534    -2.427733
Gh(H)     -0.877989     0.809481    -2.864264
Gh(H)      0.577915     0.435714    -3.144891

units ang
no_reorient
no_com
symmetry c1
}

set {
basis        aug-cc-pVTZ
scf_type     df
}

energy("mp2")
--------------------------------------------------------------------------

    Molecular point group: c1

    Geometry (in Angstrom), charge = 0, multiplicity = 1:

       Center              X                  Y                   Z               Mass
    ------------   -----------------  -----------------  -----------------  -----------------
      Gh(K)           0.000000000000     0.000000000000     0.000000000000    38.963706486400
         O            0.309615000000    -2.623382000000    -1.550755000000    15.994914619570
         H            0.073529000000    -3.411695000000    -2.042004000000     1.007825032230
         H            0.732044000000    -2.924054000000    -0.731434000000     1.007825032230
      Gh(O)          -2.529295000000     1.007717000000     0.149432000000    15.994914619570
      Gh(H)          -3.031134000000     1.319525000000    -0.599291000000     1.007825032230
      Gh(H)          -2.665484000000     0.041905000000     0.322961000000     1.007825032230
      Gh(O)           1.728418000000     1.676356000000     0.611770000000    15.994914619570
      Gh(H)           1.306700000000     2.209773000000     1.232986000000     1.007825032230
      Gh(H)           2.018027000000     2.273752000000    -0.126886000000     1.007825032230
      Gh(O)           0.635505000000    -0.312124000000     2.701636000000    15.994914619570
      Gh(H)          -0.164451000000    -0.813360000000     3.054926000000     1.007825032230
      Gh(H)           0.947635000000     0.214693000000     3.417860000000     1.007825032230
      Gh(O)           0.007774000000     0.682534000000    -2.427733000000    15.994914619570
      Gh(H)          -0.877989000000     0.809481000000    -2.864264000000     1.007825032230
      Gh(H)           0.577915000000     0.435714000000    -3.144891000000     1.007825032230

  Charge       = 0
  Multiplicity = 1
  Basis Set: AUG-CC-PVTZ
    Blend: AUG-CC-PVTZ
  Basis Set: (AUG-CC-PVTZ AUX)
    Blend: AUG-CC-PVTZ-JKFIT + DEF2-UNIVERSAL-JKFIT

    Orbital Energies [Eh]
    ---------------------

    Doubly Occupied:

       1A    -20.567403     2A     -1.348673     3A     -0.718041
       4A     -0.579590     5A     -0.509166

  @DF-RHF Final Energy:   -76.06005374141856

   => Energetics <=

    Nuclear Repulsion Energy =              9.1257315952622235
    One-Electron Energy =                -122.9258226134868437
    Two-Electron Energy =                  37.7400372768060706
    Total Energy =                        -76.0600537414185567
 Dipole X            :         -6.0794472            6.2030128            0.1235655
 Dipole Y            :         50.9058650          -51.6326184           -0.7267534
 Dipole Z            :         28.9022624          -28.6850561            0.2172062
 Magnitude           :                                                    0.7685164
  Basis Set: (AUG-CC-PVTZ AUX)
    Blend: AUG-CC-PVTZ-RI + DEF2-QZVPP-RI
	 Reference Energy          =     -76.0600537414185567 [Eh]
	 Singles Energy            =      -0.0000000000000000 [Eh]
	 Same-Spin Energy          =      -0.0684542225636290 [Eh]
	 Opposite-Spin Energy      =      -0.2157090541029927 [Eh]
	 Correlation Energy        =      -0.2841632766666216 [Eh]
	 Total Energy              =     -76.3442170180851747 [Eh]

	 ================> DF-SCS-MP2 Energies <==================
	-----------------------------------------------------------
	 SCS Same-Spin Scale       =       0.3333333333333333 [-]
	 SCS Opposite-Spin Scale   =       1.2000000000000000 [-]
	 SCS Same-Spin Energy      =      -0.0228180741878763 [Eh]
	 SCS Opposite-Spin Energy  =      -0.2588508649235912 [Eh]
	 SCS Correlation Energy    =      -0.2816689391114675 [Eh]
	 SCS Total Energy          =     -76.3417226805300260 [Eh]
	-----------------------------------------------------------

*** Psi4 exiting successfully. Buy a developer a beer!
