                               Psi4 1.9 release

  ==> Input File <==

--------------------------------------------------------------------------
MEMORY 60 GB

molecule dimer {
1 1
K          0.000000     0.000000     0.000000
Gh(O)     -2.324873    -1.404209    -0.719175
Gh(H)     -2.508892    -2.382152    -0.757465
Gh(H)     -3.103411    -1.007604    -0.391341
Gh(O)      0.928383    -2.282472     1.098452
Gh(H)      1.810797    -2.654173     1.272065
Gh(H)      0.418300    -2.312404     1.908116
Gh(O)      1.667709     2.265231     0.418502
Gh(H)      1.289449     2.964199     0.969759
Gh(H)      1.716548     2.696389    -0.446786

units ang
no_reorient
no_com
symmetry c1
}

set {
basis        aug-cc-pVTZ
scf_type     df
}

energy("mp2")
--------------------------------------------------------------------------

    Molecular point group: c1

    Geometry (in Angstrom), charge = 1, multiplicity = 1:

       Center              X                  Y                   Z               Mass
    ------------   -----------------  -----------------  -----------------  -----------------
         K            0.000000000000     0.000000000000     0.000000000000    38.963706486400
      Gh(O)          -2.324873000000    -1.404209000000    -0.719175000000    15.994914619570
      Gh(H)          -2.508892000000    -2.382152000000    -0.757465000000     1.007825032230
      Gh(H)          -3.103411000000    -1.007604000000    -0.391341000000     1.007825032230
      Gh(O)           0.928383000000    -2.282472000000     1.098452000000    15.994914619570
      Gh(H)           1.810797000000    -2.654173000000     1.272065000000     1.007825032230
      Gh(H)           0.418300000000    -2.312404000000     1.908116000000     1.007825032230
      Gh(O)           1.667709000000     2.265231000000     0.418502000000    15.994914619570
      Gh(H)           1.289449000000     2.964199000000     0.969759000000     1.007825032230
      Gh(H)           1.716548000000     2.696389000000    -0.446786000000     1.007825032230

  Charge       = 1
  Multiplicity = 1
  Basis Set: AUG-CC-PVTZ
    Blend: AUG-CC-PVTZ
  Basis Set: (AUG-CC-PVTZ AUX)
    Blend: AUG-CC-PVTZ-JKFIT + DEF2-UNIVERSAL-JKFIT

    Orbital Energies [Eh]
    ---------------------

    Doubly Occupied:

       1A   -133.753137     2A    -14.708704     3A    -11.738769
       4A    -11.738767     5A    -11.738764     6A     -1.964116
       7A     -1.170805     8A     -1.170774     9A     -1.170714

  @DF-RHF Final Energy:  -599.01751245983735

   => Energetics <=

    Nuclear Repulsion Energy =              0.0000000000000000
    One-Electron Energy =                -819.7259281318478088
    Two-Electron Energy =                 220.7084156720105170
    Total Energy =                       -599.0175124598372349
 Dipole X            :          0.0000129            0.0000000            0.0000129
 Dipole Y            :         -0.0000792            0.0000000           -0.0000792
 Dipole Z            :          0.0001479            0.0000000            0.0001479
 Magnitude           :                                                    0.0001683
  Basis Set: (AUG-CC-PVTZ AUX)
    Blend: AUG-CC-PVTZ-RI + DEF2-QZVPP-RI
	 Reference Energy          =    -599.0175124598373486 [Eh]
	 Singles Energy            =      -0.0000000000000000 [Eh]
	 Same-Spin Energy          =      -0.0322902067890375 [Eh]
	 Opposite-Spin Energy      =      -0.0771706571205114 [Eh]
	 Correlation Energy        =      -0.1094608639095489 [Eh]
	 Total Energy              =    -599.1269733237469381 [Eh]

	 ================> DF-SCS-MP2 Energies <==================
	-----------------------------------------------------------
	 SCS Same-Spin Scale       =       0.3333333333333333 [-]
	 SCS Opposite-Spin Scale   =       1.2000000000000000 [-]
	 SCS Same-Spin Energy      =      -0.0107634022630125 [Eh]
	 SCS Opposite-Spin Energy  =      -0.0926047885446136 [Eh]
	 SCS Correlation Energy    =      -0.1033681908076261 [Eh]
	 SCS Total Energy          =    -599.1208806506449491 [Eh]
	-----------------------------------------------------------

*** Psi4 exiting successfully. Buy a developer a beer!
