                               Psi4 1.9 release

  ==> Input File <==

--------------------------------------------------------------------------
MEMORY 60 GB

molecule dimer {
1 1
K      0.000000     0.000000     0.000000
--
0 1
O      2.272527     0.834421     1.230172
H      3.156809     0.859433     1.570041
H      1.902975     1.732978     1.301596
O      0.185748     2.476480    -0.876487
H      0.842743     2.672524    -1.589365
H     -0.626338     3.014926    -1.032709
O     -2.131224    -1.837640     0.690354
H     -1.873645    -2.481649     0.070656
H     -3.071086    -1.700625     0.593753
O     -0.751067    -0.447311    -2.432427
H     -0.567099     0.174959    -3.128552
H     -1.309564    -1.096906    -2.897071
O     -0.308389    -1.371161     2.595177
H     -1.066393    -1.718449     2.157600
H     -0.406916    -1.685150     3.506362

units ang
no_reorient
no_com
symmetry c1
}

set {
basis        aug-cc-pVTZ
scf_type     df
}

energy("mp2", bsse_type="cp")
--------------------------------------------------------------------------

                               Psi4 1.9 release
    Molecular point group: c1
  Charge       = 0
  Multiplicity = 1
  Basis Set: AUG-CC-PVTZ
    Blend: AUG-CC-PVTZ
  Basis Set: (AUG-CC-PVTZ AUX)
    Blend: AUG-CC-PVTZ-JKFIT + DEF2-UNIVERSAL-JKFIT
  @DF-RHF Final Energy:  -380.28862269325629
    Total Energy =                       -380.2886226932562863
 Dipole X            :         15.6038010          -16.7765237           -1.1727227
 Dipole Y            :          5.9452437           -5.6496140            0.2956297
 Dipole Z            :        -20.7064007           19.2877221           -1.4186786
 Magnitude           :                                                    1.8642222
  Basis Set: (AUG-CC-PVTZ AUX)
    Blend: AUG-CC-PVTZ-RI + DEF2-QZVPP-RI
	 Reference Energy          =    -380.2886226932562863 [Eh]
	 Singles Energy            =      -0.0000000000000000 [Eh]
	 Same-Spin Energy          =      -0.3455482906971585 [Eh]
	 Opposite-Spin Energy      =      -1.0828661855724639 [Eh]
	 Correlation Energy        =      -1.4284144762696225 [Eh]
	 Total Energy              =    -381.7170371695258950 [Eh]
	 SCS Total Energy          =    -381.7032448795089863 [Eh]
                               Psi4 1.9 release
    Molecular point group: c1
  Multiplicity = 1
  Basis Set: AUG-CC-PVTZ
    Blend: AUG-CC-PVTZ
  Basis Set: (AUG-CC-PVTZ AUX)
    Blend: AUG-CC-PVTZ-JKFIT + DEF2-UNIVERSAL-JKFIT
  @DF-RHF Final Energy:  -599.01751575232981
    Total Energy =                       -599.0175157523298139
  Basis Set: (AUG-CC-PVTZ AUX)
	 Singles Energy            =      -0.0000000000000000 [Eh]
	 Same-Spin Energy          =      -0.0372740256720481 [Eh]
	 Opposite-Spin Energy      =      -0.0909801724668806 [Eh]
	 Correlation Energy        =      -0.1282541981389287 [Eh]
	 Total Energy              =    -599.1457699504687753 [Eh]
	 SCS Total Energy          =    -599.1391166345140391 [Eh]
                               Psi4 1.9 release
    Molecular point group: c1

    Geometry (in Bohr), charge = 1, multiplicity = 1:

       Center              X                  Y                   Z               Mass
    ------------   -----------------  -----------------  -----------------  -----------------
         K            0.000000000000     0.000000000000     0.000000000000    38.963706486400
         O            4.294453642708     1.576827163331     2.324688167207    15.994914619570
         H            5.965504440380     1.624092993181     2.966947495740     1.007825032230
         H            3.596101573593     3.274853801444     2.459659965991     1.007825032230
         O            0.351012848352     4.679868955174    -1.656320382524    15.994914619570
         H            1.592553464147     5.050338423713    -3.003464563388     1.007825032230
         H           -1.183607281967     5.697384428522    -1.951537177295     1.007825032230
         O           -4.027429672003    -3.472636317186     1.304579989614    15.994914619570
         H           -3.540675906333    -4.689636949516     0.133520489120     1.007825032230
         H           -5.803511447728    -3.213715492107     1.122030556169     1.007825032230
         O           -1.419310931869    -0.845295282905    -4.596620850169    15.994914619570
         H           -1.071661796021     0.330624593184    -5.912106449253     1.007825032230
         H           -2.474717303759    -2.072851925371    -5.474670756006     1.007825032230
         O           -0.582770750104    -2.591118763909     4.904173777087    15.994914619570
         H           -2.015190712105    -3.247397970567     4.077273088288     1.007825032230
         H           -0.768959796067    -3.184471980315     6.626063876713     1.007825032230

  Charge       = 1
  Multiplicity = 1
  Basis Set: AUG-CC-PVTZ
    Blend: AUG-CC-PVTZ
  Basis Set: (AUG-CC-PVTZ AUX)
    Blend: AUG-CC-PVTZ-JKFIT + DEF2-UNIVERSAL-JKFIT

    Orbital Energies [Eh]
    ---------------------

    Doubly Occupied:

       1A   -133.601793     2A    -20.728007     3A    -20.727151
       4A    -20.725515     5A    -20.692339     6A    -20.661194
       7A    -14.559813     8A    -11.589759     9A    -11.589622
      10A    -11.589517    11A     -1.823293    12A     -1.527996
      13A     -1.516149    14A     -1.497152    15A     -1.478841
      16A     -1.455096    17A     -1.035510    18A     -1.033503
      19A     -1.032386    20A     -0.897533    21A     -0.870790
      22A     -0.868560    23A     -0.850526    24A     -0.836987
      25A     -0.760906    26A     -0.743759    27A     -0.738606
      28A     -0.713622    29A     -0.695345    30A     -0.676498
      31A     -0.673013    32A     -0.668525    33A     -0.638521
      34A     -0.610911

  @DF-RHF Final Energy:  -979.39890207267854

   => Energetics <=

    Nuclear Repulsion Energy =            350.1127653945520137
    One-Electron Energy =               -2038.8058566578818045
    Two-Electron Energy =                 709.2941891906511955
    Total Energy =                       -979.3989020726785384
 Dipole X            :         15.5714698          -16.7765237           -1.2050539
 Dipole Y            :          6.0064624           -5.6496140            0.3568483
 Dipole Z            :        -20.7140547           19.2877221           -1.4263326
 Magnitude           :                                                    1.9010314
  Basis Set: (AUG-CC-PVTZ AUX)
    Blend: AUG-CC-PVTZ-RI + DEF2-QZVPP-RI
	 Reference Energy          =    -979.3989020726785384 [Eh]
	 Singles Energy            =      -0.0000000000000000 [Eh]
	 Same-Spin Energy          =      -0.3860263835196040 [Eh]
	 Opposite-Spin Energy      =      -1.1731503135639647 [Eh]
	 Correlation Energy        =      -1.5591766970835688 [Eh]
	 Total Energy              =    -980.9580787697620963 [Eh]

	 ================> DF-SCS-MP2 Energies <==================
	-----------------------------------------------------------
	 SCS Same-Spin Scale       =       0.3333333333333333 [-]
	 SCS Opposite-Spin Scale   =       1.2000000000000000 [-]
	 SCS Same-Spin Energy      =      -0.1286754611732013 [Eh]
	 SCS Opposite-Spin Energy  =      -1.4077803762767576 [Eh]
	 SCS Correlation Energy    =      -1.5364558374499588 [Eh]
	 SCS Total Energy          =    -980.9353579101284595 [Eh]
	-----------------------------------------------------------

*** Psi4 exiting successfully. Buy a developer a beer!
