                               Psi4 1.9 release

  ==> Input File <==

--------------------------------------------------------------------------
MEMORY 60 GB

molecule dimer {
1 1
K          0.000000     0.000000     0.000000
O          2.529918    -1.431771    -0.209555
H          3.170446    -0.706615    -0.323319
H          2.749458    -2.010204     0.519739
O          1.813586     1.029246     2.230508
H          1.419877     1.724132     2.765815
H          2.307126     1.578543     1.545356
O         -1.368704    -0.907145    -2.217904
H         -1.940339    -1.698694    -2.000603
H         -1.925491    -0.236454    -2.630828
O          1.146945     2.118489    -1.194320
H          1.871621     1.704285    -1.765925
H          1.593857     2.809076    -0.560670
O         -1.511741    -0.504052     2.510190
H         -2.151551    -1.120327     2.142254
H         -0.821208    -1.100007     2.922543

units ang
no_reorient
no_com
symmetry c1
}

set {
basis        aug-cc-pVTZ
scf_type     df
}

energy("mp2")
--------------------------------------------------------------------------

    Molecular point group: c1

    Geometry (in Angstrom), charge = 1, multiplicity = 1:

       Center              X                  Y                   Z               Mass
    ------------   -----------------  -----------------  -----------------  -----------------
         K            0.000000000000     0.000000000000     0.000000000000    38.963706486400
         O            2.529918000000    -1.431771000000    -0.209555000000    15.994914619570
         H            3.170446000000    -0.706615000000    -0.323319000000     1.007825032230
         H            2.749458000000    -2.010204000000     0.519739000000     1.007825032230
         O            1.813586000000     1.029246000000     2.230508000000    15.994914619570
         H            1.419877000000     1.724132000000     2.765815000000     1.007825032230
         H            2.307126000000     1.578543000000     1.545356000000     1.007825032230
         O           -1.368704000000    -0.907145000000    -2.217904000000    15.994914619570
         H           -1.940339000000    -1.698694000000    -2.000603000000     1.007825032230
         H           -1.925491000000    -0.236454000000    -2.630828000000     1.007825032230
         O            1.146945000000     2.118489000000    -1.194320000000    15.994914619570
         H            1.871621000000     1.704285000000    -1.765925000000     1.007825032230
         H            1.593857000000     2.809076000000    -0.560670000000     1.007825032230
         O           -1.511741000000    -0.504052000000     2.510190000000    15.994914619570
         H           -2.151551000000    -1.120327000000     2.142254000000     1.007825032230
         H           -0.821208000000    -1.100007000000     2.922543000000     1.007825032230

  Charge       = 1
  Multiplicity = 1
  Basis Set: AUG-CC-PVTZ
    Blend: AUG-CC-PVTZ
  Basis Set: (AUG-CC-PVTZ AUX)
    Blend: AUG-CC-PVTZ-JKFIT + DEF2-UNIVERSAL-JKFIT

    Orbital Energies [Eh]
    ---------------------

    Doubly Occupied:

       1A   -133.621118     2A    -20.739815     3A    -20.720294
       4A    -20.716965     5A    -20.713299     6A    -20.709483
       7A    -14.578537     8A    -11.608445     9A    -11.608416
      10A    -11.608323    11A     -1.840017    12A     -1.491771
      13A     -1.490306    14A     -1.489155    15A     -1.487048
      16A     -1.485788    17A     -1.050476    18A     -1.048995
      19A     -1.047401    20A     -0.874647    21A     -0.859767
      22A     -0.854049    23A     -0.845491    24A     -0.842896
      25A     -0.738192    26A     -0.734761    27A     -0.727889
      28A     -0.725770    29A     -0.717775    30A     -0.674491
      31A     -0.660641    32A     -0.657914    33A     -0.655156
      34A     -0.653585

  @DF-RHF Final Energy:  -979.36856594242340

   => Energetics <=

    Nuclear Repulsion Energy =            336.2880737312884776
    One-Electron Energy =               -2010.7559190411500367
    Two-Electron Energy =                 695.0992793674381574
    Total Energy =                       -979.3685659424234018
 Dipole X            :        -50.5007849           51.3132982            0.8125132
 Dipole Y            :         -6.1566318            6.3908100            0.2341782
 Dipole Z            :        -21.5971585           21.8560319            0.2588735
 Magnitude           :                                                    0.8843261
  Basis Set: (AUG-CC-PVTZ AUX)
    Blend: AUG-CC-PVTZ-RI + DEF2-QZVPP-RI
	 Reference Energy          =    -979.3685659424234018 [Eh]
	 Singles Energy            =      -0.0000000000000000 [Eh]
	 Same-Spin Energy          =      -0.3849140306828518 [Eh]
	 Opposite-Spin Energy      =      -1.1748424019686294 [Eh]
	 Correlation Energy        =      -1.5597564326514812 [Eh]
	 Total Energy              =    -980.9283223750749130 [Eh]

	 ================> DF-SCS-MP2 Energies <==================
	-----------------------------------------------------------
	 SCS Same-Spin Scale       =       0.3333333333333333 [-]
	 SCS Opposite-Spin Scale   =       1.2000000000000000 [-]
	 SCS Same-Spin Energy      =      -0.1283046768942839 [Eh]
	 SCS Opposite-Spin Energy  =      -1.4098108823623552 [Eh]
	 SCS Correlation Energy    =      -1.5381155592566391 [Eh]
	 SCS Total Energy          =    -980.9066815016800547 [Eh]
	-----------------------------------------------------------

*** Psi4 exiting successfully. Buy a developer a beer!
