                               Psi4 1.9 release

  ==> Input File <==

--------------------------------------------------------------------------
MEMORY 60 GB

molecule dimer {
0 1
Gh(K)      0.000000     0.000000     0.000000
Gh(O)      2.433312    -0.711261    -0.876073
Gh(H)      3.025721     0.045558    -0.738606
Gh(H)      2.646594    -0.978885    -1.800154
O          0.729442     2.374627     0.909651
H          1.436876     2.682600     1.537697
H          0.607664     3.130167     0.287856
Gh(O)     -0.423164    -2.596708     0.556853
Gh(H)     -0.086692    -3.420156     0.268816
Gh(H)     -0.158458    -2.540686     1.533756
Gh(O)     -2.766398    -1.080563     0.470208
Gh(H)     -2.207598    -1.857753     0.314154
Gh(H)     -3.672582    -1.339756     0.204091
Gh(O)     -0.915396    -1.287261    -2.285458
Gh(H)     -1.083095    -2.273539    -2.500910
Gh(H)     -0.460494    -0.980307    -3.123591

units ang
no_reorient
no_com
symmetry c1
}

set {
basis        aug-cc-pVTZ
scf_type     df
}

energy("mp2")
--------------------------------------------------------------------------

    Molecular point group: c1

    Geometry (in Angstrom), charge = 0, multiplicity = 1:

       Center              X                  Y                   Z               Mass
    ------------   -----------------  -----------------  -----------------  -----------------
      Gh(K)           0.000000000000     0.000000000000     0.000000000000    38.963706486400
      Gh(O)           2.433312000000    -0.711261000000    -0.876073000000    15.994914619570
      Gh(H)           3.025721000000     0.045558000000    -0.738606000000     1.007825032230
      Gh(H)           2.646594000000    -0.978885000000    -1.800154000000     1.007825032230
         O            0.729442000000     2.374627000000     0.909651000000    15.994914619570
         H            1.436876000000     2.682600000000     1.537697000000     1.007825032230
         H            0.607664000000     3.130167000000     0.287856000000     1.007825032230
      Gh(O)          -0.423164000000    -2.596708000000     0.556853000000    15.994914619570
      Gh(H)          -0.086692000000    -3.420156000000     0.268816000000     1.007825032230
      Gh(H)          -0.158458000000    -2.540686000000     1.533756000000     1.007825032230
      Gh(O)          -2.766398000000    -1.080563000000     0.470208000000    15.994914619570
      Gh(H)          -2.207598000000    -1.857753000000     0.314154000000     1.007825032230
      Gh(H)          -3.672582000000    -1.339756000000     0.204091000000     1.007825032230
      Gh(O)          -0.915396000000    -1.287261000000    -2.285458000000    15.994914619570
      Gh(H)          -1.083095000000    -2.273539000000    -2.500910000000     1.007825032230
      Gh(H)          -0.460494000000    -0.980307000000    -3.123591000000     1.007825032230

  Charge       = 0
  Multiplicity = 1
  Basis Set: AUG-CC-PVTZ
    Blend: AUG-CC-PVTZ
  Basis Set: (AUG-CC-PVTZ AUX)
    Blend: AUG-CC-PVTZ-JKFIT + DEF2-UNIVERSAL-JKFIT

    Orbital Energies [Eh]
    ---------------------

    Doubly Occupied:

       1A    -20.572869     2A     -1.337128     3A     -0.699751
       4A     -0.578719     5A     -0.507742

  @DF-RHF Final Energy:   -76.05645049611024

   => Energetics <=

    Nuclear Repulsion Energy =              8.8866543236338433
    One-Electron Energy =                -122.4937860014878765
    Two-Electron Energy =                  37.5506811817437693
    Total Energy =                        -76.0564504961102585
 Dipole X            :        -14.5106470           14.8911855            0.3805384
 Dipole Y            :        -46.1905327           46.8836951            0.6931624
 Dipole Z            :        -17.1987961           17.2017253            0.0029292
 Magnitude           :                                                    0.7907542
  Basis Set: (AUG-CC-PVTZ AUX)
    Blend: AUG-CC-PVTZ-RI + DEF2-QZVPP-RI
	 Reference Energy          =     -76.0564504961102443 [Eh]
	 Singles Energy            =      -0.0000000000000000 [Eh]
	 Same-Spin Energy          =      -0.0689622101735212 [Eh]
	 Opposite-Spin Energy      =      -0.2173075467866763 [Eh]
	 Correlation Energy        =      -0.2862697569601975 [Eh]
	 Total Energy              =     -76.3427202530704392 [Eh]

	 ================> DF-SCS-MP2 Energies <==================
	-----------------------------------------------------------
	 SCS Same-Spin Scale       =       0.3333333333333333 [-]
	 SCS Opposite-Spin Scale   =       1.2000000000000000 [-]
	 SCS Same-Spin Energy      =      -0.0229874033911737 [Eh]
	 SCS Opposite-Spin Energy  =      -0.2607690561440115 [Eh]
	 SCS Correlation Energy    =      -0.2837564595351852 [Eh]
	 SCS Total Energy          =     -76.3402069556454279 [Eh]
	-----------------------------------------------------------

*** Psi4 exiting successfully. Buy a developer a beer!
