                               Psi4 1.9 release

  ==> Input File <==

--------------------------------------------------------------------------
MEMORY 60 GB

molecule dimer {
1 1
K          0.000000     0.000000     0.000000
O         -0.783516    -1.726652    -2.324142
H         -0.445420    -2.452607    -2.906614
H         -1.685040    -1.971929    -2.112103
O         -1.927039     1.937313     0.043663
H         -2.389142     2.022854    -0.811322
H         -2.517278     1.567321     0.684851
O         -2.525078    -0.395205     1.459688
H         -3.459078    -0.500987     1.132919
H         -2.571024    -0.259444     2.424365
O          0.460553     2.520123    -1.287438
H          0.400227     3.147385    -0.553485
H         -0.048493     2.950684    -2.000751
O          2.234484    -1.510392    -1.101739
H          2.294983    -2.389683    -1.472288
H          3.130234    -1.125978    -1.166978
O          0.616844     0.643018     2.586690
H          1.504879     1.005239     2.404662
H          0.025962     1.431530     2.685422
O         -0.281188    -2.832605     0.143332
H          0.444960    -3.141684    -0.384431
H         -1.165527    -3.190720    -0.205701

units ang
no_reorient
no_com
symmetry c1
}

set {
basis        aug-cc-pVTZ
scf_type     df
}

energy("mp2")
--------------------------------------------------------------------------

    Molecular point group: c1

    Geometry (in Angstrom), charge = 1, multiplicity = 1:

       Center              X                  Y                   Z               Mass
    ------------   -----------------  -----------------  -----------------  -----------------
         K            0.000000000000     0.000000000000     0.000000000000    38.963706486400
         O           -0.783516000000    -1.726652000000    -2.324142000000    15.994914619570
         H           -0.445420000000    -2.452607000000    -2.906614000000     1.007825032230
         H           -1.685040000000    -1.971929000000    -2.112103000000     1.007825032230
         O           -1.927039000000     1.937313000000     0.043663000000    15.994914619570
         H           -2.389142000000     2.022854000000    -0.811322000000     1.007825032230
         H           -2.517278000000     1.567321000000     0.684851000000     1.007825032230
         O           -2.525078000000    -0.395205000000     1.459688000000    15.994914619570
         H           -3.459078000000    -0.500987000000     1.132919000000     1.007825032230
         H           -2.571024000000    -0.259444000000     2.424365000000     1.007825032230
         O            0.460553000000     2.520123000000    -1.287438000000    15.994914619570
         H            0.400227000000     3.147385000000    -0.553485000000     1.007825032230
         H           -0.048493000000     2.950684000000    -2.000751000000     1.007825032230
         O            2.234484000000    -1.510392000000    -1.101739000000    15.994914619570
         H            2.294983000000    -2.389683000000    -1.472288000000     1.007825032230
         H            3.130234000000    -1.125978000000    -1.166978000000     1.007825032230
         O            0.616844000000     0.643018000000     2.586690000000    15.994914619570
         H            1.504879000000     1.005239000000     2.404662000000     1.007825032230
         H            0.025962000000     1.431530000000     2.685422000000     1.007825032230
         O           -0.281188000000    -2.832605000000     0.143332000000    15.994914619570
         H            0.444960000000    -3.141684000000    -0.384431000000     1.007825032230
         H           -1.165527000000    -3.190720000000    -0.205701000000     1.007825032230

  Charge       = 1
  Multiplicity = 1
  Basis Set: AUG-CC-PVTZ
    Blend: AUG-CC-PVTZ
  Basis Set: (AUG-CC-PVTZ AUX)
    Blend: AUG-CC-PVTZ-JKFIT + DEF2-UNIVERSAL-JKFIT

    Orbital Energies [Eh]
    ---------------------

    Doubly Occupied:

       1A   -133.571650     2A    -20.714524     3A    -20.703224
       4A    -20.696497     5A    -20.696244     6A    -20.689748
       7A    -20.686442     8A    -20.679209     9A    -14.529396
      10A    -11.559342    11A    -11.559206    12A    -11.559144
      13A     -1.792135    14A     -1.489725    15A     -1.479707
      16A     -1.477649    17A     -1.476414    18A     -1.475893
      19A     -1.466132    20A     -1.451886    21A     -1.004160
      22A     -1.001631    23A     -1.000309    24A     -0.859115
      25A     -0.853877    26A     -0.852592    27A     -0.840692
      28A     -0.839108    29A     -0.828308    30A     -0.826505
      31A     -0.728461    32A     -0.720256    33A     -0.715008
      34A     -0.713040    35A     -0.711255    36A     -0.708199
      37A     -0.688139    38A     -0.661270    39A     -0.653515
      40A     -0.645256    41A     -0.640405    42A     -0.634282
      43A     -0.626411    44A     -0.606047

  @DF-RHF Final Energy: -1131.50694550957883

   => Energetics <=

    Nuclear Repulsion Energy =            571.6265394888011997
    One-Electron Energy =               -2690.0429482308973093
    Two-Electron Energy =                 986.9094632325171688
    Total Energy =                      -1131.5069455095785997
 Dipole X            :         44.1384306          -45.5788279           -1.4403973
 Dipole Y            :         25.8966689          -26.1220981           -0.2254292
 Dipole Z            :         10.7631440          -11.5670552           -0.8039112
 Magnitude           :                                                    1.6648831
  Basis Set: (AUG-CC-PVTZ AUX)
    Blend: AUG-CC-PVTZ-RI + DEF2-QZVPP-RI
	 Reference Energy          =   -1131.5069455095788271 [Eh]
	 Singles Energy            =      -0.0000000000000000 [Eh]
	 Same-Spin Energy          =      -0.5298938800600521 [Eh]
	 Opposite-Spin Energy      =      -1.6198779241266124 [Eh]
	 Correlation Energy        =      -2.1497718041866642 [Eh]
	 Total Energy              =   -1133.6567173137655118 [Eh]

	 ================> DF-SCS-MP2 Energies <==================
	-----------------------------------------------------------
	 SCS Same-Spin Scale       =       0.3333333333333333 [-]
	 SCS Opposite-Spin Scale   =       1.2000000000000000 [-]
	 SCS Same-Spin Energy      =      -0.1766312933533507 [Eh]
	 SCS Opposite-Spin Energy  =      -1.9438535089519346 [Eh]
	 SCS Correlation Energy    =      -2.1204848023052856 [Eh]
	 SCS Total Energy          =   -1133.6274303118841544 [Eh]
	-----------------------------------------------------------

*** Psi4 exiting successfully. Buy a developer a beer!
