                               Psi4 1.9 release

  ==> Input File <==

--------------------------------------------------------------------------
MEMORY 60 GB

molecule dimer {
1 1
K      0.000000     0.000000     0.000000
--
0 1
O     -1.333192     2.296700    -0.143276
H     -1.880572     2.324349     0.647278
H     -0.939747     3.150442    -0.123998
O      1.513983    -2.323742    -0.943847
H      2.366267    -2.226553    -1.343372
H      0.936856    -2.841776    -1.569285
O     -2.132906    -0.990787    -1.068623
H     -2.264157    -1.131510    -1.972940
H     -2.972426    -0.581761    -0.773426
O     -1.301569    -1.185610     1.910969
H     -1.209146    -1.149223     2.904024
H     -2.251409    -1.284523     1.765089
O     -0.090714     1.371623     2.527585
H      0.344682     2.259132     2.564693
H     -0.971008     1.365010     2.948526
O      1.429543     1.188070    -2.089276
H      2.048565     0.859537    -2.779898
H      1.883227     1.964633    -1.731157

units ang
no_reorient
no_com
symmetry c1
}

set {
basis        aug-cc-pVTZ
scf_type     df
}

energy("mp2", bsse_type="cp")
--------------------------------------------------------------------------

                               Psi4 1.9 release
    Molecular point group: c1
  Charge       = 0
  Multiplicity = 1
  Basis Set: AUG-CC-PVTZ
    Blend: AUG-CC-PVTZ
  Basis Set: (AUG-CC-PVTZ AUX)
    Blend: AUG-CC-PVTZ-JKFIT + DEF2-UNIVERSAL-JKFIT
  @DF-RHF Final Energy:  -456.32046896936981
    Total Energy =                       -456.3204689693698128
 Dipole X            :         37.6497020          -38.2248283           -0.5751262
 Dipole Y            :         -9.2662641           10.5026991            1.2364350
 Dipole Z            :         -3.9267206            3.9377924            0.0110718
 Magnitude           :                                                    1.3636951
  Basis Set: (AUG-CC-PVTZ AUX)
    Blend: AUG-CC-PVTZ-RI + DEF2-QZVPP-RI
	 Reference Energy          =    -456.3204689693698128 [Eh]
	 Singles Energy            =      -0.0000000000000000 [Eh]
	 Same-Spin Energy          =      -0.4152597594347216 [Eh]
	 Opposite-Spin Energy      =      -1.3028106210280899 [Eh]
	 Correlation Energy        =      -1.7180703804628115 [Eh]
	 Total Energy              =    -458.0385393498326039 [Eh]
	 SCS Total Energy          =    -458.0222616344150879 [Eh]
                               Psi4 1.9 release
    Molecular point group: c1
  Multiplicity = 1
  Basis Set: AUG-CC-PVTZ
    Blend: AUG-CC-PVTZ
  Basis Set: (AUG-CC-PVTZ AUX)
    Blend: AUG-CC-PVTZ-JKFIT + DEF2-UNIVERSAL-JKFIT
  @DF-RHF Final Energy:  -599.01751711298323
    Total Energy =                       -599.0175171129831142
  Basis Set: (AUG-CC-PVTZ AUX)
	 Singles Energy            =      -0.0000000000000000 [Eh]
	 Same-Spin Energy          =      -0.0388104797996500 [Eh]
	 Opposite-Spin Energy      =      -0.0952546526354354 [Eh]
	 Correlation Energy        =      -0.1340651324350853 [Eh]
	 Total Energy              =    -599.1515822454183535 [Eh]
	 SCS Total Energy          =    -599.1447595227456304 [Eh]
                               Psi4 1.9 release
    Molecular point group: c1

    Geometry (in Bohr), charge = 1, multiplicity = 1:

       Center              X                  Y                   Z               Mass
    ------------   -----------------  -----------------  -----------------  -----------------
         K            0.000000000000     0.000000000000     0.000000000000    38.963706486400
         O           -2.519367752651     4.340133992339    -0.270752400351    15.994914619570
         H           -3.553766039204     4.392383029982     1.223178147034     1.007825032230
         H           -1.775864457221     5.953472554140    -0.234322260105     1.007825032230
         O            2.861013228599    -4.391235966224    -1.783612334335    15.994914619570
         H            4.471596569709    -4.207575373817    -2.538605164609     1.007825032230
         H            1.770401258992    -5.370178349899    -2.965518862789     1.007825032230
         O           -4.030608191346    -1.872316078664    -2.019404801365    15.994914619570
         H           -4.278636635038    -2.138244008217    -3.728316261961     1.007825032230
         H           -5.617071068190    -1.099368960472    -1.461563318308     1.007825032230
         O           -2.459608943386    -2.240478191604     3.611208044240    15.994914619570
         H           -2.284954785693    -2.171716727077     5.487810021757     1.007825032230
         H           -4.254546406391    -2.427396671851     3.335534797058     1.007825032230
         O           -0.171424615745     2.591991817379     4.776443408815    15.994914619570
         H            0.651354580375     4.269140761258     4.846567365879     1.007825032230
         H           -1.834939185629     2.579495058511     5.571906613792     1.007825032230
         O            2.701444754565     2.245126917873    -3.948159440492    15.994914619570
         H            3.871226800199     1.624289524698    -5.253245876708     1.007825032230
         H            3.558783262068     3.712618307037    -3.271412610169     1.007825032230

  Charge       = 1
  Multiplicity = 1
  Basis Set: AUG-CC-PVTZ
    Blend: AUG-CC-PVTZ
  Basis Set: (AUG-CC-PVTZ AUX)
    Blend: AUG-CC-PVTZ-JKFIT + DEF2-UNIVERSAL-JKFIT

    Orbital Energies [Eh]
    ---------------------

    Doubly Occupied:

       1A   -133.563129     2A    -20.705553     3A    -20.705152
       4A    -20.704365     5A    -20.703332     6A    -20.703154
       7A    -20.687079     8A    -14.521671     9A    -11.551503
      10A    -11.551398    11A    -11.551370    12A     -1.787107
      13A     -1.502092    14A     -1.500712    15A     -1.480944
      16A     -1.480016    17A     -1.475071    18A     -1.465586
      19A     -1.000968    20A     -0.997806    21A     -0.997574
      22A     -0.863536    23A     -0.861541    24A     -0.855272
      25A     -0.840083    26A     -0.836938    27A     -0.836656
      28A     -0.739191    29A     -0.736000    30A     -0.725518
      31A     -0.719205    32A     -0.708176    33A     -0.699970
      34A     -0.666356    35A     -0.655327    36A     -0.646524
      37A     -0.644707    38A     -0.637200    39A     -0.629866

  @DF-RHF Final Energy: -1055.45548195342258

   => Energetics <=

    Nuclear Repulsion Energy =            461.1791687642217994
    One-Electron Energy =               -2365.3939954801921886
    Two-Electron Energy =                 848.7593447625479257
    Total Energy =                      -1055.4554819534225771
 Dipole X            :         37.3845145          -38.2248283           -0.8403137
 Dipole Y            :         -9.2067041           10.5026991            1.2959950
 Dipole Z            :         -3.8993352            3.9377924            0.0384572
 Magnitude           :                                                    1.5450596
  Basis Set: (AUG-CC-PVTZ AUX)
    Blend: AUG-CC-PVTZ-RI + DEF2-QZVPP-RI
	 Reference Energy          =   -1055.4554819534225771 [Eh]
	 Singles Energy            =      -0.0000000000000000 [Eh]
	 Same-Spin Energy          =      -0.4578695817302622 [Eh]
	 Opposite-Spin Energy      =      -1.3968194826116531 [Eh]
	 Correlation Energy        =      -1.8546890643419154 [Eh]
	 Total Energy              =   -1057.3101710177645600 [Eh]

	 ================> DF-SCS-MP2 Energies <==================
	-----------------------------------------------------------
	 SCS Same-Spin Scale       =       0.3333333333333333 [-]
	 SCS Opposite-Spin Scale   =       1.2000000000000000 [-]
	 SCS Same-Spin Energy      =      -0.1526231939100874 [Eh]
	 SCS Opposite-Spin Energy  =      -1.6761833791339837 [Eh]
	 SCS Correlation Energy    =      -1.8288065730440710 [Eh]
	 SCS Total Energy          =   -1057.2842885264667530 [Eh]
	-----------------------------------------------------------

*** Psi4 exiting successfully. Buy a developer a beer!
