                               Psi4 1.9 release

  ==> Input File <==

--------------------------------------------------------------------------
MEMORY 60 GB

molecule dimer {
1 1
K          0.000000     0.000000     0.000000
Gh(O)      1.998788    -1.892981    -1.275619
Gh(H)      1.360295    -2.129853    -1.967743
Gh(H)      2.785721    -1.689378    -1.859302
Gh(O)     -2.305916    -0.575904    -1.423238
Gh(H)     -2.524150    -0.535467    -2.347313
Gh(H)     -1.974768    -1.476719    -1.203696
Gh(O)     -1.216902     2.172280     0.900711
Gh(H)     -1.602851     1.834558     1.691032
Gh(H)     -0.956919     3.082716     1.081943
Gh(O)      1.514527    -2.061471     1.508858
Gh(H)      1.933106    -2.366114     0.691556
Gh(H)      0.944965    -2.736547     1.833539
Gh(O)      2.272850     0.840728     1.315721
Gh(H)      2.977124     0.173544     1.188519
Gh(H)      2.679249     1.703018     1.056976
Gh(O)      0.901593     1.890982    -1.438276
Gh(H)      1.107019     2.546113    -0.725155
Gh(H)      0.579848     2.387877    -2.155061

units ang
no_reorient
no_com
symmetry c1
}

set {
basis        aug-cc-pVTZ
scf_type     df
}

energy("mp2")
--------------------------------------------------------------------------

    Molecular point group: c1

    Geometry (in Angstrom), charge = 1, multiplicity = 1:

       Center              X                  Y                   Z               Mass
    ------------   -----------------  -----------------  -----------------  -----------------
         K            0.000000000000     0.000000000000     0.000000000000    38.963706486400
      Gh(O)           1.998788000000    -1.892981000000    -1.275619000000    15.994914619570
      Gh(H)           1.360295000000    -2.129853000000    -1.967743000000     1.007825032230
      Gh(H)           2.785721000000    -1.689378000000    -1.859302000000     1.007825032230
      Gh(O)          -2.305916000000    -0.575904000000    -1.423238000000    15.994914619570
      Gh(H)          -2.524150000000    -0.535467000000    -2.347313000000     1.007825032230
      Gh(H)          -1.974768000000    -1.476719000000    -1.203696000000     1.007825032230
      Gh(O)          -1.216902000000     2.172280000000     0.900711000000    15.994914619570
      Gh(H)          -1.602851000000     1.834558000000     1.691032000000     1.007825032230
      Gh(H)          -0.956919000000     3.082716000000     1.081943000000     1.007825032230
      Gh(O)           1.514527000000    -2.061471000000     1.508858000000    15.994914619570
      Gh(H)           1.933106000000    -2.366114000000     0.691556000000     1.007825032230
      Gh(H)           0.944965000000    -2.736547000000     1.833539000000     1.007825032230
      Gh(O)           2.272850000000     0.840728000000     1.315721000000    15.994914619570
      Gh(H)           2.977124000000     0.173544000000     1.188519000000     1.007825032230
      Gh(H)           2.679249000000     1.703018000000     1.056976000000     1.007825032230
      Gh(O)           0.901593000000     1.890982000000    -1.438276000000    15.994914619570
      Gh(H)           1.107019000000     2.546113000000    -0.725155000000     1.007825032230
      Gh(H)           0.579848000000     2.387877000000    -2.155061000000     1.007825032230

  Charge       = 1
  Multiplicity = 1
  Basis Set: AUG-CC-PVTZ
    Blend: AUG-CC-PVTZ
  Basis Set: (AUG-CC-PVTZ AUX)
    Blend: AUG-CC-PVTZ-JKFIT + DEF2-UNIVERSAL-JKFIT

    Orbital Energies [Eh]
    ---------------------

    Doubly Occupied:

       1A   -133.752435     2A    -14.708151     3A    -11.738211
       4A    -11.738210     5A    -11.738208     6A     -1.963865
       7A     -1.170579     8A     -1.170575     9A     -1.170559

  @DF-RHF Final Energy:  -599.01751705867241

   => Energetics <=

    Nuclear Repulsion Energy =              0.0000000000000000
    One-Electron Energy =                -819.7334458043463883
    Two-Electron Energy =                 220.7159287456740060
    Total Energy =                       -599.0175170586724107
 Dipole X            :          0.0001274            0.0000000            0.0001274
 Dipole Y            :          0.0001058            0.0000000            0.0001058
 Dipole Z            :         -0.0000551            0.0000000           -0.0000551
 Magnitude           :                                                    0.0001745
  Basis Set: (AUG-CC-PVTZ AUX)
    Blend: AUG-CC-PVTZ-RI + DEF2-QZVPP-RI
	 Reference Energy          =    -599.0175170586724107 [Eh]
	 Singles Energy            =      -0.0000000000000000 [Eh]
	 Same-Spin Energy          =      -0.0389439310265103 [Eh]
	 Opposite-Spin Energy      =      -0.0956600300013108 [Eh]
	 Correlation Energy        =      -0.1346039610278211 [Eh]
	 Total Energy              =    -599.1521210197001892 [Eh]

	 ================> DF-SCS-MP2 Energies <==================
	-----------------------------------------------------------
	 SCS Same-Spin Scale       =       0.3333333333333333 [-]
	 SCS Opposite-Spin Scale   =       1.2000000000000000 [-]
	 SCS Same-Spin Energy      =      -0.0129813103421701 [Eh]
	 SCS Opposite-Spin Energy  =      -0.1147920360015730 [Eh]
	 SCS Correlation Energy    =      -0.1277733463437430 [Eh]
	 SCS Total Energy          =    -599.1452904050161123 [Eh]
	-----------------------------------------------------------

*** Psi4 exiting successfully. Buy a developer a beer!
