                               Psi4 1.9 release

  ==> Input File <==

--------------------------------------------------------------------------
MEMORY 60 GB

molecule dimer {
1 1
K          0.000000     0.000000     0.000000
O         -0.158022     2.608578     1.147004
H          0.778541     2.831193     1.130168
H         -0.228366     2.308447     2.057572
O         -1.767346    -2.230905    -0.785771
H         -2.087801    -2.169927    -1.696826
H         -2.527003    -2.096316    -0.221399
O          1.439540    -2.376480     1.228611
H          1.067889    -2.424152     2.106189
H          1.986049    -1.618527     1.188671
O         -1.986305     0.233870     1.438597
H         -1.622188     0.473677     2.306353
H         -2.457775    -0.572894     1.536495
O          2.680467     0.114131     1.167824
H          3.575436    -0.195890     1.157789
H          2.770527     1.065655     1.118983
O          1.234135    -0.006082    -2.458831
H          1.742476     0.690149    -2.804107
H          0.474861     0.027884    -3.034969

units ang
no_reorient
no_com
symmetry c1
}

set {
basis        aug-cc-pVTZ
scf_type     df
}

energy("mp2")
--------------------------------------------------------------------------

    Molecular point group: c1

    Geometry (in Angstrom), charge = 1, multiplicity = 1:

       Center              X                  Y                   Z               Mass
    ------------   -----------------  -----------------  -----------------  -----------------
         K            0.000000000000     0.000000000000     0.000000000000    38.963706486400
         O           -0.158022000000     2.608578000000     1.147004000000    15.994914619570
         H            0.778541000000     2.831193000000     1.130168000000     1.007825032230
         H           -0.228366000000     2.308447000000     2.057572000000     1.007825032230
         O           -1.767346000000    -2.230905000000    -0.785771000000    15.994914619570
         H           -2.087801000000    -2.169927000000    -1.696826000000     1.007825032230
         H           -2.527003000000    -2.096316000000    -0.221399000000     1.007825032230
         O            1.439540000000    -2.376480000000     1.228611000000    15.994914619570
         H            1.067889000000    -2.424152000000     2.106189000000     1.007825032230
         H            1.986049000000    -1.618527000000     1.188671000000     1.007825032230
         O           -1.986305000000     0.233870000000     1.438597000000    15.994914619570
         H           -1.622188000000     0.473677000000     2.306353000000     1.007825032230
         H           -2.457775000000    -0.572894000000     1.536495000000     1.007825032230
         O            2.680467000000     0.114131000000     1.167824000000    15.994914619570
         H            3.575436000000    -0.195890000000     1.157789000000     1.007825032230
         H            2.770527000000     1.065655000000     1.118983000000     1.007825032230
         O            1.234135000000    -0.006082000000    -2.458831000000    15.994914619570
         H            1.742476000000     0.690149000000    -2.804107000000     1.007825032230
         H            0.474861000000     0.027884000000    -3.034969000000     1.007825032230

  Charge       = 1
  Multiplicity = 1
  Basis Set: AUG-CC-PVTZ
    Blend: AUG-CC-PVTZ
  Basis Set: (AUG-CC-PVTZ AUX)
    Blend: AUG-CC-PVTZ-JKFIT + DEF2-UNIVERSAL-JKFIT

    Orbital Energies [Eh]
    ---------------------

    Doubly Occupied:

       1A   -133.603708     2A    -20.736863     3A    -20.729135
       4A    -20.727836     5A    -20.710372     6A    -20.703692
       7A    -20.670363     8A    -14.562029     9A    -11.591900
      10A    -11.591790    11A    -11.591695    12A     -1.826710
      13A     -1.533252    14A     -1.524849    15A     -1.514612
      16A     -1.512474    17A     -1.488206    18A     -1.468880
      19A     -1.039131    20A     -1.038081    21A     -1.034592
      22A     -0.899211    23A     -0.897957    24A     -0.865064
      25A     -0.861495    26A     -0.855731    27A     -0.847807
      28A     -0.768815    29A     -0.757246    30A     -0.748639
      31A     -0.744858    32A     -0.719995    33A     -0.689760
      34A     -0.683114    35A     -0.681694    36A     -0.672197
      37A     -0.661651    38A     -0.648945    39A     -0.622184

  @DF-RHF Final Energy: -1055.44036240826676

   => Energetics <=

    Nuclear Repulsion Energy =            455.2653645482321849
    One-Electron Energy =               -2351.7583765404565384
    Two-Electron Energy =                 841.0526495839577592
    Total Energy =                      -1055.4403624082665374
 Dipole X            :        -27.8968533           28.3693207            0.4724674
 Dipole Y            :         29.3565487          -28.2245809            1.1319678
 Dipole Z            :        -34.5256151           35.4217654            0.8961503
 Magnitude           :                                                    1.5190990
  Basis Set: (AUG-CC-PVTZ AUX)
    Blend: AUG-CC-PVTZ-RI + DEF2-QZVPP-RI
	 Reference Energy          =   -1055.4403624082667648 [Eh]
	 Singles Energy            =      -0.0000000000000000 [Eh]
	 Same-Spin Energy          =      -0.4563382106086491 [Eh]
	 Opposite-Spin Energy      =      -1.3925990911371304 [Eh]
	 Correlation Energy        =      -1.8489373017457795 [Eh]
	 Total Energy              =   -1057.2892997100125285 [Eh]

	 ================> DF-SCS-MP2 Energies <==================
	-----------------------------------------------------------
	 SCS Same-Spin Scale       =       0.3333333333333333 [-]
	 SCS Opposite-Spin Scale   =       1.2000000000000000 [-]
	 SCS Same-Spin Energy      =      -0.1521127368695497 [Eh]
	 SCS Opposite-Spin Energy  =      -1.6711189093645564 [Eh]
	 SCS Correlation Energy    =      -1.8232316462341061 [Eh]
	 SCS Total Energy          =   -1057.2635940545007998 [Eh]
	-----------------------------------------------------------

*** Psi4 exiting successfully. Buy a developer a beer!
