                               Psi4 1.9 release

  ==> Input File <==

--------------------------------------------------------------------------
MEMORY 60 GB

molecule dimer {
1 1
K      0.000000     0.000000     0.000000
--
0 1
O      0.118696    -2.770459     0.076879
H     -0.333969    -3.135341     0.830822
H      0.982084    -3.221411     0.111931
O      1.379726    -1.154328    -2.080253
H      2.056706    -1.833961    -2.058727
H      1.169543    -1.009891    -3.018870
O      2.724284     0.265425     0.841619
H      3.242030     1.067792     0.900161
H      2.990826    -0.377309     1.498758
O     -2.881305     0.223588     0.845452
H     -3.728837     0.040709     1.280940
H     -2.877352     1.133782     1.077537
O      0.197582     1.855176     2.126719
H     -0.684460     2.355019     2.158041
H      0.495535     1.708267     3.013621
O     -1.133798     2.421734    -1.164227
H     -0.805925     2.041723    -2.060813
H     -2.117470     2.513113    -1.178015

units ang
no_reorient
no_com
symmetry c1
}

set {
basis        aug-cc-pVTZ
scf_type     df
}

energy("mp2", bsse_type="cp")
--------------------------------------------------------------------------

                               Psi4 1.9 release
    Molecular point group: c1
  Charge       = 0
  Multiplicity = 1
  Basis Set: AUG-CC-PVTZ
    Blend: AUG-CC-PVTZ
  Basis Set: (AUG-CC-PVTZ AUX)
    Blend: AUG-CC-PVTZ-JKFIT + DEF2-UNIVERSAL-JKFIT
  @DF-RHF Final Energy:  -456.32010485410592
    Total Energy =                       -456.3201048541059208
 Dipole X            :         -7.1104549            6.8600668           -0.2503881
 Dipole Y            :        -15.4101960           15.1396920           -0.2705039
 Dipole Z            :        -13.8182412           14.5979416            0.7797003
 Magnitude           :                                                    0.8624380
  Basis Set: (AUG-CC-PVTZ AUX)
    Blend: AUG-CC-PVTZ-RI + DEF2-QZVPP-RI
	 Reference Energy          =    -456.3201048541059208 [Eh]
	 Singles Energy            =      -0.0000000000000000 [Eh]
	 Same-Spin Energy          =      -0.4147456536657851 [Eh]
	 Opposite-Spin Energy      =      -1.3023263766334736 [Eh]
	 Correlation Energy        =      -1.7170720302992588 [Eh]
	 Total Energy              =    -458.0371768844051985 [Eh]
	 SCS Total Energy          =    -458.0211450572880381 [Eh]
                               Psi4 1.9 release
    Molecular point group: c1
  Multiplicity = 1
  Basis Set: AUG-CC-PVTZ
    Blend: AUG-CC-PVTZ
  Basis Set: (AUG-CC-PVTZ AUX)
    Blend: AUG-CC-PVTZ-JKFIT + DEF2-UNIVERSAL-JKFIT
  @DF-RHF Final Energy:  -599.01751655403166
    Total Energy =                       -599.0175165540316584
  Basis Set: (AUG-CC-PVTZ AUX)
	 Singles Energy            =      -0.0000000000000000 [Eh]
	 Same-Spin Energy          =      -0.0375161846185664 [Eh]
	 Opposite-Spin Energy      =      -0.0914716252696018 [Eh]
	 Correlation Energy        =      -0.1289878098881682 [Eh]
	 Total Energy              =    -599.1465043639198029 [Eh]
	 SCS Total Energy          =    -599.1397878992280539 [Eh]
                               Psi4 1.9 release
    Molecular point group: c1

    Geometry (in Bohr), charge = 1, multiplicity = 1:

       Center              X                  Y                   Z               Mass
    ------------   -----------------  -----------------  -----------------  -----------------
         K            0.000000000000     0.000000000000     0.000000000000    38.963706486400
         O            0.224302932187    -5.235408751810     0.145280254799    15.994914619570
         H           -0.631109944393    -5.924935799919     1.570026039005     1.007825032230
         H            1.855869792194    -6.087584527537     0.211518934949     1.007825032230
         O            2.607304268173    -2.181363778947    -3.931108441662    15.994914619570
         H            3.886611060586    -3.465684014771    -3.890430197085     1.007825032230
         H            2.210115961946    -1.908417406565    -5.704837508361     1.007825032230
         O            5.148150647967     0.501580556850     1.590429411982    15.994914619570
         H            6.126548790518     2.017834438955     1.701057758818     1.007825032230
         H            5.651842028899    -0.713010674670     2.832242148339     1.007825032230
         O           -5.444877333912     0.422520084939     1.597672732221    15.994914619570
         H           -7.046480696474     0.076928860841     2.420625783144     1.007825032230
         H           -5.437407246538     2.142537465974     2.036249820047     1.007825032230
         O            0.373375867320     3.505774554522     4.018916455808    15.994914619570
         H           -1.293441943831     4.450340930250     4.078106457509     1.007825032230
         H            0.936425435579     3.228156779157     5.694918335928     1.007825032230
         O           -2.142567701592     4.576414008709    -2.200070177863    15.994914619570
         H           -1.522977527660     3.858297294048    -3.894372165783     1.007825032230
         H           -4.001438378873     4.749095292328    -2.226125721681     1.007825032230

  Charge       = 1
  Multiplicity = 1
  Basis Set: AUG-CC-PVTZ
    Blend: AUG-CC-PVTZ
  Basis Set: (AUG-CC-PVTZ AUX)
    Blend: AUG-CC-PVTZ-JKFIT + DEF2-UNIVERSAL-JKFIT

    Orbital Energies [Eh]
    ---------------------

    Doubly Occupied:

       1A   -133.586185     2A    -20.706282     3A    -20.705663
       4A    -20.700201     5A    -20.698084     6A    -20.694618
       7A    -20.688061     8A    -14.543692     9A    -11.573667
      10A    -11.573545    11A    -11.573453    12A     -1.805496
      13A     -1.499503    14A     -1.486547    15A     -1.477885
      16A     -1.475525    17A     -1.471277    18A     -1.461926
      19A     -1.017170    20A     -1.014365    21A     -1.013662
      22A     -0.857257    23A     -0.849741    24A     -0.844698
      25A     -0.840044    26A     -0.837647    27A     -0.831446
      28A     -0.746920    29A     -0.729516    30A     -0.715101
      31A     -0.709154    32A     -0.702214    33A     -0.701325
      34A     -0.652481    35A     -0.646628    36A     -0.641568
      37A     -0.639584    38A     -0.638690    39A     -0.634207

  @DF-RHF Final Energy: -1055.45253219389679

   => Energetics <=

    Nuclear Repulsion Energy =            443.8593264737571076
    One-Electron Energy =               -2330.6536552288248458
    Two-Electron Energy =                 831.3417965611708951
    Total Energy =                      -1055.4525321938967863
 Dipole X            :         -7.0290477            6.8600668           -0.1689809
 Dipole Y            :        -15.3951361           15.1396920           -0.2554440
 Dipole Z            :        -13.7470447           14.5979416            0.8508969
 Magnitude           :                                                    0.9043405
  Basis Set: (AUG-CC-PVTZ AUX)
    Blend: AUG-CC-PVTZ-RI + DEF2-QZVPP-RI
	 Reference Energy          =   -1055.4525321938967863 [Eh]
	 Singles Energy            =      -0.0000000000000000 [Eh]
	 Same-Spin Energy          =      -0.4552288846024463 [Eh]
	 Opposite-Spin Energy      =      -1.3925716016740148 [Eh]
	 Correlation Energy        =      -1.8478004862764612 [Eh]
	 Total Energy              =   -1057.3003326801731419 [Eh]

	 ================> DF-SCS-MP2 Energies <==================
	-----------------------------------------------------------
	 SCS Same-Spin Scale       =       0.3333333333333333 [-]
	 SCS Opposite-Spin Scale   =       1.2000000000000000 [-]
	 SCS Same-Spin Energy      =      -0.1517429615341487 [Eh]
	 SCS Opposite-Spin Energy  =      -1.6710859220088177 [Eh]
	 SCS Correlation Energy    =      -1.8228288835429665 [Eh]
	 SCS Total Energy          =   -1057.2753610774398112 [Eh]
	-----------------------------------------------------------

*** Psi4 exiting successfully. Buy a developer a beer!
