                               Psi4 1.9 release

  ==> Input File <==

--------------------------------------------------------------------------
MEMORY 60 GB

molecule dimer {
0 1
Gh(K)      0.000000     0.000000     0.000000
Gh(O)     -1.237201    -1.186877    -1.898620
Gh(H)     -1.455599    -2.078405    -2.264946
Gh(H)     -1.884303    -0.587869    -2.247465
Gh(O)      1.982555    -1.627158    -0.050544
Gh(H)      2.859228    -1.332600    -0.294042
Gh(H)      2.024029    -2.574119    -0.007952
Gh(O)      0.529545     2.030396     1.666827
Gh(H)      0.081547     1.990380     2.491648
Gh(H)      0.447311     2.993552     1.488365
O         -2.004583    -1.160979     1.036664
H         -2.719039    -0.691870     1.542242
H         -2.486547    -1.780673     0.451519

units ang
no_reorient
no_com
symmetry c1
}

set {
basis        aug-cc-pVTZ
scf_type     df
}

energy("mp2")
--------------------------------------------------------------------------

    Molecular point group: c1

    Geometry (in Angstrom), charge = 0, multiplicity = 1:

       Center              X                  Y                   Z               Mass
    ------------   -----------------  -----------------  -----------------  -----------------
      Gh(K)           0.000000000000     0.000000000000     0.000000000000    38.963706486400
      Gh(O)          -1.237201000000    -1.186877000000    -1.898620000000    15.994914619570
      Gh(H)          -1.455599000000    -2.078405000000    -2.264946000000     1.007825032230
      Gh(H)          -1.884303000000    -0.587869000000    -2.247465000000     1.007825032230
      Gh(O)           1.982555000000    -1.627158000000    -0.050544000000    15.994914619570
      Gh(H)           2.859228000000    -1.332600000000    -0.294042000000     1.007825032230
      Gh(H)           2.024029000000    -2.574119000000    -0.007952000000     1.007825032230
      Gh(O)           0.529545000000     2.030396000000     1.666827000000    15.994914619570
      Gh(H)           0.081547000000     1.990380000000     2.491648000000     1.007825032230
      Gh(H)           0.447311000000     2.993552000000     1.488365000000     1.007825032230
         O           -2.004583000000    -1.160979000000     1.036664000000    15.994914619570
         H           -2.719039000000    -0.691870000000     1.542242000000     1.007825032230
         H           -2.486547000000    -1.780673000000     0.451519000000     1.007825032230

  Charge       = 0
  Multiplicity = 1
  Basis Set: AUG-CC-PVTZ
    Blend: AUG-CC-PVTZ
  Basis Set: (AUG-CC-PVTZ AUX)
    Blend: AUG-CC-PVTZ-JKFIT + DEF2-UNIVERSAL-JKFIT

    Orbital Energies [Eh]
    ---------------------

    Doubly Occupied:

       1A    -20.572119     2A     -1.339231     3A     -0.702102
       4A     -0.579501     5A     -0.508069

  @DF-RHF Final Energy:   -76.05717109941827

   => Energetics <=

    Nuclear Repulsion Energy =              8.9262612045322633
    One-Electron Energy =                -122.5648152661984795
    Two-Electron Energy =                  37.5813829622479503
    Total Energy =                        -76.0571710994182695
 Dipole X            :         39.3608405          -40.1420348           -0.7811943
 Dipole Y            :         22.1237743          -22.2238879           -0.1001136
 Dipole Z            :        -19.4932889           19.4397506           -0.0535383
 Magnitude           :                                                    0.7894008
  Basis Set: (AUG-CC-PVTZ AUX)
    Blend: AUG-CC-PVTZ-RI + DEF2-QZVPP-RI
	 Reference Energy          =     -76.0571710994182695 [Eh]
	 Singles Energy            =      -0.0000000000000000 [Eh]
	 Same-Spin Energy          =      -0.0688868788721275 [Eh]
	 Opposite-Spin Energy      =      -0.2170937313643146 [Eh]
	 Correlation Energy        =      -0.2859806102364421 [Eh]
	 Total Energy              =     -76.3431517096547054 [Eh]

	 ================> DF-SCS-MP2 Energies <==================
	-----------------------------------------------------------
	 SCS Same-Spin Scale       =       0.3333333333333333 [-]
	 SCS Opposite-Spin Scale   =       1.2000000000000000 [-]
	 SCS Same-Spin Energy      =      -0.0229622929573758 [Eh]
	 SCS Opposite-Spin Energy  =      -0.2605124776371776 [Eh]
	 SCS Correlation Energy    =      -0.2834747705945534 [Eh]
	 SCS Total Energy          =     -76.3406458700128212 [Eh]
	-----------------------------------------------------------

*** Psi4 exiting successfully. Buy a developer a beer!
