                               Psi4 1.9 release

  ==> Input File <==

--------------------------------------------------------------------------
MEMORY 60 GB

molecule dimer {
0 1
Gh(K)      0.000000     0.000000     0.000000
Gh(O)      0.934950     1.557658     1.866682
Gh(H)      1.223641     2.403238     1.526633
Gh(H)      1.560546     1.275463     2.571452
O         -0.413699    -2.204341    -1.603818
H         -1.436891    -2.151326    -1.552654
H         -0.309238    -2.351733    -2.534913
Gh(O)      2.387388    -0.706598     0.434979
Gh(H)      3.112159    -1.260928     0.324550
Gh(H)      2.611801    -0.158530     1.180506
Gh(O)     -2.888982    -0.504542     0.112087
Gh(H)     -3.193254    -0.834635     0.984426
Gh(H)     -3.583834     0.130394    -0.063180
Gh(O)      2.029999     0.579035    -1.935349
Gh(H)      2.782212     0.571319    -1.253322
Gh(H)      2.354613     1.285694    -2.436344
Gh(O)     -0.653789    -1.945918     2.055554
Gh(H)     -0.923902    -1.843674     2.940345
Gh(H)     -1.151574    -2.735000     1.778164

units ang
no_reorient
no_com
symmetry c1
}

set {
basis        aug-cc-pVTZ
scf_type     df
}

energy("mp2")
--------------------------------------------------------------------------

    Molecular point group: c1

    Geometry (in Angstrom), charge = 0, multiplicity = 1:

       Center              X                  Y                   Z               Mass
    ------------   -----------------  -----------------  -----------------  -----------------
      Gh(K)           0.000000000000     0.000000000000     0.000000000000    38.963706486400
      Gh(O)           0.934950000000     1.557658000000     1.866682000000    15.994914619570
      Gh(H)           1.223641000000     2.403238000000     1.526633000000     1.007825032230
      Gh(H)           1.560546000000     1.275463000000     2.571452000000     1.007825032230
         O           -0.413699000000    -2.204341000000    -1.603818000000    15.994914619570
         H           -1.436891000000    -2.151326000000    -1.552654000000     1.007825032230
         H           -0.309238000000    -2.351733000000    -2.534913000000     1.007825032230
      Gh(O)           2.387388000000    -0.706598000000     0.434979000000    15.994914619570
      Gh(H)           3.112159000000    -1.260928000000     0.324550000000     1.007825032230
      Gh(H)           2.611801000000    -0.158530000000     1.180506000000     1.007825032230
      Gh(O)          -2.888982000000    -0.504542000000     0.112087000000    15.994914619570
      Gh(H)          -3.193254000000    -0.834635000000     0.984426000000     1.007825032230
      Gh(H)          -3.583834000000     0.130394000000    -0.063180000000     1.007825032230
      Gh(O)           2.029999000000     0.579035000000    -1.935349000000    15.994914619570
      Gh(H)           2.782212000000     0.571319000000    -1.253322000000     1.007825032230
      Gh(H)           2.354613000000     1.285694000000    -2.436344000000     1.007825032230
      Gh(O)          -0.653789000000    -1.945918000000     2.055554000000    15.994914619570
      Gh(H)          -0.923902000000    -1.843674000000     2.940345000000     1.007825032230
      Gh(H)          -1.151574000000    -2.735000000000     1.778164000000     1.007825032230

  Charge       = 0
  Multiplicity = 1
  Basis Set: AUG-CC-PVTZ
    Blend: AUG-CC-PVTZ
  Basis Set: (AUG-CC-PVTZ AUX)
    Blend: AUG-CC-PVTZ-JKFIT + DEF2-UNIVERSAL-JKFIT

    Orbital Energies [Eh]
    ---------------------

    Doubly Occupied:

       1A    -20.574100     2A     -1.343342     3A     -0.693140
       4A     -0.587940     5A     -0.509572

  @DF-RHF Final Energy:   -76.05395310132648

   => Energetics <=

    Nuclear Repulsion Energy =              8.9409642692046827
    One-Electron Energy =                -122.5736466224713865
    Two-Electron Energy =                  37.5787292519402172
    Total Energy =                        -76.0539531013264849
 Dipole X            :          8.9731572           -9.5539281           -0.5807708
 Dipole Y            :         41.7713225          -41.8343545           -0.0630319
 Dipole Z            :         31.3935350          -31.9705964           -0.5770613
 Magnitude           :                                                    0.8211380
  Basis Set: (AUG-CC-PVTZ AUX)
    Blend: AUG-CC-PVTZ-RI + DEF2-QZVPP-RI
	 Reference Energy          =     -76.0539531013264849 [Eh]
	 Singles Energy            =      -0.0000000000000000 [Eh]
	 Same-Spin Energy          =      -0.0690165127956592 [Eh]
	 Opposite-Spin Energy      =      -0.2175737236091842 [Eh]
	 Correlation Energy        =      -0.2865902364048433 [Eh]
	 Total Energy              =     -76.3405433377313329 [Eh]

	 ================> DF-SCS-MP2 Energies <==================
	-----------------------------------------------------------
	 SCS Same-Spin Scale       =       0.3333333333333333 [-]
	 SCS Opposite-Spin Scale   =       1.2000000000000000 [-]
	 SCS Same-Spin Energy      =      -0.0230055042652197 [Eh]
	 SCS Opposite-Spin Energy  =      -0.2610884683310210 [Eh]
	 SCS Correlation Energy    =      -0.2840939725962408 [Eh]
	 SCS Total Energy          =     -76.3380470739227235 [Eh]
	-----------------------------------------------------------

*** Psi4 exiting successfully. Buy a developer a beer!
