                               Psi4 1.9 release

  ==> Input File <==

--------------------------------------------------------------------------
MEMORY 60 GB

molecule dimer {
1 1
K          0.000000     0.000000     0.000000
Gh(O)      0.943634     1.540384    -2.239203
Gh(H)      1.835162     1.914466    -2.211791
Gh(H)      0.256757     2.195615    -2.041790
Gh(O)     -1.920742    -0.633797    -1.813826
Gh(H)     -2.580219    -1.072039    -1.329826
Gh(H)     -2.116309     0.283541    -1.612310
Gh(O)     -1.787723     1.870031     1.131142
Gh(H)     -2.161469     2.114690     0.289051
Gh(H)     -1.202138     2.601312     1.399681
Gh(O)      0.489597    -2.771440    -0.697134
Gh(H)      1.059577    -2.807431    -1.496358
Gh(H)      0.870276    -3.282004     0.035325

units ang
no_reorient
no_com
symmetry c1
}

set {
basis        aug-cc-pVTZ
scf_type     df
}

energy("mp2")
--------------------------------------------------------------------------

    Molecular point group: c1

    Geometry (in Angstrom), charge = 1, multiplicity = 1:

       Center              X                  Y                   Z               Mass
    ------------   -----------------  -----------------  -----------------  -----------------
         K            0.000000000000     0.000000000000     0.000000000000    38.963706486400
      Gh(O)           0.943634000000     1.540384000000    -2.239203000000    15.994914619570
      Gh(H)           1.835162000000     1.914466000000    -2.211791000000     1.007825032230
      Gh(H)           0.256757000000     2.195615000000    -2.041790000000     1.007825032230
      Gh(O)          -1.920742000000    -0.633797000000    -1.813826000000    15.994914619570
      Gh(H)          -2.580219000000    -1.072039000000    -1.329826000000     1.007825032230
      Gh(H)          -2.116309000000     0.283541000000    -1.612310000000     1.007825032230
      Gh(O)          -1.787723000000     1.870031000000     1.131142000000    15.994914619570
      Gh(H)          -2.161469000000     2.114690000000     0.289051000000     1.007825032230
      Gh(H)          -1.202138000000     2.601312000000     1.399681000000     1.007825032230
      Gh(O)           0.489597000000    -2.771440000000    -0.697134000000    15.994914619570
      Gh(H)           1.059577000000    -2.807431000000    -1.496358000000     1.007825032230
      Gh(H)           0.870276000000    -3.282004000000     0.035325000000     1.007825032230

  Charge       = 1
  Multiplicity = 1
  Basis Set: AUG-CC-PVTZ
    Blend: AUG-CC-PVTZ
  Basis Set: (AUG-CC-PVTZ AUX)
    Blend: AUG-CC-PVTZ-JKFIT + DEF2-UNIVERSAL-JKFIT

    Orbital Energies [Eh]
    ---------------------

    Doubly Occupied:

       1A   -133.752696     2A    -14.708353     3A    -11.738415
       4A    -11.738412     5A    -11.738411     6A     -1.963960
       7A     -1.170657     8A     -1.170633     9A     -1.170630

  @DF-RHF Final Energy:  -599.01751500359001

   => Energetics <=

    Nuclear Repulsion Energy =              0.0000000000000000
    One-Electron Energy =                -819.7306980687341138
    Two-Electron Energy =                 220.7131830651441078
    Total Energy =                       -599.0175150035900060
 Dipole X            :         -0.0002321            0.0000000           -0.0002321
 Dipole Y            :          0.0000975            0.0000000            0.0000975
 Dipole Z            :         -0.0002900            0.0000000           -0.0002900
 Magnitude           :                                                    0.0003840
  Basis Set: (AUG-CC-PVTZ AUX)
    Blend: AUG-CC-PVTZ-RI + DEF2-QZVPP-RI
	 Reference Energy          =    -599.0175150035900060 [Eh]
	 Singles Energy            =      -0.0000000000000000 [Eh]
	 Same-Spin Energy          =      -0.0349348370288925 [Eh]
	 Opposite-Spin Energy      =      -0.0841868479259677 [Eh]
	 Correlation Energy        =      -0.1191216849548603 [Eh]
	 Total Energy              =    -599.1366366885448542 [Eh]

	 ================> DF-SCS-MP2 Energies <==================
	-----------------------------------------------------------
	 SCS Same-Spin Scale       =       0.3333333333333333 [-]
	 SCS Opposite-Spin Scale   =       1.2000000000000000 [-]
	 SCS Same-Spin Energy      =      -0.0116449456762975 [Eh]
	 SCS Opposite-Spin Energy  =      -0.1010242175111613 [Eh]
	 SCS Correlation Energy    =      -0.1126691631874588 [Eh]
	 SCS Total Energy          =    -599.1301841667774397 [Eh]
	-----------------------------------------------------------

*** Psi4 exiting successfully. Buy a developer a beer!
