                               Psi4 1.9 release

  ==> Input File <==

--------------------------------------------------------------------------
MEMORY 60 GB

molecule dimer {
1 1
K          0.000000     0.000000     0.000000
Gh(O)      0.798245    -2.673232     0.586516
Gh(H)      1.259072    -3.227763    -0.050608
Gh(H)      1.531752    -2.180835     0.924560
Gh(O)      1.063720    -0.518108     2.608119
Gh(H)      1.747934    -1.086894     2.959635
Gh(H)      0.362801    -0.538207     3.240479
Gh(O)     -0.749147     2.531063     1.106211
Gh(H)     -1.357034     2.493353     1.855151
Gh(H)     -0.245091     3.336779     1.345826
Gh(O)     -0.978931     1.576870    -1.879881
Gh(H)     -0.514846     1.896055    -2.647649
Gh(H)     -1.625313     0.989072    -2.202663

units ang
no_reorient
no_com
symmetry c1
}

set {
basis        aug-cc-pVTZ
scf_type     df
}

energy("mp2")
--------------------------------------------------------------------------

    Molecular point group: c1

    Geometry (in Angstrom), charge = 1, multiplicity = 1:

       Center              X                  Y                   Z               Mass
    ------------   -----------------  -----------------  -----------------  -----------------
         K            0.000000000000     0.000000000000     0.000000000000    38.963706486400
      Gh(O)           0.798245000000    -2.673232000000     0.586516000000    15.994914619570
      Gh(H)           1.259072000000    -3.227763000000    -0.050608000000     1.007825032230
      Gh(H)           1.531752000000    -2.180835000000     0.924560000000     1.007825032230
      Gh(O)           1.063720000000    -0.518108000000     2.608119000000    15.994914619570
      Gh(H)           1.747934000000    -1.086894000000     2.959635000000     1.007825032230
      Gh(H)           0.362801000000    -0.538207000000     3.240479000000     1.007825032230
      Gh(O)          -0.749147000000     2.531063000000     1.106211000000    15.994914619570
      Gh(H)          -1.357034000000     2.493353000000     1.855151000000     1.007825032230
      Gh(H)          -0.245091000000     3.336779000000     1.345826000000     1.007825032230
      Gh(O)          -0.978931000000     1.576870000000    -1.879881000000    15.994914619570
      Gh(H)          -0.514846000000     1.896055000000    -2.647649000000     1.007825032230
      Gh(H)          -1.625313000000     0.989072000000    -2.202663000000     1.007825032230

  Charge       = 1
  Multiplicity = 1
  Basis Set: AUG-CC-PVTZ
    Blend: AUG-CC-PVTZ
  Basis Set: (AUG-CC-PVTZ AUX)
    Blend: AUG-CC-PVTZ-JKFIT + DEF2-UNIVERSAL-JKFIT

    Orbital Energies [Eh]
    ---------------------

    Doubly Occupied:

       1A   -133.752840     2A    -14.708476     3A    -11.738539
       4A    -11.738536     5A    -11.738534     6A     -1.964022
       7A     -1.170737     8A     -1.170701     9A     -1.170636

  @DF-RHF Final Energy:  -599.01751386893989

   => Energetics <=

    Nuclear Repulsion Energy =              0.0000000000000000
    One-Electron Energy =                -819.7289876095617274
    Two-Electron Energy =                 220.7114737406219263
    Total Energy =                       -599.0175138689397727
 Dipole X            :         -0.0000032            0.0000000           -0.0000032
 Dipole Y            :          0.0000622            0.0000000            0.0000622
 Dipole Z            :          0.0000897            0.0000000            0.0000897
 Magnitude           :                                                    0.0001092
  Basis Set: (AUG-CC-PVTZ AUX)
    Blend: AUG-CC-PVTZ-RI + DEF2-QZVPP-RI
	 Reference Energy          =    -599.0175138689398864 [Eh]
	 Singles Energy            =      -0.0000000000000000 [Eh]
	 Same-Spin Energy          =      -0.0343647340453866 [Eh]
	 Opposite-Spin Energy      =      -0.0831315747672371 [Eh]
	 Correlation Energy        =      -0.1174963088126236 [Eh]
	 Total Energy              =    -599.1350101777525197 [Eh]

	 ================> DF-SCS-MP2 Energies <==================
	-----------------------------------------------------------
	 SCS Same-Spin Scale       =       0.3333333333333333 [-]
	 SCS Opposite-Spin Scale   =       1.2000000000000000 [-]
	 SCS Same-Spin Energy      =      -0.0114549113484622 [Eh]
	 SCS Opposite-Spin Energy  =      -0.0997578897206845 [Eh]
	 SCS Correlation Energy    =      -0.1112128010691466 [Eh]
	 SCS Total Energy          =    -599.1287266700090868 [Eh]
	-----------------------------------------------------------

*** Psi4 exiting successfully. Buy a developer a beer!
