                               Psi4 1.9 release

  ==> Input File <==

--------------------------------------------------------------------------
MEMORY 60 GB

molecule dimer {
0 1
Gh(K)      0.000000     0.000000     0.000000
Gh(O)      1.886407     0.240145     1.661583
Gh(H)      1.920610    -0.405878     2.387775
Gh(H)      2.353759     1.017833     1.991534
Gh(O)     -0.633228    -1.707611     2.107517
Gh(H)     -1.150731    -2.494049     1.810318
Gh(H)      0.219587    -1.976046     2.382454
O         -2.383593     0.511145    -0.855188
H         -2.763257     1.011932    -0.148038
H         -3.173879     0.141298    -1.269293
Gh(O)     -0.850357    -2.107687    -1.303976
Gh(H)     -1.442063    -2.761127    -0.786684
Gh(H)     -0.824084    -2.400965    -2.266133

units ang
no_reorient
no_com
symmetry c1
}

set {
basis        aug-cc-pVTZ
scf_type     df
}

energy("mp2")
--------------------------------------------------------------------------

    Molecular point group: c1

    Geometry (in Angstrom), charge = 0, multiplicity = 1:

       Center              X                  Y                   Z               Mass
    ------------   -----------------  -----------------  -----------------  -----------------
      Gh(K)           0.000000000000     0.000000000000     0.000000000000    38.963706486400
      Gh(O)           1.886407000000     0.240145000000     1.661583000000    15.994914619570
      Gh(H)           1.920610000000    -0.405878000000     2.387775000000     1.007825032230
      Gh(H)           2.353759000000     1.017833000000     1.991534000000     1.007825032230
      Gh(O)          -0.633228000000    -1.707611000000     2.107517000000    15.994914619570
      Gh(H)          -1.150731000000    -2.494049000000     1.810318000000     1.007825032230
      Gh(H)           0.219587000000    -1.976046000000     2.382454000000     1.007825032230
         O           -2.383593000000     0.511145000000    -0.855188000000    15.994914619570
         H           -2.763257000000     1.011932000000    -0.148038000000     1.007825032230
         H           -3.173879000000     0.141298000000    -1.269293000000     1.007825032230
      Gh(O)          -0.850357000000    -2.107687000000    -1.303976000000    15.994914619570
      Gh(H)          -1.442063000000    -2.761127000000    -0.786684000000     1.007825032230
      Gh(H)          -0.824084000000    -2.400965000000    -2.266133000000     1.007825032230

  Charge       = 0
  Multiplicity = 1
  Basis Set: AUG-CC-PVTZ
    Blend: AUG-CC-PVTZ
  Basis Set: (AUG-CC-PVTZ AUX)
    Blend: AUG-CC-PVTZ-JKFIT + DEF2-UNIVERSAL-JKFIT

    Orbital Energies [Eh]
    ---------------------

    Doubly Occupied:

       1A    -20.568217     2A     -1.356721     3A     -0.711986
       4A     -0.591564     5A     -0.511395

  @DF-RHF Final Energy:   -76.06004354632714

   => Energetics <=

    Nuclear Repulsion Energy =              9.2161728083174221
    One-Electron Energy =                -123.0726629725228065
    Two-Electron Energy =                  37.7964466178782459
    Total Energy =                        -76.0600435463271367
 Dipole X            :         46.4837494          -47.2542647           -0.7705153
 Dipole Y            :         -9.8178533            9.9066813            0.0888281
 Dipole Z            :         15.8028774          -15.6069363            0.1959411
 Magnitude           :                                                    0.7999857
  Basis Set: (AUG-CC-PVTZ AUX)
    Blend: AUG-CC-PVTZ-RI + DEF2-QZVPP-RI
	 Reference Energy          =     -76.0600435463271367 [Eh]
	 Singles Energy            =      -0.0000000000000000 [Eh]
	 Same-Spin Energy          =      -0.0684291488819652 [Eh]
	 Opposite-Spin Energy      =      -0.2156475625507341 [Eh]
	 Correlation Energy        =      -0.2840767114326992 [Eh]
	 Total Energy              =     -76.3441202577598403 [Eh]

	 ================> DF-SCS-MP2 Energies <==================
	-----------------------------------------------------------
	 SCS Same-Spin Scale       =       0.3333333333333333 [-]
	 SCS Opposite-Spin Scale   =       1.2000000000000000 [-]
	 SCS Same-Spin Energy      =      -0.0228097162939884 [Eh]
	 SCS Opposite-Spin Energy  =      -0.2587770750608809 [Eh]
	 SCS Correlation Energy    =      -0.2815867913548692 [Eh]
	 SCS Total Energy          =     -76.3416303376820053 [Eh]
	-----------------------------------------------------------

*** Psi4 exiting successfully. Buy a developer a beer!
