                               Psi4 1.9 release

  ==> Input File <==

--------------------------------------------------------------------------
MEMORY 60 GB

molecule dimer {
0 1
Gh(K)      0.000000     0.000000     0.000000
Gh(O)     -1.914219     0.381099     2.047352
Gh(H)     -1.320578     0.674184     2.686368
Gh(H)     -2.321467    -0.319664     2.513747
Gh(O)      0.428472     2.036835    -1.419653
Gh(H)     -0.185122     2.755299    -1.648266
Gh(H)      0.372818     1.517892    -2.257890
Gh(O)      0.770031     1.249993     2.200665
Gh(H)      1.009133     2.175197     2.337599
Gh(H)      1.515479     0.726860     2.473995
Gh(O)     -2.260178    -0.231462    -1.572764
Gh(H)     -2.803882    -0.985370    -1.417875
Gh(H)     -2.627539     0.547665    -1.165198
O          2.290299    -1.266372     0.334224
H          3.155079    -0.865329     0.373528
H          2.386314    -2.179876     0.539797
Gh(O)     -1.344210    -2.412788     0.379287
Gh(H)     -2.112438    -2.800330    -0.114885
Gh(H)     -1.698340    -2.036621     1.151405

units ang
no_reorient
no_com
symmetry c1
}

set {
basis        aug-cc-pVTZ
scf_type     df
}

energy("mp2")
--------------------------------------------------------------------------

    Molecular point group: c1

    Geometry (in Angstrom), charge = 0, multiplicity = 1:

       Center              X                  Y                   Z               Mass
    ------------   -----------------  -----------------  -----------------  -----------------
      Gh(K)           0.000000000000     0.000000000000     0.000000000000    38.963706486400
      Gh(O)          -1.914219000000     0.381099000000     2.047352000000    15.994914619570
      Gh(H)          -1.320578000000     0.674184000000     2.686368000000     1.007825032230
      Gh(H)          -2.321467000000    -0.319664000000     2.513747000000     1.007825032230
      Gh(O)           0.428472000000     2.036835000000    -1.419653000000    15.994914619570
      Gh(H)          -0.185122000000     2.755299000000    -1.648266000000     1.007825032230
      Gh(H)           0.372818000000     1.517892000000    -2.257890000000     1.007825032230
      Gh(O)           0.770031000000     1.249993000000     2.200665000000    15.994914619570
      Gh(H)           1.009133000000     2.175197000000     2.337599000000     1.007825032230
      Gh(H)           1.515479000000     0.726860000000     2.473995000000     1.007825032230
      Gh(O)          -2.260178000000    -0.231462000000    -1.572764000000    15.994914619570
      Gh(H)          -2.803882000000    -0.985370000000    -1.417875000000     1.007825032230
      Gh(H)          -2.627539000000     0.547665000000    -1.165198000000     1.007825032230
         O            2.290299000000    -1.266372000000     0.334224000000    15.994914619570
         H            3.155079000000    -0.865329000000     0.373528000000     1.007825032230
         H            2.386314000000    -2.179876000000     0.539797000000     1.007825032230
      Gh(O)          -1.344210000000    -2.412788000000     0.379287000000    15.994914619570
      Gh(H)          -2.112438000000    -2.800330000000    -0.114885000000     1.007825032230
      Gh(H)          -1.698340000000    -2.036621000000     1.151405000000     1.007825032230

  Charge       = 0
  Multiplicity = 1
  Basis Set: AUG-CC-PVTZ
    Blend: AUG-CC-PVTZ
  Basis Set: (AUG-CC-PVTZ AUX)
    Blend: AUG-CC-PVTZ-JKFIT + DEF2-UNIVERSAL-JKFIT

    Orbital Energies [Eh]
    ---------------------

    Doubly Occupied:

       1A    -20.563875     2A     -1.356169     3A     -0.729550
       4A     -0.580171     5A     -0.510169

  @DF-RHF Final Energy:   -76.06101410316987

   => Energetics <=

    Nuclear Repulsion Energy =              9.2803324256820154
    One-Electron Energy =                -123.2028228752256922
    Two-Electron Energy =                  37.8614763463738058
    Total Energy =                        -76.0610141031698674
 Dipole X            :        -44.4475306           45.0960180            0.6484874
 Dipole Y            :         24.5511694          -24.8993735           -0.3482041
 Dipole Z            :         -6.6130183            6.7786687            0.1656504
 Magnitude           :                                                    0.7544680
  Basis Set: (AUG-CC-PVTZ AUX)
    Blend: AUG-CC-PVTZ-RI + DEF2-QZVPP-RI
	 Reference Energy          =     -76.0610141031698674 [Eh]
	 Singles Energy            =      -0.0000000000000000 [Eh]
	 Same-Spin Energy          =      -0.0681701596687473 [Eh]
	 Opposite-Spin Energy      =      -0.2149092567349206 [Eh]
	 Correlation Energy        =      -0.2830794164036680 [Eh]
	 Total Energy              =     -76.3440935195735335 [Eh]

	 ================> DF-SCS-MP2 Energies <==================
	-----------------------------------------------------------
	 SCS Same-Spin Scale       =       0.3333333333333333 [-]
	 SCS Opposite-Spin Scale   =       1.2000000000000000 [-]
	 SCS Same-Spin Energy      =      -0.0227233865562491 [Eh]
	 SCS Opposite-Spin Energy  =      -0.2578911080819047 [Eh]
	 SCS Correlation Energy    =      -0.2806144946381539 [Eh]
	 SCS Total Energy          =     -76.3416285978080253 [Eh]
	-----------------------------------------------------------

*** Psi4 exiting successfully. Buy a developer a beer!
