                               Psi4 1.9 release

  ==> Input File <==

--------------------------------------------------------------------------
MEMORY 60 GB

molecule dimer {
1 1
K          0.000000     0.000000     0.000000
O         -1.751492     0.085286    -1.989283
H         -1.556526     0.778721    -2.629799
H         -1.639405    -0.746256    -2.499389
O         -0.439277    -2.706628    -0.360941
H         -1.377830    -2.874844    -0.351162
H         -0.096285    -3.290016    -1.091408
O         -2.197605     0.631860     1.800529
H         -2.346144     1.016197     2.672356
H         -2.828298     0.855687     1.124615
O          0.383901     2.589354    -0.816677
H         -0.469103     3.021654    -0.740717
H          0.553527     2.490907    -1.733209
O          2.031074     0.400515    -2.119651
H          2.592574     1.107034    -1.763625
H          1.716904     0.550642    -2.989750
O          0.043549    -1.038957     2.817828
H         -0.779009    -0.692394     3.128335
H          0.717995    -0.476349     3.113344

units ang
no_reorient
no_com
symmetry c1
}

set {
basis        aug-cc-pVTZ
scf_type     df
}

energy("mp2")
--------------------------------------------------------------------------

    Molecular point group: c1

    Geometry (in Angstrom), charge = 1, multiplicity = 1:

       Center              X                  Y                   Z               Mass
    ------------   -----------------  -----------------  -----------------  -----------------
         K            0.000000000000     0.000000000000     0.000000000000    38.963706486400
         O           -1.751492000000     0.085286000000    -1.989283000000    15.994914619570
         H           -1.556526000000     0.778721000000    -2.629799000000     1.007825032230
         H           -1.639405000000    -0.746256000000    -2.499389000000     1.007825032230
         O           -0.439277000000    -2.706628000000    -0.360941000000    15.994914619570
         H           -1.377830000000    -2.874844000000    -0.351162000000     1.007825032230
         H           -0.096285000000    -3.290016000000    -1.091408000000     1.007825032230
         O           -2.197605000000     0.631860000000     1.800529000000    15.994914619570
         H           -2.346144000000     1.016197000000     2.672356000000     1.007825032230
         H           -2.828298000000     0.855687000000     1.124615000000     1.007825032230
         O            0.383901000000     2.589354000000    -0.816677000000    15.994914619570
         H           -0.469103000000     3.021654000000    -0.740717000000     1.007825032230
         H            0.553527000000     2.490907000000    -1.733209000000     1.007825032230
         O            2.031074000000     0.400515000000    -2.119651000000    15.994914619570
         H            2.592574000000     1.107034000000    -1.763625000000     1.007825032230
         H            1.716904000000     0.550642000000    -2.989750000000     1.007825032230
         O            0.043549000000    -1.038957000000     2.817828000000    15.994914619570
         H           -0.779009000000    -0.692394000000     3.128335000000     1.007825032230
         H            0.717995000000    -0.476349000000     3.113344000000     1.007825032230

  Charge       = 1
  Multiplicity = 1
  Basis Set: AUG-CC-PVTZ
    Blend: AUG-CC-PVTZ
  Basis Set: (AUG-CC-PVTZ AUX)
    Blend: AUG-CC-PVTZ-JKFIT + DEF2-UNIVERSAL-JKFIT

    Orbital Energies [Eh]
    ---------------------

    Doubly Occupied:

       1A   -133.593437     2A    -20.730026     3A    -20.716462
       4A    -20.707982     5A    -20.706678     6A    -20.703440
       7A    -20.673773     8A    -14.551302     9A    -11.581200
      10A    -11.581124    11A    -11.581033    12A     -1.814347
      13A     -1.513397    14A     -1.510552    15A     -1.497127
      16A     -1.493959    17A     -1.481653    18A     -1.476335
      19A     -1.026224    20A     -1.023990    21A     -1.022639
      22A     -0.888048    23A     -0.887209    24A     -0.880546
      25A     -0.871355    26A     -0.849164    27A     -0.842148
      28A     -0.751101    29A     -0.740493    30A     -0.723007
      31A     -0.718518    32A     -0.716046    33A     -0.695509
      34A     -0.678523    35A     -0.668287    36A     -0.655649
      37A     -0.654437    38A     -0.646190    39A     -0.625740

  @DF-RHF Final Energy: -1055.45429613939518

   => Energetics <=

    Nuclear Repulsion Energy =            452.1693122786763297
    One-Electron Energy =               -2346.2899101202006023
    Two-Electron Energy =                 838.6663017021289761
    Total Energy =                      -1055.4542961393951828
 Dipole X            :         38.3132656          -39.5905182           -1.2772527
 Dipole Y            :         -1.5040018            2.7068872            1.2028854
 Dipole Z            :         15.5041588          -17.2077875           -1.7036288
 Magnitude           :                                                    2.4455385
  Basis Set: (AUG-CC-PVTZ AUX)
    Blend: AUG-CC-PVTZ-RI + DEF2-QZVPP-RI
	 Reference Energy          =   -1055.4542961393951828 [Eh]
	 Singles Energy            =      -0.0000000000000000 [Eh]
	 Same-Spin Energy          =      -0.4553357404494761 [Eh]
	 Opposite-Spin Energy      =      -1.3908125074098061 [Eh]
	 Correlation Energy        =      -1.8461482478592823 [Eh]
	 Total Energy              =   -1057.3004443872544016 [Eh]

	 ================> DF-SCS-MP2 Energies <==================
	-----------------------------------------------------------
	 SCS Same-Spin Scale       =       0.3333333333333333 [-]
	 SCS Opposite-Spin Scale   =       1.2000000000000000 [-]
	 SCS Same-Spin Energy      =      -0.1517785801498254 [Eh]
	 SCS Opposite-Spin Energy  =      -1.6689750088917672 [Eh]
	 SCS Correlation Energy    =      -1.8207535890415927 [Eh]
	 SCS Total Energy          =   -1057.2750497284366702 [Eh]
	-----------------------------------------------------------

*** Psi4 exiting successfully. Buy a developer a beer!
