                               Psi4 1.9 release

  ==> Input File <==

--------------------------------------------------------------------------
MEMORY 60 GB

molecule dimer {
1 1
K      0.000000     0.000000     0.000000
--
0 1
O     -0.783516    -1.726652    -2.324142
H     -0.445420    -2.452607    -2.906614
H     -1.685040    -1.971929    -2.112103
O     -1.927039     1.937313     0.043663
H     -2.389142     2.022854    -0.811322
H     -2.517278     1.567321     0.684851
O     -2.525078    -0.395205     1.459688
H     -3.459078    -0.500987     1.132919
H     -2.571024    -0.259444     2.424365
O      0.460553     2.520123    -1.287438
H      0.400227     3.147385    -0.553485
H     -0.048493     2.950684    -2.000751
O      2.234484    -1.510392    -1.101739
H      2.294983    -2.389683    -1.472288
H      3.130234    -1.125978    -1.166978
O      0.616844     0.643018     2.586690
H      1.504879     1.005239     2.404662
H      0.025962     1.431530     2.685422
O     -0.281188    -2.832605     0.143332
H      0.444960    -3.141684    -0.384431
H     -1.165527    -3.190720    -0.205701

units ang
no_reorient
no_com
symmetry c1
}

set {
basis        aug-cc-pVTZ
scf_type     df
}

energy("mp2", bsse_type="cp")
--------------------------------------------------------------------------

                               Psi4 1.9 release
    Molecular point group: c1
  Charge       = 0
  Multiplicity = 1
  Basis Set: AUG-CC-PVTZ
    Blend: AUG-CC-PVTZ
  Basis Set: (AUG-CC-PVTZ AUX)
    Blend: AUG-CC-PVTZ-JKFIT + DEF2-UNIVERSAL-JKFIT
  @DF-RHF Final Energy:  -532.36744401154306
    Total Energy =                       -532.3674440115430571
 Dipole X            :         44.3497063          -45.5788279           -1.2291215
 Dipole Y            :         25.9717700          -26.1220981           -0.1503281
 Dipole Z            :         10.8034766          -11.5670552           -0.7635785
 Magnitude           :                                                    1.4547819
  Basis Set: (AUG-CC-PVTZ AUX)
    Blend: AUG-CC-PVTZ-RI + DEF2-QZVPP-RI
	 Reference Energy          =    -532.3674440115430571 [Eh]
	 Singles Energy            =      -0.0000000000000000 [Eh]
	 Same-Spin Energy          =      -0.4867081493109020 [Eh]
	 Opposite-Spin Energy      =      -1.5235891287887426 [Eh]
	 Correlation Energy        =      -2.0102972780996446 [Eh]
	 Total Energy              =    -534.3777412896426995 [Eh]
	 SCS Total Energy          =    -534.3579870158598624 [Eh]
                               Psi4 1.9 release
    Molecular point group: c1
  Multiplicity = 1
  Basis Set: AUG-CC-PVTZ
    Blend: AUG-CC-PVTZ
  Basis Set: (AUG-CC-PVTZ AUX)
    Blend: AUG-CC-PVTZ-JKFIT + DEF2-UNIVERSAL-JKFIT
  @DF-RHF Final Energy:  -599.01751743714181
    Total Energy =                       -599.0175174371418052
  Basis Set: (AUG-CC-PVTZ AUX)
	 Singles Energy            =      -0.0000000000000000 [Eh]
	 Same-Spin Energy          =      -0.0396520231793018 [Eh]
	 Opposite-Spin Energy      =      -0.0975987404409620 [Eh]
	 Correlation Energy        =      -0.1372507636202637 [Eh]
	 Total Energy              =    -599.1547682007620779 [Eh]
	 SCS Total Energy          =    -599.1478532667307491 [Eh]
                               Psi4 1.9 release
    Molecular point group: c1

    Geometry (in Bohr), charge = 1, multiplicity = 1:

       Center              X                  Y                   Z               Mass
    ------------   -----------------  -----------------  -----------------  -----------------
         K            0.000000000000     0.000000000000     0.000000000000    38.963706486400
         O           -1.480630654914    -3.262899393974    -4.391991856674    15.994914619570
         H           -0.841721810801    -4.634755523381    -5.492704412421     1.007825032230
         H           -3.184264110441    -3.726405748848    -3.991296218758     1.007825032230
         O           -3.641575943076     3.660990989289     0.082511111816    15.994914619570
         H           -4.514824054829     3.822640051787    -1.533176379559     1.007825032230
         H           -4.756966001640     2.961807440679     1.294180826746     1.007825032230
         O           -4.771705865419    -0.746829213412     2.758410548617    15.994914619570
         H           -6.536710066596    -0.946728222415     2.140906632328     1.007825032230
         H           -4.858531221979    -0.490278104893     4.581385878146     1.007825032230
         O            0.870319036258     4.762342272467    -2.432905223507    15.994914619570
         H            0.756319418014     5.947695661374    -1.045935064549     1.007825032230
         H           -0.091638489002     5.575984642770    -3.780871435236     1.007825032230
         O            4.222562791718    -2.854227222082    -2.081984971736    15.994914619570
         H            4.336889332582    -4.515846396662    -2.782221097798     1.007825032230
         H            5.915284968596    -2.127790043291    -2.205268814435     1.007825032230
         O            1.165666222132     1.215127913740     4.888135671461    15.994914619570
         H            2.843809161953     1.899626400629     4.544152604296     1.007825032230
         H            0.049061069669     2.705199640377     5.074712111279     1.007825032230
         O           -0.531368309765    -5.352847671602     0.270858225014    15.994914619570
         H            0.840852536784    -5.936922332733    -0.726469304136     1.007825032230
         H           -2.202526821826    -6.029586943021    -0.388718553733     1.007825032230

  Charge       = 1
  Multiplicity = 1
  Basis Set: AUG-CC-PVTZ
    Blend: AUG-CC-PVTZ
  Basis Set: (AUG-CC-PVTZ AUX)
    Blend: AUG-CC-PVTZ-JKFIT + DEF2-UNIVERSAL-JKFIT

    Orbital Energies [Eh]
    ---------------------

    Doubly Occupied:

       1A   -133.571650     2A    -20.714524     3A    -20.703224
       4A    -20.696497     5A    -20.696244     6A    -20.689748
       7A    -20.686442     8A    -20.679209     9A    -14.529396
      10A    -11.559342    11A    -11.559206    12A    -11.559144
      13A     -1.792135    14A     -1.489725    15A     -1.479707
      16A     -1.477649    17A     -1.476414    18A     -1.475893
      19A     -1.466132    20A     -1.451886    21A     -1.004160
      22A     -1.001631    23A     -1.000309    24A     -0.859115
      25A     -0.853877    26A     -0.852592    27A     -0.840692
      28A     -0.839108    29A     -0.828308    30A     -0.826505
      31A     -0.728461    32A     -0.720256    33A     -0.715008
      34A     -0.713040    35A     -0.711255    36A     -0.708199
      37A     -0.688139    38A     -0.661270    39A     -0.653515
      40A     -0.645256    41A     -0.640405    42A     -0.634282
      43A     -0.626411    44A     -0.606047

  @DF-RHF Final Energy: -1131.50694550937351

   => Energetics <=

    Nuclear Repulsion Energy =            571.6265394888011997
    One-Electron Energy =               -2690.0429482312042637
    Two-Electron Energy =                 986.9094632330297827
    Total Energy =                      -1131.5069455093735087
 Dipole X            :         44.1384306          -45.5788279           -1.4403973
 Dipole Y            :         25.8966689          -26.1220981           -0.2254292
 Dipole Z            :         10.7631440          -11.5670552           -0.8039112
 Magnitude           :                                                    1.6648831
  Basis Set: (AUG-CC-PVTZ AUX)
    Blend: AUG-CC-PVTZ-RI + DEF2-QZVPP-RI
	 Reference Energy          =   -1131.5069455093735087 [Eh]
	 Singles Energy            =      -0.0000000000000000 [Eh]
	 Same-Spin Energy          =      -0.5298938800642192 [Eh]
	 Opposite-Spin Energy      =      -1.6198779241385921 [Eh]
	 Correlation Energy        =      -2.1497718042028113 [Eh]
	 Total Energy              =   -1133.6567173135763369 [Eh]

	 ================> DF-SCS-MP2 Energies <==================
	-----------------------------------------------------------
	 SCS Same-Spin Scale       =       0.3333333333333333 [-]
	 SCS Opposite-Spin Scale   =       1.2000000000000000 [-]
	 SCS Same-Spin Energy      =      -0.1766312933547397 [Eh]
	 SCS Opposite-Spin Energy  =      -1.9438535089663105 [Eh]
	 SCS Correlation Energy    =      -2.1204848023210503 [Eh]
	 SCS Total Energy          =   -1133.6274303116945248 [Eh]
	-----------------------------------------------------------

*** Psi4 exiting successfully. Buy a developer a beer!
