                               Psi4 1.9 release

  ==> Input File <==

--------------------------------------------------------------------------
MEMORY 60 GB

molecule dimer {
1 1
K          0.000000     0.000000     0.000000
O         -1.401294    -2.319984     0.595642
H         -2.165323    -2.489013     0.056141
H         -1.692797    -2.298776     1.519253
O          2.059328     0.860530    -2.001607
H          2.218543     0.995393    -2.926651
H          2.931273     0.579426    -1.708589
O          0.139810    -2.074268    -2.048206
H         -0.472017    -2.790168    -2.193251
H          0.858437    -2.515223    -1.525697
O          1.813080    -1.091665     1.643608
H          2.014250    -0.544059     2.384550
H          2.088929    -1.972871     1.887999
O         -1.899757     0.527696    -1.929873
H         -1.769861    -0.112460    -2.593047
H         -2.048566     1.322323    -2.439166
O         -0.463187     2.715830     0.308455
H         -0.267254     3.616369    -0.030918
H         -0.970271     2.903521     1.119489

units ang
no_reorient
no_com
symmetry c1
}

set {
basis        aug-cc-pVTZ
scf_type     df
}

energy("mp2")
--------------------------------------------------------------------------

    Molecular point group: c1

    Geometry (in Angstrom), charge = 1, multiplicity = 1:

       Center              X                  Y                   Z               Mass
    ------------   -----------------  -----------------  -----------------  -----------------
         K            0.000000000000     0.000000000000     0.000000000000    38.963706486400
         O           -1.401294000000    -2.319984000000     0.595642000000    15.994914619570
         H           -2.165323000000    -2.489013000000     0.056141000000     1.007825032230
         H           -1.692797000000    -2.298776000000     1.519253000000     1.007825032230
         O            2.059328000000     0.860530000000    -2.001607000000    15.994914619570
         H            2.218543000000     0.995393000000    -2.926651000000     1.007825032230
         H            2.931273000000     0.579426000000    -1.708589000000     1.007825032230
         O            0.139810000000    -2.074268000000    -2.048206000000    15.994914619570
         H           -0.472017000000    -2.790168000000    -2.193251000000     1.007825032230
         H            0.858437000000    -2.515223000000    -1.525697000000     1.007825032230
         O            1.813080000000    -1.091665000000     1.643608000000    15.994914619570
         H            2.014250000000    -0.544059000000     2.384550000000     1.007825032230
         H            2.088929000000    -1.972871000000     1.887999000000     1.007825032230
         O           -1.899757000000     0.527696000000    -1.929873000000    15.994914619570
         H           -1.769861000000    -0.112460000000    -2.593047000000     1.007825032230
         H           -2.048566000000     1.322323000000    -2.439166000000     1.007825032230
         O           -0.463187000000     2.715830000000     0.308455000000    15.994914619570
         H           -0.267254000000     3.616369000000    -0.030918000000     1.007825032230
         H           -0.970271000000     2.903521000000     1.119489000000     1.007825032230

  Charge       = 1
  Multiplicity = 1
  Basis Set: AUG-CC-PVTZ
    Blend: AUG-CC-PVTZ
  Basis Set: (AUG-CC-PVTZ AUX)
    Blend: AUG-CC-PVTZ-JKFIT + DEF2-UNIVERSAL-JKFIT

    Orbital Energies [Eh]
    ---------------------

    Doubly Occupied:

       1A   -133.579267     2A    -20.708973     3A    -20.701419
       4A    -20.699936     5A    -20.693149     6A    -20.684324
       7A    -20.682787     8A    -14.537020     9A    -11.566955
      10A    -11.566852    11A    -11.566763    12A     -1.799757
      13A     -1.504178    14A     -1.488977    15A     -1.483048
      16A     -1.475587    17A     -1.475097    18A     -1.473067
      19A     -1.010942    20A     -1.010345    21A     -1.008571
      22A     -0.870986    23A     -0.860096    24A     -0.841057
      25A     -0.832807    26A     -0.830057    27A     -0.828779
      28A     -0.739004    29A     -0.724777    30A     -0.721667
      31A     -0.717427    32A     -0.716023    33A     -0.712638
      34A     -0.659231    35A     -0.649710    36A     -0.641772
      37A     -0.636153    38A     -0.633116    39A     -0.629752

  @DF-RHF Final Energy: -1055.47448779327192

   => Energetics <=

    Nuclear Repulsion Energy =            451.6332434792340678
    One-Electron Energy =               -2346.2913238353453380
    Two-Electron Energy =                 839.1835925628392943
    Total Energy =                      -1055.4744877932719191
 Dipole X            :         -4.9390469            5.1196139            0.1805670
 Dipole Y            :         26.7114754          -27.1372722           -0.4257968
 Dipole Z            :         64.1825476          -64.0725532            0.1099944
 Magnitude           :                                                    0.4754010
  Basis Set: (AUG-CC-PVTZ AUX)
    Blend: AUG-CC-PVTZ-RI + DEF2-QZVPP-RI
	 Reference Energy          =   -1055.4744877932719191 [Eh]
	 Singles Energy            =      -0.0000000000000000 [Eh]
	 Same-Spin Energy          =      -0.4547841703979044 [Eh]
	 Opposite-Spin Energy      =      -1.3905969668525255 [Eh]
	 Correlation Energy        =      -1.8453811372504298 [Eh]
	 Total Energy              =   -1057.3198689305222615 [Eh]

	 ================> DF-SCS-MP2 Energies <==================
	-----------------------------------------------------------
	 SCS Same-Spin Scale       =       0.3333333333333333 [-]
	 SCS Opposite-Spin Scale   =       1.2000000000000000 [-]
	 SCS Same-Spin Energy      =      -0.1515947234659681 [Eh]
	 SCS Opposite-Spin Energy  =      -1.6687163602230306 [Eh]
	 SCS Correlation Energy    =      -1.8203110836889986 [Eh]
	 SCS Total Energy          =   -1057.2947988769608401 [Eh]
	-----------------------------------------------------------

*** Psi4 exiting successfully. Buy a developer a beer!
