                               Psi4 1.9 release

  ==> Input File <==

--------------------------------------------------------------------------
MEMORY 60 GB

molecule dimer {
1 1
K      0.000000     0.000000     0.000000
--
0 1
O      2.014013    -0.279703    -1.888881
H      3.005208    -0.295363    -1.835973
H      1.699269     0.613752    -2.030273
O      0.082691    -2.431143     0.831079
H     -0.605822    -3.008170     1.093025
H      0.806277    -2.617354     1.392155
O      0.852450     2.369236    -1.112997
H      0.649638     2.424980    -2.052198
H      1.809668     2.651018    -1.046812
O     -1.193213     1.995766     1.576577
H     -2.103942     1.982930     1.219885
H     -1.169090     2.215535     2.486101
O      2.364288     0.103389     1.226266
H      2.966756    -0.556210     0.863653
H      2.914997     0.928049     1.020854
O     -1.864427    -0.250800    -2.008152
H     -1.879585     0.539119    -2.581299
H     -2.686209    -0.323600    -1.550985
O     -2.311800    -0.876132     1.478322
H     -2.741898    -0.025471     1.369603
H     -2.307840    -0.999897     2.401276

units ang
no_reorient
no_com
symmetry c1
}

set {
basis        aug-cc-pVTZ
scf_type     df
}

energy("mp2", bsse_type="cp")
--------------------------------------------------------------------------

                               Psi4 1.9 release
    Molecular point group: c1
  Charge       = 0
  Multiplicity = 1
  Basis Set: AUG-CC-PVTZ
    Blend: AUG-CC-PVTZ
  Basis Set: (AUG-CC-PVTZ AUX)
    Blend: AUG-CC-PVTZ-JKFIT + DEF2-UNIVERSAL-JKFIT
  @DF-RHF Final Energy:  -532.37118876309603
    Total Energy =                       -532.3711887630960291
 Dipole X            :          0.3623465           -0.1711279            0.1912186
 Dipole Y            :        -14.6864727           16.2029313            1.5164587
 Dipole Z            :         -2.4882485            2.9606793            0.4724308
 Magnitude           :                                                    1.5998132
  Basis Set: (AUG-CC-PVTZ AUX)
    Blend: AUG-CC-PVTZ-RI + DEF2-QZVPP-RI
	 Reference Energy          =    -532.3711887630960291 [Eh]
	 Singles Energy            =      -0.0000000000000000 [Eh]
	 Same-Spin Energy          =      -0.4851652449437742 [Eh]
	 Opposite-Spin Energy      =      -1.5199955630571307 [Eh]
	 Correlation Energy        =      -2.0051608080009049 [Eh]
	 Total Energy              =    -534.3763495710969664 [Eh]
	 SCS Total Energy          =    -534.3569051870791782 [Eh]
                               Psi4 1.9 release
    Molecular point group: c1
  Multiplicity = 1
  Basis Set: AUG-CC-PVTZ
    Blend: AUG-CC-PVTZ
  Basis Set: (AUG-CC-PVTZ AUX)
    Blend: AUG-CC-PVTZ-JKFIT + DEF2-UNIVERSAL-JKFIT
  @DF-RHF Final Energy:  -599.01751791120569
    Total Energy =                       -599.0175179112056867
  Basis Set: (AUG-CC-PVTZ AUX)
	 Singles Energy            =      -0.0000000000000000 [Eh]
	 Same-Spin Energy          =      -0.0409736242611684 [Eh]
	 Opposite-Spin Energy      =      -0.1014790981866597 [Eh]
	 Correlation Energy        =      -0.1424527224478281 [Eh]
	 Total Energy              =    -599.1599706336535291 [Eh]
	 SCS Total Energy          =    -599.1529507037834037 [Eh]
                               Psi4 1.9 release
    Molecular point group: c1

    Geometry (in Bohr), charge = 1, multiplicity = 1:

       Center              X                  Y                   Z               Mass
    ------------   -----------------  -----------------  -----------------  -----------------
         K            0.000000000000     0.000000000000     0.000000000000    38.963706486400
         O            3.805932983112    -0.528562066469    -3.569467773581    15.994914619570
         H            5.679020070035    -0.558155177594    -3.469486143735     1.007825032230
         H            3.211153023481     1.159823188952    -3.836659929912     1.007825032230
         O            0.156263343040    -4.594194441824     1.570511698619    15.994914619570
         H           -1.144837660777    -5.684617438818     2.065517898279     1.007825032230
         H            1.523642711256    -4.946082233372     2.630791674187     1.007825032230
         O            1.610897035647     4.477207166575    -2.103259508456    15.994914619570
         H            1.227637900690     4.582548059713    -3.878092175212     1.007825032230
         H            3.419776898005     5.009697973659    -1.978187984843     1.007825032230
         O           -2.254845779336     3.771451150500     2.979298745696    15.994914619570
         H           -3.975874163848     3.747194625954     2.305248554554     1.007825032230
         H           -2.209259916011     4.186754371366     4.698050010227     1.007825032230
         O            4.467856801706     0.195376894385     2.317306896961    15.994914619570
         H            5.606356321059    -1.051084568241     1.632067637430     1.007825032230
         H            5.508545986531     1.753758441005     1.929134474078     1.007825032230
         O           -3.523256410909    -0.473943312265    -3.794857298290    15.994914619570
         H           -3.551900879519     1.018787259031    -4.877948157918     1.007825032230
         H           -5.076199325740    -0.611515374198    -2.930936874693     1.007825032230
         O           -4.368668856833    -1.655649529750     2.793623705239    15.994914619570
         H           -5.181436283941    -0.048133214142     2.588174570605     1.007825032230
         H           -4.361185541377    -1.889531483667     4.537753991635     1.007825032230

  Charge       = 1
  Multiplicity = 1
  Basis Set: AUG-CC-PVTZ
    Blend: AUG-CC-PVTZ
  Basis Set: (AUG-CC-PVTZ AUX)
    Blend: AUG-CC-PVTZ-JKFIT + DEF2-UNIVERSAL-JKFIT

    Orbital Energies [Eh]
    ---------------------

    Doubly Occupied:

       1A   -133.556490     2A    -20.727487     3A    -20.710768
       4A    -20.702794     5A    -20.698852     6A    -20.695986
       7A    -20.694619     8A    -20.680253     9A    -14.515306
      10A    -11.545066    11A    -11.545051    12A    -11.544969
      13A     -1.781827    14A     -1.504622    15A     -1.497054
      16A     -1.490224    17A     -1.486673    18A     -1.485658
      19A     -1.483821    20A     -1.472741    21A     -0.995400
      22A     -0.994711    23A     -0.992050    24A     -0.877397
      25A     -0.865661    26A     -0.861301    27A     -0.857309
      28A     -0.853381    29A     -0.851877    30A     -0.827867
      31A     -0.744907    32A     -0.734930    33A     -0.728204
      34A     -0.714169    35A     -0.712898    36A     -0.712140
      37A     -0.706589    38A     -0.670284    39A     -0.661178
      40A     -0.656123    41A     -0.646330    42A     -0.639809
      43A     -0.631548    44A     -0.630404

  @DF-RHF Final Energy: -1131.50468660075740

   => Energetics <=

    Nuclear Repulsion Energy =            588.0548226091490278
    One-Electron Energy =               -2722.3455478504588427
    Two-Electron Energy =                1002.7860386405521922
    Total Energy =                      -1131.5046866007573954
 Dipole X            :          0.4544085           -0.1711279            0.2832806
 Dipole Y            :        -14.6705981           16.2029313            1.5323333
 Dipole Z            :         -2.4497728            2.9606793            0.5109064
 Magnitude           :                                                    1.6399142
  Basis Set: (AUG-CC-PVTZ AUX)
    Blend: AUG-CC-PVTZ-RI + DEF2-QZVPP-RI
	 Reference Energy          =   -1131.5046866007573954 [Eh]
	 Singles Energy            =      -0.0000000000000000 [Eh]
	 Same-Spin Energy          =      -0.5309031724393890 [Eh]
	 Opposite-Spin Energy      =      -1.6211266488249776 [Eh]
	 Correlation Energy        =      -2.1520298212643665 [Eh]
	 Total Energy              =   -1133.6567164220218729 [Eh]

	 ================> DF-SCS-MP2 Energies <==================
	-----------------------------------------------------------
	 SCS Same-Spin Scale       =       0.3333333333333333 [-]
	 SCS Opposite-Spin Scale   =       1.2000000000000000 [-]
	 SCS Same-Spin Energy      =      -0.1769677241464630 [Eh]
	 SCS Opposite-Spin Energy  =      -1.9453519785899731 [Eh]
	 SCS Correlation Energy    =      -2.1223197027364362 [Eh]
	 SCS Total Energy          =   -1133.6270063034937721 [Eh]
	-----------------------------------------------------------

*** Psi4 exiting successfully. Buy a developer a beer!
