                               Psi4 1.9 release

  ==> Input File <==

--------------------------------------------------------------------------
MEMORY 60 GB

molecule dimer {
1 1
K      0.000000     0.000000     0.000000
--
0 1
O     -1.370696     1.604479    -1.550439
H     -2.076934     1.905007    -1.017557
H     -1.553716     1.524466    -2.505073
O     -1.998737    -0.974662     1.599881
H     -2.513349    -0.187129     1.508550
H     -2.107385    -1.288235     2.520883
O      1.577216    -0.657159     1.925838
H      1.513681    -0.094488     2.713468
H      2.523881    -0.722081     1.667496
O     -0.990708    -1.602974    -1.918941
H     -0.942529    -2.440920    -1.500342
H     -0.185141    -1.605642    -2.464998
O      0.436480     2.229228     1.505701
H      0.369638     3.148405     1.178374
H      1.255062     2.186885     2.041814
O      2.765894     0.729757    -0.577149
H      3.109093     1.422939    -1.184852
H      2.919337     1.046345     0.333290

units ang
no_reorient
no_com
symmetry c1
}

set {
basis        aug-cc-pVTZ
scf_type     df
}

energy("mp2", bsse_type="cp")
--------------------------------------------------------------------------

                               Psi4 1.9 release
    Molecular point group: c1
  Charge       = 0
  Multiplicity = 1
  Basis Set: AUG-CC-PVTZ
    Blend: AUG-CC-PVTZ
  Basis Set: (AUG-CC-PVTZ AUX)
    Blend: AUG-CC-PVTZ-JKFIT + DEF2-UNIVERSAL-JKFIT
  @DF-RHF Final Energy:  -456.32996427900696
    Total Energy =                       -456.3299642790069583
 Dipole X            :         -9.8769694           10.7095126            0.8325432
 Dipole Y            :        -27.9368978           29.3378167            1.4009189
 Dipole Z            :        -20.3330902           21.1085829            0.7754927
 Magnitude           :                                                    1.8047412
  Basis Set: (AUG-CC-PVTZ AUX)
    Blend: AUG-CC-PVTZ-RI + DEF2-QZVPP-RI
	 Reference Energy          =    -456.3299642790069583 [Eh]
	 Singles Energy            =      -0.0000000000000000 [Eh]
	 Same-Spin Energy          =      -0.4147111893792174 [Eh]
	 Opposite-Spin Energy      =      -1.3013586832838815 [Eh]
	 Correlation Energy        =      -1.7160698726630990 [Eh]
	 Total Energy              =    -458.0460341516700851 [Eh]
	 SCS Total Energy          =    -458.0298317620740249 [Eh]
                               Psi4 1.9 release
    Molecular point group: c1
  Multiplicity = 1
  Basis Set: AUG-CC-PVTZ
    Blend: AUG-CC-PVTZ
  Basis Set: (AUG-CC-PVTZ AUX)
    Blend: AUG-CC-PVTZ-JKFIT + DEF2-UNIVERSAL-JKFIT
  @DF-RHF Final Energy:  -599.01751740612713
    Total Energy =                       -599.0175174061271264
  Basis Set: (AUG-CC-PVTZ AUX)
	 Singles Energy            =      -0.0000000000000000 [Eh]
	 Same-Spin Energy          =      -0.0397638192854280 [Eh]
	 Opposite-Spin Energy      =      -0.0979995588085418 [Eh]
	 Correlation Energy        =      -0.1377633780939697 [Eh]
	 Total Energy              =    -599.1552807842210768 [Eh]
	 SCS Total Energy          =    -599.1483714831258567 [Eh]
                               Psi4 1.9 release
    Molecular point group: c1

    Geometry (in Bohr), charge = 1, multiplicity = 1:

       Center              X                  Y                   Z               Mass
    ------------   -----------------  -----------------  -----------------  -----------------
         K            0.000000000000     0.000000000000     0.000000000000    38.963706486400
         O           -2.590240041261     3.032025884048    -2.929905084229    15.994914619570
         H           -3.924836440652     3.599941497080    -1.922904047042     1.007825032230
         H           -2.936097716742     2.880823227572    -4.733901894279     1.007825032230
         O           -3.777065526819    -1.841844244891     3.023336923324    15.994914619570
         H           -4.749541267693    -0.353622560131     2.850746346559     1.007825032230
         H           -3.982380490898    -2.434411335229     4.763778464323     1.007825032230
         O            2.980506280690    -1.241850530880     3.639306381999    15.994914619570
         H            2.860442531309    -0.178556442142     5.127711370194     1.007825032230
         H            4.769443863247    -1.364535330397     3.151110755296     1.007825032230
         O           -1.872166790300    -3.029181846230    -3.626272940912    15.994914619570
         H           -1.781121675302    -4.612670294153    -2.835235474522     1.007825032230
         H           -0.349865784593    -3.034223635532    -4.658171119801     1.007825032230
         O            0.824827659240     4.212630391202     2.845362516828    15.994914619570
         H            0.698514585562     5.949623182022     2.226804133360     1.007825032230
         H            2.371723450469     4.132613717872     3.858469259126     1.007825032230
         O            5.226782152047     1.379040868136    -1.090653543582    15.994914619570
         H            5.875334268578     2.688965003233    -2.239045779201     1.007825032230
         H            5.516747397916     1.977305482742     0.629826820354     1.007825032230

  Charge       = 1
  Multiplicity = 1
  Basis Set: AUG-CC-PVTZ
    Blend: AUG-CC-PVTZ
  Basis Set: (AUG-CC-PVTZ AUX)
    Blend: AUG-CC-PVTZ-JKFIT + DEF2-UNIVERSAL-JKFIT

    Orbital Energies [Eh]
    ---------------------

    Doubly Occupied:

       1A   -133.570473     2A    -20.721775     3A    -20.718353
       4A    -20.711672     5A    -20.699099     6A    -20.697421
       7A    -20.697172     8A    -14.529351     9A    -11.559185
      10A    -11.559036    11A    -11.558977    12A     -1.795982
      13A     -1.499528    14A     -1.495521    15A     -1.490498
      16A     -1.488066    17A     -1.485144    18A     -1.484491
      19A     -1.009455    20A     -1.007744    21A     -1.006097
      22A     -0.879997    23A     -0.873408    24A     -0.864329
      25A     -0.854845    26A     -0.849600    27A     -0.845031
      28A     -0.738614    29A     -0.732954    30A     -0.724578
      31A     -0.723238    32A     -0.717615    33A     -0.708485
      34A     -0.670121    35A     -0.661128    36A     -0.650821
      37A     -0.649015    38A     -0.645574    39A     -0.645039

  @DF-RHF Final Energy: -1055.45069179848520

   => Energetics <=

    Nuclear Repulsion Energy =            465.5836821649519379
    One-Electron Energy =               -2373.6298831506173883
    Two-Electron Energy =                 852.5955091871803688
    Total Energy =                      -1055.4506917984851952
 Dipole X            :         -9.8385851           10.7095126            0.8709275
 Dipole Y            :        -27.7788722           29.3378167            1.5589445
 Dipole Z            :        -20.2270371           21.1085829            0.8815458
 Magnitude           :                                                    1.9914682
  Basis Set: (AUG-CC-PVTZ AUX)
    Blend: AUG-CC-PVTZ-RI + DEF2-QZVPP-RI
	 Reference Energy          =   -1055.4506917984851952 [Eh]
	 Singles Energy            =      -0.0000000000000000 [Eh]
	 Same-Spin Energy          =      -0.4589152708114490 [Eh]
	 Opposite-Spin Energy      =      -1.3991555869740950 [Eh]
	 Correlation Energy        =      -1.8580708577855440 [Eh]
	 Total Energy              =   -1057.3087626562708010 [Eh]

	 ================> DF-SCS-MP2 Energies <==================
	-----------------------------------------------------------
	 SCS Same-Spin Scale       =       0.3333333333333333 [-]
	 SCS Opposite-Spin Scale   =       1.2000000000000000 [-]
	 SCS Same-Spin Energy      =      -0.1529717569371496 [Eh]
	 SCS Opposite-Spin Energy  =      -1.6789867043689140 [Eh]
	 SCS Correlation Energy    =      -1.8319584613060635 [Eh]
	 SCS Total Energy          =   -1057.2826502597913532 [Eh]
	-----------------------------------------------------------

*** Psi4 exiting successfully. Buy a developer a beer!
