                               Psi4 1.9 release

  ==> Input File <==

--------------------------------------------------------------------------
MEMORY 60 GB

molecule dimer {
1 1
K          0.000000     0.000000     0.000000
Gh(O)      1.573041     1.595164    -1.828830
Gh(H)      1.782496     2.427484    -1.472982
Gh(H)      2.404379     1.442044    -2.240169
Gh(O)      2.542675    -0.726399     0.160104
Gh(H)      2.495524    -0.827647    -0.784085
Gh(H)      2.947300    -1.512593     0.461683
Gh(O)     -0.696117    -1.387787     2.142827
Gh(H)     -1.572201    -1.578739     1.777997
Gh(H)     -0.721888    -1.146147     3.057868
Gh(O)     -2.445245    -1.000611    -0.272942
Gh(H)     -2.636754    -1.958729    -0.204424
Gh(H)     -3.151468    -0.659976    -0.827128
Gh(O)     -1.095844     1.180662    -2.400144
Gh(H)     -0.169066     1.239994    -2.615175
Gh(H)     -1.309802     0.269347    -2.619630

units ang
no_reorient
no_com
symmetry c1
}

set {
basis        aug-cc-pVTZ
scf_type     df
}

energy("mp2")
--------------------------------------------------------------------------

    Molecular point group: c1

    Geometry (in Angstrom), charge = 1, multiplicity = 1:

       Center              X                  Y                   Z               Mass
    ------------   -----------------  -----------------  -----------------  -----------------
         K            0.000000000000     0.000000000000     0.000000000000    38.963706486400
      Gh(O)           1.573041000000     1.595164000000    -1.828830000000    15.994914619570
      Gh(H)           1.782496000000     2.427484000000    -1.472982000000     1.007825032230
      Gh(H)           2.404379000000     1.442044000000    -2.240169000000     1.007825032230
      Gh(O)           2.542675000000    -0.726399000000     0.160104000000    15.994914619570
      Gh(H)           2.495524000000    -0.827647000000    -0.784085000000     1.007825032230
      Gh(H)           2.947300000000    -1.512593000000     0.461683000000     1.007825032230
      Gh(O)          -0.696117000000    -1.387787000000     2.142827000000    15.994914619570
      Gh(H)          -1.572201000000    -1.578739000000     1.777997000000     1.007825032230
      Gh(H)          -0.721888000000    -1.146147000000     3.057868000000     1.007825032230
      Gh(O)          -2.445245000000    -1.000611000000    -0.272942000000    15.994914619570
      Gh(H)          -2.636754000000    -1.958729000000    -0.204424000000     1.007825032230
      Gh(H)          -3.151468000000    -0.659976000000    -0.827128000000     1.007825032230
      Gh(O)          -1.095844000000     1.180662000000    -2.400144000000    15.994914619570
      Gh(H)          -0.169066000000     1.239994000000    -2.615175000000     1.007825032230
      Gh(H)          -1.309802000000     0.269347000000    -2.619630000000     1.007825032230

  Charge       = 1
  Multiplicity = 1
  Basis Set: AUG-CC-PVTZ
    Blend: AUG-CC-PVTZ
  Basis Set: (AUG-CC-PVTZ AUX)
    Blend: AUG-CC-PVTZ-JKFIT + DEF2-UNIVERSAL-JKFIT

    Orbital Energies [Eh]
    ---------------------

    Doubly Occupied:

       1A   -133.752671     2A    -14.708339     3A    -11.738401
       4A    -11.738400     5A    -11.738397     6A     -1.963951
       7A     -1.170670     8A     -1.170653     9A     -1.170592

  @DF-RHF Final Energy:  -599.01751545312402

   => Energetics <=

    Nuclear Repulsion Energy =              0.0000000000000000
    One-Electron Energy =                -819.7308834177592871
    Two-Electron Energy =                 220.7133679646352391
    Total Energy =                       -599.0175154531240196
 Dipole X            :          0.0000212            0.0000000            0.0000212
 Dipole Y            :         -0.0001398            0.0000000           -0.0001398
 Dipole Z            :         -0.0001241            0.0000000           -0.0001241
 Magnitude           :                                                    0.0001881
  Basis Set: (AUG-CC-PVTZ AUX)
    Blend: AUG-CC-PVTZ-RI + DEF2-QZVPP-RI
	 Reference Energy          =    -599.0175154531240196 [Eh]
	 Singles Energy            =      -0.0000000000000000 [Eh]
	 Same-Spin Energy          =      -0.0372199637606130 [Eh]
	 Opposite-Spin Energy      =      -0.0909403352292900 [Eh]
	 Correlation Energy        =      -0.1281602989899030 [Eh]
	 Total Energy              =    -599.1456757521139025 [Eh]

	 ================> DF-SCS-MP2 Energies <==================
	-----------------------------------------------------------
	 SCS Same-Spin Scale       =       0.3333333333333333 [-]
	 SCS Opposite-Spin Scale   =       1.2000000000000000 [-]
	 SCS Same-Spin Energy      =      -0.0124066545868710 [Eh]
	 SCS Opposite-Spin Energy  =      -0.1091284022751480 [Eh]
	 SCS Correlation Energy    =      -0.1215350568620190 [Eh]
	 SCS Total Energy          =    -599.1390505099860775 [Eh]
	-----------------------------------------------------------

*** Psi4 exiting successfully. Buy a developer a beer!
