                               Psi4 1.9 release

  ==> Input File <==

--------------------------------------------------------------------------
MEMORY 60 GB

molecule dimer {
1 1
K          0.000000     0.000000     0.000000
O         -2.443974    -0.924940    -0.753874
H         -2.879080    -0.982845    -1.566392
H         -3.075308    -0.759627    -0.078308
O          2.258221     2.031931    -0.252422
H          3.160911     2.340982    -0.304247
H          1.773997     2.842941    -0.220350
O          0.816379    -1.772428    -1.854739
H          0.355731    -1.803103    -2.682501
H          1.790593    -1.660283    -2.009260
O          0.385784    -2.386352     1.285565
H         -0.034250    -3.134856     0.744614
H         -0.166993    -2.412580     2.018828
O          0.888475     0.436632     2.558956
H          0.580862     0.364340     3.467400
H          1.708919     0.935211     2.674296

units ang
no_reorient
no_com
symmetry c1
}

set {
basis        aug-cc-pVTZ
scf_type     df
}

energy("mp2")
--------------------------------------------------------------------------

    Molecular point group: c1

    Geometry (in Angstrom), charge = 1, multiplicity = 1:

       Center              X                  Y                   Z               Mass
    ------------   -----------------  -----------------  -----------------  -----------------
         K            0.000000000000     0.000000000000     0.000000000000    38.963706486400
         O           -2.443974000000    -0.924940000000    -0.753874000000    15.994914619570
         H           -2.879080000000    -0.982845000000    -1.566392000000     1.007825032230
         H           -3.075308000000    -0.759627000000    -0.078308000000     1.007825032230
         O            2.258221000000     2.031931000000    -0.252422000000    15.994914619570
         H            3.160911000000     2.340982000000    -0.304247000000     1.007825032230
         H            1.773997000000     2.842941000000    -0.220350000000     1.007825032230
         O            0.816379000000    -1.772428000000    -1.854739000000    15.994914619570
         H            0.355731000000    -1.803103000000    -2.682501000000     1.007825032230
         H            1.790593000000    -1.660283000000    -2.009260000000     1.007825032230
         O            0.385784000000    -2.386352000000     1.285565000000    15.994914619570
         H           -0.034250000000    -3.134856000000     0.744614000000     1.007825032230
         H           -0.166993000000    -2.412580000000     2.018828000000     1.007825032230
         O            0.888475000000     0.436632000000     2.558956000000    15.994914619570
         H            0.580862000000     0.364340000000     3.467400000000     1.007825032230
         H            1.708919000000     0.935211000000     2.674296000000     1.007825032230

  Charge       = 1
  Multiplicity = 1
  Basis Set: AUG-CC-PVTZ
    Blend: AUG-CC-PVTZ
  Basis Set: (AUG-CC-PVTZ AUX)
    Blend: AUG-CC-PVTZ-JKFIT + DEF2-UNIVERSAL-JKFIT

    Orbital Energies [Eh]
    ---------------------

    Doubly Occupied:

       1A   -133.598433     2A    -20.709236     3A    -20.703326
       4A    -20.703293     5A    -20.702365     6A    -20.690519
       7A    -14.556070     8A    -11.585977     9A    -11.585931
      10A    -11.585819    11A     -1.818430    12A     -1.515458
      13A     -1.496822    14A     -1.488142    15A     -1.484157
      16A     -1.478155    17A     -1.029359    18A     -1.028024
      19A     -1.027363    20A     -0.891878    21A     -0.859682
      22A     -0.854188    23A     -0.843064    24A     -0.824347
      25A     -0.740877    26A     -0.734975    27A     -0.733797
      28A     -0.718377    29A     -0.714505    30A     -0.664474
      31A     -0.651476    32A     -0.650060    33A     -0.646383
      34A     -0.636622

  @DF-RHF Final Energy:  -979.39895423827591

   => Energetics <=

    Nuclear Repulsion Energy =            346.6796733319629311
    One-Electron Energy =               -2032.2540750992031917
    Two-Electron Energy =                 706.1754475289643551
    Total Energy =                       -979.3989542382759055
 Dipole X            :        -35.1321986           34.8738790           -0.2583196
 Dipole Y            :         48.0115850          -47.6042344            0.4073506
 Dipole Z            :        -18.6676927           18.7309049            0.0632122
 Magnitude           :                                                    0.4864764
  Basis Set: (AUG-CC-PVTZ AUX)
    Blend: AUG-CC-PVTZ-RI + DEF2-QZVPP-RI
	 Reference Energy          =    -979.3989542382759055 [Eh]
	 Singles Energy            =      -0.0000000000000000 [Eh]
	 Same-Spin Energy          =      -0.3832837991320998 [Eh]
	 Opposite-Spin Energy      =      -1.1681565239489178 [Eh]
	 Correlation Energy        =      -1.5514403230810176 [Eh]
	 Total Energy              =    -980.9503945613569158 [Eh]

	 ================> DF-SCS-MP2 Energies <==================
	-----------------------------------------------------------
	 SCS Same-Spin Scale       =       0.3333333333333333 [-]
	 SCS Opposite-Spin Scale   =       1.2000000000000000 [-]
	 SCS Same-Spin Energy      =      -0.1277612663773666 [Eh]
	 SCS Opposite-Spin Energy  =      -1.4017878287387013 [Eh]
	 SCS Correlation Energy    =      -1.5295490951160680 [Eh]
	 SCS Total Energy          =    -980.9285033333919728 [Eh]
	-----------------------------------------------------------

*** Psi4 exiting successfully. Buy a developer a beer!
