                               Psi4 1.9 release

  ==> Input File <==

--------------------------------------------------------------------------
MEMORY 60 GB

molecule dimer {
1 1
K          0.000000     0.000000     0.000000
O          0.895746    -2.809245     0.265910
H          0.384997    -3.536149    -0.142487
H          0.462734    -2.701620     1.110776
O         -1.994843    -0.515921    -1.954607
H         -2.538615    -1.207236    -1.506788
H         -2.614613     0.221095    -1.966914
O         -0.644379     2.208825    -1.255866
H         -0.268331     2.958551    -0.857534
H         -1.592764     2.260054    -1.104169

units ang
no_reorient
no_com
symmetry c1
}

set {
basis        aug-cc-pVTZ
scf_type     df
}

energy("mp2")
--------------------------------------------------------------------------

    Molecular point group: c1

    Geometry (in Angstrom), charge = 1, multiplicity = 1:

       Center              X                  Y                   Z               Mass
    ------------   -----------------  -----------------  -----------------  -----------------
         K            0.000000000000     0.000000000000     0.000000000000    38.963706486400
         O            0.895746000000    -2.809245000000     0.265910000000    15.994914619570
         H            0.384997000000    -3.536149000000    -0.142487000000     1.007825032230
         H            0.462734000000    -2.701620000000     1.110776000000     1.007825032230
         O           -1.994843000000    -0.515921000000    -1.954607000000    15.994914619570
         H           -2.538615000000    -1.207236000000    -1.506788000000     1.007825032230
         H           -2.614613000000     0.221095000000    -1.966914000000     1.007825032230
         O           -0.644379000000     2.208825000000    -1.255866000000    15.994914619570
         H           -0.268331000000     2.958551000000    -0.857534000000     1.007825032230
         H           -1.592764000000     2.260054000000    -1.104169000000     1.007825032230

  Charge       = 1
  Multiplicity = 1
  Basis Set: AUG-CC-PVTZ
    Blend: AUG-CC-PVTZ
  Basis Set: (AUG-CC-PVTZ AUX)
    Blend: AUG-CC-PVTZ-JKFIT + DEF2-UNIVERSAL-JKFIT

    Orbital Energies [Eh]
    ---------------------

    Doubly Occupied:

       1A   -133.669848     2A    -20.738104     3A    -20.736706
       4A    -20.726521     5A    -14.626936     6A    -11.656931
       7A    -11.656825     8A    -11.656738     9A     -1.887288
      10A     -1.537306    11A     -1.514436    12A     -1.508770
      13A     -1.097177    14A     -1.095041    15A     -1.094694
      16A     -0.906997    17A     -0.866201    18A     -0.865548
      19A     -0.765597    20A     -0.755206    21A     -0.746295
      22A     -0.692225    23A     -0.678783    24A     -0.669899

  @DF-RHF Final Energy:  -827.23649575163313

   => Energetics <=

    Nuclear Repulsion Energy =            170.7622891686851290
    One-Electron Energy =               -1471.6974254663530246
    Two-Electron Energy =                 473.6986405460347669
    Total Energy =                       -827.2364957516331287
 Dipole X            :         36.1171469          -38.0107072           -1.8935603
 Dipole Y            :         20.7973625          -20.6661073            0.1312553
 Dipole Z            :         53.5724353          -52.9569668            0.6154685
 Magnitude           :                                                    1.9953947
  Basis Set: (AUG-CC-PVTZ AUX)
    Blend: AUG-CC-PVTZ-RI + DEF2-QZVPP-RI
	 Reference Energy          =    -827.2364957516331287 [Eh]
	 Singles Energy            =      -0.0000000000000000 [Eh]
	 Same-Spin Energy          =      -0.2405780301590444 [Eh]
	 Opposite-Spin Energy      =      -0.7262673262393360 [Eh]
	 Correlation Energy        =      -0.9668453563983803 [Eh]
	 Total Energy              =    -828.2033411080315091 [Eh]

	 ================> DF-SCS-MP2 Energies <==================
	-----------------------------------------------------------
	 SCS Same-Spin Scale       =       0.3333333333333333 [-]
	 SCS Opposite-Spin Scale   =       1.2000000000000000 [-]
	 SCS Same-Spin Energy      =      -0.0801926767196814 [Eh]
	 SCS Opposite-Spin Energy  =      -0.8715207914872032 [Eh]
	 SCS Correlation Energy    =      -0.9517134682068846 [Eh]
	 SCS Total Energy          =    -828.1882092198400187 [Eh]
	-----------------------------------------------------------

*** Psi4 exiting successfully. Buy a developer a beer!
