                               Psi4 1.9 release

  ==> Input File <==

--------------------------------------------------------------------------
MEMORY 60 GB

molecule dimer {
0 1
Gh(K)      0.000000     0.000000     0.000000
O         -1.249687    -2.212479     0.364535
H         -2.209513    -2.240427     0.194993
H         -1.217501    -2.449956     1.323026
Gh(O)     -0.848192     2.494283    -0.608818
Gh(H)     -1.728060     2.614033    -0.331862
Gh(H)     -0.360729     3.287164    -0.498154
Gh(O)     -0.354819     1.551553     2.420581
Gh(H)      0.571155     1.863402     2.412682
Gh(H)     -0.844927     2.239234     1.996701
Gh(O)      1.824471     1.246239    -1.492036
Gh(H)      2.780868     1.330448    -1.240610
Gh(H)      1.596086     1.819060    -2.215030

units ang
no_reorient
no_com
symmetry c1
}

set {
basis        aug-cc-pVTZ
scf_type     df
}

energy("mp2")
--------------------------------------------------------------------------

    Molecular point group: c1

    Geometry (in Angstrom), charge = 0, multiplicity = 1:

       Center              X                  Y                   Z               Mass
    ------------   -----------------  -----------------  -----------------  -----------------
      Gh(K)           0.000000000000     0.000000000000     0.000000000000    38.963706486400
         O           -1.249687000000    -2.212479000000     0.364535000000    15.994914619570
         H           -2.209513000000    -2.240427000000     0.194993000000     1.007825032230
         H           -1.217501000000    -2.449956000000     1.323026000000     1.007825032230
      Gh(O)          -0.848192000000     2.494283000000    -0.608818000000    15.994914619570
      Gh(H)          -1.728060000000     2.614033000000    -0.331862000000     1.007825032230
      Gh(H)          -0.360729000000     3.287164000000    -0.498154000000     1.007825032230
      Gh(O)          -0.354819000000     1.551553000000     2.420581000000    15.994914619570
      Gh(H)           0.571155000000     1.863402000000     2.412682000000     1.007825032230
      Gh(H)          -0.844927000000     2.239234000000     1.996701000000     1.007825032230
      Gh(O)           1.824471000000     1.246239000000    -1.492036000000    15.994914619570
      Gh(H)           2.780868000000     1.330448000000    -1.240610000000     1.007825032230
      Gh(H)           1.596086000000     1.819060000000    -2.215030000000     1.007825032230

  Charge       = 0
  Multiplicity = 1
  Basis Set: AUG-CC-PVTZ
    Blend: AUG-CC-PVTZ
  Basis Set: (AUG-CC-PVTZ AUX)
    Blend: AUG-CC-PVTZ-JKFIT + DEF2-UNIVERSAL-JKFIT

    Orbital Energies [Eh]
    ---------------------

    Doubly Occupied:

       1A    -20.572777     2A     -1.343677     3A     -0.698350
       4A     -0.586673     5A     -0.509404

  @DF-RHF Final Energy:   -76.05755330159315

   => Energetics <=

    Nuclear Repulsion Energy =              8.9753343842323687
    One-Electron Energy =                -122.6440106302331685
    Two-Electron Energy =                  37.6111229444076542
    Total Energy =                        -76.0575533015931455
 Dipole X            :         24.7649236          -25.3686473           -0.6037237
 Dipole Y            :         42.1392746          -42.3113742           -0.1720996
 Dipole Z            :         -7.8693445            8.3796107            0.5102662
 Magnitude           :                                                    0.8089945
  Basis Set: (AUG-CC-PVTZ AUX)
    Blend: AUG-CC-PVTZ-RI + DEF2-QZVPP-RI
	 Reference Energy          =     -76.0575533015931455 [Eh]
	 Singles Energy            =      -0.0000000000000000 [Eh]
	 Same-Spin Energy          =      -0.0688814903685229 [Eh]
	 Opposite-Spin Energy      =      -0.2170188007148647 [Eh]
	 Correlation Energy        =      -0.2859002910833876 [Eh]
	 Total Energy              =     -76.3434535926765392 [Eh]

	 ================> DF-SCS-MP2 Energies <==================
	-----------------------------------------------------------
	 SCS Same-Spin Scale       =       0.3333333333333333 [-]
	 SCS Opposite-Spin Scale   =       1.2000000000000000 [-]
	 SCS Same-Spin Energy      =      -0.0229604967895076 [Eh]
	 SCS Opposite-Spin Energy  =      -0.2604225608578377 [Eh]
	 SCS Correlation Energy    =      -0.2833830576473453 [Eh]
	 SCS Total Energy          =     -76.3409363592404873 [Eh]
	-----------------------------------------------------------

*** Psi4 exiting successfully. Buy a developer a beer!
