                               Psi4 1.9 release

  ==> Input File <==

--------------------------------------------------------------------------
MEMORY 60 GB

molecule dimer {
1 1
K          0.000000     0.000000     0.000000
O          1.718018     0.231702     1.982918
H          2.030510    -0.589138     2.359944
H          1.757650     0.961818     2.605759
O         -1.357838     1.036276    -2.176719
H         -1.862644     1.908415    -2.195129
H         -2.093985     0.377470    -2.470949
O          0.093893    -2.699563    -1.187877
H         -0.368393    -3.368385    -0.686177
H          0.993326    -3.116036    -1.311465
O         -0.782278    -1.864644     1.959905
H         -0.286253    -2.712429     1.908728
H         -1.707732    -2.173103     2.104632

units ang
no_reorient
no_com
symmetry c1
}

set {
basis        aug-cc-pVTZ
scf_type     df
}

energy("mp2")
--------------------------------------------------------------------------

    Molecular point group: c1

    Geometry (in Angstrom), charge = 1, multiplicity = 1:

       Center              X                  Y                   Z               Mass
    ------------   -----------------  -----------------  -----------------  -----------------
         K            0.000000000000     0.000000000000     0.000000000000    38.963706486400
         O            1.718018000000     0.231702000000     1.982918000000    15.994914619570
         H            2.030510000000    -0.589138000000     2.359944000000     1.007825032230
         H            1.757650000000     0.961818000000     2.605759000000     1.007825032230
         O           -1.357838000000     1.036276000000    -2.176719000000    15.994914619570
         H           -1.862644000000     1.908415000000    -2.195129000000     1.007825032230
         H           -2.093985000000     0.377470000000    -2.470949000000     1.007825032230
         O            0.093893000000    -2.699563000000    -1.187877000000    15.994914619570
         H           -0.368393000000    -3.368385000000    -0.686177000000     1.007825032230
         H            0.993326000000    -3.116036000000    -1.311465000000     1.007825032230
         O           -0.782278000000    -1.864644000000     1.959905000000    15.994914619570
         H           -0.286253000000    -2.712429000000     1.908728000000     1.007825032230
         H           -1.707732000000    -2.173103000000     2.104632000000     1.007825032230

  Charge       = 1
  Multiplicity = 1
  Basis Set: AUG-CC-PVTZ
    Blend: AUG-CC-PVTZ
  Basis Set: (AUG-CC-PVTZ AUX)
    Blend: AUG-CC-PVTZ-JKFIT + DEF2-UNIVERSAL-JKFIT

    Orbital Energies [Eh]
    ---------------------

    Doubly Occupied:

       1A   -133.621759     2A    -20.726630     3A    -20.722262
       4A    -20.719485     5A    -20.711677     6A    -14.579221
       7A    -11.609204     8A    -11.609106     9A    -11.608956
      10A     -1.840722    11A     -1.500319    12A     -1.498364
      13A     -1.495234    14A     -1.473055    15A     -1.051318
      16A     -1.049848    17A     -1.048330    18A     -0.883113
      19A     -0.855410    20A     -0.850605    21A     -0.824193
      22A     -0.747081    23A     -0.739883    24A     -0.733084
      25A     -0.728151    26A     -0.672294    27A     -0.661029
      28A     -0.656315    29A     -0.655068

  @DF-RHF Final Energy:  -903.31693277954128

   => Energetics <=

    Nuclear Repulsion Energy =            249.5882742511376762
    One-Electron Energy =               -1734.0669775139906506
    Two-Electron Energy =                 581.1617704833117841
    Total Energy =                       -903.3169327795412755
 Dipole X            :          7.2735391           -7.8672341           -0.5936950
 Dipole Y            :         64.6988837          -66.2938979           -1.5950143
 Dipole Z            :        -12.2457779           13.1168895            0.8711116
 Magnitude           :                                                    1.9119047
  Basis Set: (AUG-CC-PVTZ AUX)
    Blend: AUG-CC-PVTZ-RI + DEF2-QZVPP-RI
	 Reference Energy          =    -903.3169327795412755 [Eh]
	 Singles Energy            =      -0.0000000000000000 [Eh]
	 Same-Spin Energy          =      -0.3134627736386837 [Eh]
	 Opposite-Spin Energy      =      -0.9519871374288679 [Eh]
	 Correlation Energy        =      -1.2654499110675514 [Eh]
	 Total Energy              =    -904.5823826906088243 [Eh]

	 ================> DF-SCS-MP2 Energies <==================
	-----------------------------------------------------------
	 SCS Same-Spin Scale       =       0.3333333333333333 [-]
	 SCS Opposite-Spin Scale   =       1.2000000000000000 [-]
	 SCS Same-Spin Energy      =      -0.1044875912128946 [Eh]
	 SCS Opposite-Spin Energy  =      -1.1423845649146414 [Eh]
	 SCS Correlation Energy    =      -1.2468721561275360 [Eh]
	 SCS Total Energy          =    -904.5638049356688271 [Eh]
	-----------------------------------------------------------

*** Psi4 exiting successfully. Buy a developer a beer!
