                               Psi4 1.9 release

  ==> Input File <==

--------------------------------------------------------------------------
MEMORY 60 GB

molecule dimer {
0 1
Gh(K)      0.000000     0.000000     0.000000
Gh(O)      0.049226     2.701947    -1.155143
Gh(H)     -0.920606     2.740287    -1.218459
Gh(H)      0.456142     2.515712    -2.012420
Gh(O)     -1.447501    -0.454706     2.173556
Gh(H)     -1.986228    -1.035711     1.657750
Gh(H)     -1.199479    -0.982340     2.918186
Gh(O)      0.653369    -2.372660     1.490410
Gh(H)      0.618963    -2.151815     2.431321
Gh(H)      0.120151    -3.194488     1.363670
O         -2.496333    -0.502934    -0.545027
H         -2.174543    -1.006544    -1.289153
H         -2.868617     0.221761    -1.038251
Gh(O)      1.045807    -0.664263    -2.649852
Gh(H)      0.737206    -0.257818    -3.449876
Gh(H)      1.018814    -1.657837    -2.920530
Gh(O)      1.773374     1.100513     1.657986
Gh(H)      2.390244     1.790927     1.817412
Gh(H)      1.689360     0.544883     2.439841

units ang
no_reorient
no_com
symmetry c1
}

set {
basis        aug-cc-pVTZ
scf_type     df
}

energy("mp2")
--------------------------------------------------------------------------

    Molecular point group: c1

    Geometry (in Angstrom), charge = 0, multiplicity = 1:

       Center              X                  Y                   Z               Mass
    ------------   -----------------  -----------------  -----------------  -----------------
      Gh(K)           0.000000000000     0.000000000000     0.000000000000    38.963706486400
      Gh(O)           0.049226000000     2.701947000000    -1.155143000000    15.994914619570
      Gh(H)          -0.920606000000     2.740287000000    -1.218459000000     1.007825032230
      Gh(H)           0.456142000000     2.515712000000    -2.012420000000     1.007825032230
      Gh(O)          -1.447501000000    -0.454706000000     2.173556000000    15.994914619570
      Gh(H)          -1.986228000000    -1.035711000000     1.657750000000     1.007825032230
      Gh(H)          -1.199479000000    -0.982340000000     2.918186000000     1.007825032230
      Gh(O)           0.653369000000    -2.372660000000     1.490410000000    15.994914619570
      Gh(H)           0.618963000000    -2.151815000000     2.431321000000     1.007825032230
      Gh(H)           0.120151000000    -3.194488000000     1.363670000000     1.007825032230
         O           -2.496333000000    -0.502934000000    -0.545027000000    15.994914619570
         H           -2.174543000000    -1.006544000000    -1.289153000000     1.007825032230
         H           -2.868617000000     0.221761000000    -1.038251000000     1.007825032230
      Gh(O)           1.045807000000    -0.664263000000    -2.649852000000    15.994914619570
      Gh(H)           0.737206000000    -0.257818000000    -3.449876000000     1.007825032230
      Gh(H)           1.018814000000    -1.657837000000    -2.920530000000     1.007825032230
      Gh(O)           1.773374000000     1.100513000000     1.657986000000    15.994914619570
      Gh(H)           2.390244000000     1.790927000000     1.817412000000     1.007825032230
      Gh(H)           1.689360000000     0.544883000000     2.439841000000     1.007825032230

  Charge       = 0
  Multiplicity = 1
  Basis Set: AUG-CC-PVTZ
    Blend: AUG-CC-PVTZ
  Basis Set: (AUG-CC-PVTZ AUX)
    Blend: AUG-CC-PVTZ-JKFIT + DEF2-UNIVERSAL-JKFIT

    Orbital Energies [Eh]
    ---------------------

    Doubly Occupied:

       1A    -20.569257     2A     -1.360865     3A     -0.705332
       4A     -0.599637     5A     -0.512637

  @DF-RHF Final Energy:   -76.05903325647238

   => Energetics <=

    Nuclear Repulsion Energy =              9.2499740201432044
    One-Electron Energy =                -123.1225543801369753
    Two-Electron Energy =                  37.8135471035214010
    Total Energy =                        -76.0590332564723752
 Dipole X            :         47.2356212          -47.2692767           -0.0336555
 Dipole Y            :          9.2311183           -9.0862851            0.1448332
 Dipole Z            :         11.8289406          -12.6377702           -0.8088297
 Magnitude           :                                                    0.8223836
  Basis Set: (AUG-CC-PVTZ AUX)
    Blend: AUG-CC-PVTZ-RI + DEF2-QZVPP-RI
	 Reference Energy          =     -76.0590332564723752 [Eh]
	 Singles Energy            =      -0.0000000000000000 [Eh]
	 Same-Spin Energy          =      -0.0685265058470112 [Eh]
	 Opposite-Spin Energy      =      -0.2160393339817674 [Eh]
	 Correlation Energy        =      -0.2845658398287786 [Eh]
	 Total Energy              =     -76.3435990963011477 [Eh]

	 ================> DF-SCS-MP2 Energies <==================
	-----------------------------------------------------------
	 SCS Same-Spin Scale       =       0.3333333333333333 [-]
	 SCS Opposite-Spin Scale   =       1.2000000000000000 [-]
	 SCS Same-Spin Energy      =      -0.0228421686156704 [Eh]
	 SCS Opposite-Spin Energy  =      -0.2592472007781209 [Eh]
	 SCS Correlation Energy    =      -0.2820893693937913 [Eh]
	 SCS Total Energy          =     -76.3411226258661628 [Eh]
	-----------------------------------------------------------

*** Psi4 exiting successfully. Buy a developer a beer!
