                               Psi4 1.9 release

  ==> Input File <==

--------------------------------------------------------------------------
MEMORY 60 GB

molecule dimer {
1 1
K          0.000000     0.000000     0.000000
Gh(O)     -0.210079     2.249880    -1.822263
Gh(H)     -0.999905     2.747073    -2.188873
Gh(H)      0.437892     2.910845    -1.624153
Gh(O)     -0.450115    -1.345599    -2.334771
Gh(H)     -1.257746    -1.369664    -2.796646
Gh(H)     -0.004945    -2.214472    -2.565938
Gh(O)      0.686051     1.202628     2.117488
Gh(H)      1.269892     0.636475     2.686024
Gh(H)      0.056161     1.684988     2.688453

units ang
no_reorient
no_com
symmetry c1
}

set {
basis        aug-cc-pVTZ
scf_type     df
}

energy("mp2")
--------------------------------------------------------------------------

    Molecular point group: c1

    Geometry (in Angstrom), charge = 1, multiplicity = 1:

       Center              X                  Y                   Z               Mass
    ------------   -----------------  -----------------  -----------------  -----------------
         K            0.000000000000     0.000000000000     0.000000000000    38.963706486400
      Gh(O)          -0.210079000000     2.249880000000    -1.822263000000    15.994914619570
      Gh(H)          -0.999905000000     2.747073000000    -2.188873000000     1.007825032230
      Gh(H)           0.437892000000     2.910845000000    -1.624153000000     1.007825032230
      Gh(O)          -0.450115000000    -1.345599000000    -2.334771000000    15.994914619570
      Gh(H)          -1.257746000000    -1.369664000000    -2.796646000000     1.007825032230
      Gh(H)          -0.004945000000    -2.214472000000    -2.565938000000     1.007825032230
      Gh(O)           0.686051000000     1.202628000000     2.117488000000    15.994914619570
      Gh(H)           1.269892000000     0.636475000000     2.686024000000     1.007825032230
      Gh(H)           0.056161000000     1.684988000000     2.688453000000     1.007825032230

  Charge       = 1
  Multiplicity = 1
  Basis Set: AUG-CC-PVTZ
    Blend: AUG-CC-PVTZ
  Basis Set: (AUG-CC-PVTZ AUX)
    Blend: AUG-CC-PVTZ-JKFIT + DEF2-UNIVERSAL-JKFIT

    Orbital Energies [Eh]
    ---------------------

    Doubly Occupied:

       1A   -133.753122     2A    -14.708693     3A    -11.738760
       4A    -11.738757     5A    -11.738756     6A     -1.964108
       7A     -1.170819     8A     -1.170757     9A     -1.170712

  @DF-RHF Final Energy:  -599.01751265076268

   => Energetics <=

    Nuclear Repulsion Energy =              0.0000000000000000
    One-Electron Energy =                -819.7260587919223553
    Two-Electron Energy =                 220.7085461411595588
    Total Energy =                       -599.0175126507627965
 Dipole X            :          0.0000034            0.0000000            0.0000034
 Dipole Y            :          0.0001634            0.0000000            0.0001634
 Dipole Z            :         -0.0000493            0.0000000           -0.0000493
 Magnitude           :                                                    0.0001707
  Basis Set: (AUG-CC-PVTZ AUX)
    Blend: AUG-CC-PVTZ-RI + DEF2-QZVPP-RI
	 Reference Energy          =    -599.0175126507626828 [Eh]
	 Singles Energy            =      -0.0000000000000000 [Eh]
	 Same-Spin Energy          =      -0.0327564959267142 [Eh]
	 Opposite-Spin Energy      =      -0.0787677825550724 [Eh]
	 Correlation Energy        =      -0.1115242784817867 [Eh]
	 Total Energy              =    -599.1290369292444211 [Eh]

	 ================> DF-SCS-MP2 Energies <==================
	-----------------------------------------------------------
	 SCS Same-Spin Scale       =       0.3333333333333333 [-]
	 SCS Opposite-Spin Scale   =       1.2000000000000000 [-]
	 SCS Same-Spin Energy      =      -0.0109188319755714 [Eh]
	 SCS Opposite-Spin Energy  =      -0.0945213390660869 [Eh]
	 SCS Correlation Energy    =      -0.1054401710416583 [Eh]
	 SCS Total Energy          =    -599.1229528218043470 [Eh]
	-----------------------------------------------------------

*** Psi4 exiting successfully. Buy a developer a beer!
