                               Psi4 1.9 release

  ==> Input File <==

--------------------------------------------------------------------------
MEMORY 60 GB

molecule dimer {
0 1
Gh(K)      0.000000     0.000000     0.000000
Gh(O)      2.447443     0.085993    -0.685068
Gh(H)      2.680985    -0.837747    -0.449500
Gh(H)      2.829525     0.251364    -1.547070
Gh(O)     -0.233139     0.163157    -2.500787
Gh(H)     -0.170321     1.052496    -2.894868
Gh(H)     -0.081279    -0.518299    -3.176040
Gh(O)      0.572340    -2.370612     0.170271
Gh(H)      1.401491    -2.685494    -0.138462
Gh(H)      0.365707    -2.920483     0.932021
O         -1.422337    -0.715469     2.174589
H         -1.861433     0.134559     2.211240
H         -0.761789    -0.679178     2.924485
Gh(O)     -0.712298     2.966230    -0.259699
Gh(H)     -1.087339     3.581553    -0.884928
Gh(H)      0.231785     2.928736    -0.444753

units ang
no_reorient
no_com
symmetry c1
}

set {
basis        aug-cc-pVTZ
scf_type     df
}

energy("mp2")
--------------------------------------------------------------------------

    Molecular point group: c1

    Geometry (in Angstrom), charge = 0, multiplicity = 1:

       Center              X                  Y                   Z               Mass
    ------------   -----------------  -----------------  -----------------  -----------------
      Gh(K)           0.000000000000     0.000000000000     0.000000000000    38.963706486400
      Gh(O)           2.447443000000     0.085993000000    -0.685068000000    15.994914619570
      Gh(H)           2.680985000000    -0.837747000000    -0.449500000000     1.007825032230
      Gh(H)           2.829525000000     0.251364000000    -1.547070000000     1.007825032230
      Gh(O)          -0.233139000000     0.163157000000    -2.500787000000    15.994914619570
      Gh(H)          -0.170321000000     1.052496000000    -2.894868000000     1.007825032230
      Gh(H)          -0.081279000000    -0.518299000000    -3.176040000000     1.007825032230
      Gh(O)           0.572340000000    -2.370612000000     0.170271000000    15.994914619570
      Gh(H)           1.401491000000    -2.685494000000    -0.138462000000     1.007825032230
      Gh(H)           0.365707000000    -2.920483000000     0.932021000000     1.007825032230
         O           -1.422337000000    -0.715469000000     2.174589000000    15.994914619570
         H           -1.861433000000     0.134559000000     2.211240000000     1.007825032230
         H           -0.761789000000    -0.679178000000     2.924485000000     1.007825032230
      Gh(O)          -0.712298000000     2.966230000000    -0.259699000000    15.994914619570
      Gh(H)          -1.087339000000     3.581553000000    -0.884928000000     1.007825032230
      Gh(H)           0.231785000000     2.928736000000    -0.444753000000     1.007825032230

  Charge       = 0
  Multiplicity = 1
  Basis Set: AUG-CC-PVTZ
    Blend: AUG-CC-PVTZ
  Basis Set: (AUG-CC-PVTZ AUX)
    Blend: AUG-CC-PVTZ-JKFIT + DEF2-UNIVERSAL-JKFIT

    Orbital Energies [Eh]
    ---------------------

    Doubly Occupied:

       1A    -20.570938     2A     -1.343458     3A     -0.705366
       4A     -0.581562     5A     -0.508798

  @DF-RHF Final Energy:   -76.05761396390062

   => Energetics <=

    Nuclear Repulsion Energy =              8.9980466040631377
    One-Electron Energy =                -122.6910726457417553
    Two-Electron Energy =                  37.6354120777779997
    Total Energy =                        -76.0576139639006215
 Dipole X            :         26.5994456          -26.4597903            0.1396553
 Dipole Y            :         12.4303311          -11.8455044            0.5848267
 Dipole Z            :        -42.0679054           42.5801349            0.5122294
 Magnitude           :                                                    0.7898765
  Basis Set: (AUG-CC-PVTZ AUX)
    Blend: AUG-CC-PVTZ-RI + DEF2-QZVPP-RI
	 Reference Energy          =     -76.0576139639006215 [Eh]
	 Singles Energy            =      -0.0000000000000000 [Eh]
	 Same-Spin Energy          =      -0.0687620051864334 [Eh]
	 Opposite-Spin Energy      =      -0.2167478857041183 [Eh]
	 Correlation Energy        =      -0.2855098908905517 [Eh]
	 Total Energy              =     -76.3431238547911732 [Eh]

	 ================> DF-SCS-MP2 Energies <==================
	-----------------------------------------------------------
	 SCS Same-Spin Scale       =       0.3333333333333333 [-]
	 SCS Opposite-Spin Scale   =       1.2000000000000000 [-]
	 SCS Same-Spin Energy      =      -0.0229206683954778 [Eh]
	 SCS Opposite-Spin Energy  =      -0.2600974628449419 [Eh]
	 SCS Correlation Energy    =      -0.2830181312404197 [Eh]
	 SCS Total Energy          =     -76.3406320951410464 [Eh]
	-----------------------------------------------------------

*** Psi4 exiting successfully. Buy a developer a beer!
