                               Psi4 1.9 release

  ==> Input File <==

--------------------------------------------------------------------------
MEMORY 60 GB

molecule dimer {
1 1
K          0.000000     0.000000     0.000000
Gh(O)      1.718018     0.231702     1.982918
Gh(H)      2.030510    -0.589138     2.359944
Gh(H)      1.757650     0.961818     2.605759
Gh(O)     -1.357838     1.036276    -2.176719
Gh(H)     -1.862644     1.908415    -2.195129
Gh(H)     -2.093985     0.377470    -2.470949
Gh(O)      0.093893    -2.699563    -1.187877
Gh(H)     -0.368393    -3.368385    -0.686177
Gh(H)      0.993326    -3.116036    -1.311465
Gh(O)     -0.782278    -1.864644     1.959905
Gh(H)     -0.286253    -2.712429     1.908728
Gh(H)     -1.707732    -2.173103     2.104632

units ang
no_reorient
no_com
symmetry c1
}

set {
basis        aug-cc-pVTZ
scf_type     df
}

energy("mp2")
--------------------------------------------------------------------------

    Molecular point group: c1

    Geometry (in Angstrom), charge = 1, multiplicity = 1:

       Center              X                  Y                   Z               Mass
    ------------   -----------------  -----------------  -----------------  -----------------
         K            0.000000000000     0.000000000000     0.000000000000    38.963706486400
      Gh(O)           1.718018000000     0.231702000000     1.982918000000    15.994914619570
      Gh(H)           2.030510000000    -0.589138000000     2.359944000000     1.007825032230
      Gh(H)           1.757650000000     0.961818000000     2.605759000000     1.007825032230
      Gh(O)          -1.357838000000     1.036276000000    -2.176719000000    15.994914619570
      Gh(H)          -1.862644000000     1.908415000000    -2.195129000000     1.007825032230
      Gh(H)          -2.093985000000     0.377470000000    -2.470949000000     1.007825032230
      Gh(O)           0.093893000000    -2.699563000000    -1.187877000000    15.994914619570
      Gh(H)          -0.368393000000    -3.368385000000    -0.686177000000     1.007825032230
      Gh(H)           0.993326000000    -3.116036000000    -1.311465000000     1.007825032230
      Gh(O)          -0.782278000000    -1.864644000000     1.959905000000    15.994914619570
      Gh(H)          -0.286253000000    -2.712429000000     1.908728000000     1.007825032230
      Gh(H)          -1.707732000000    -2.173103000000     2.104632000000     1.007825032230

  Charge       = 1
  Multiplicity = 1
  Basis Set: AUG-CC-PVTZ
    Blend: AUG-CC-PVTZ
  Basis Set: (AUG-CC-PVTZ AUX)
    Blend: AUG-CC-PVTZ-JKFIT + DEF2-UNIVERSAL-JKFIT

    Orbital Energies [Eh]
    ---------------------

    Doubly Occupied:

       1A   -133.752892     2A    -14.708508     3A    -11.738572
       4A    -11.738571     5A    -11.738569     6A     -1.964024
       7A     -1.170731     8A     -1.170696     9A     -1.170657

  @DF-RHF Final Energy:  -599.01751420765140

   => Energetics <=

    Nuclear Repulsion Energy =              0.0000000000000000
    One-Electron Energy =                -819.7285905462732671
    Two-Electron Energy =                 220.7110763386218650
    Total Energy =                       -599.0175142076514021
 Dipole X            :         -0.0000516            0.0000000           -0.0000516
 Dipole Y            :         -0.0002457            0.0000000           -0.0002457
 Dipole Z            :          0.0001219            0.0000000            0.0001219
 Magnitude           :                                                    0.0002790
  Basis Set: (AUG-CC-PVTZ AUX)
    Blend: AUG-CC-PVTZ-RI + DEF2-QZVPP-RI
	 Reference Energy          =    -599.0175142076514021 [Eh]
	 Singles Energy            =      -0.0000000000000000 [Eh]
	 Same-Spin Energy          =      -0.0343856456800660 [Eh]
	 Opposite-Spin Energy      =      -0.0829117560534381 [Eh]
	 Correlation Energy        =      -0.1172974017335041 [Eh]
	 Total Energy              =    -599.1348116093848830 [Eh]

	 ================> DF-SCS-MP2 Energies <==================
	-----------------------------------------------------------
	 SCS Same-Spin Scale       =       0.3333333333333333 [-]
	 SCS Opposite-Spin Scale   =       1.2000000000000000 [-]
	 SCS Same-Spin Energy      =      -0.0114618818933553 [Eh]
	 SCS Opposite-Spin Energy  =      -0.0994941072641257 [Eh]
	 SCS Correlation Energy    =      -0.1109559891574810 [Eh]
	 SCS Total Energy          =    -599.1284701968088484 [Eh]
	-----------------------------------------------------------

*** Psi4 exiting successfully. Buy a developer a beer!
