                               Psi4 1.9 release

  ==> Input File <==

--------------------------------------------------------------------------
MEMORY 60 GB

molecule dimer {
0 1
Gh(K)      0.000000     0.000000     0.000000
Gh(O)      0.577144     2.541320     0.000600
Gh(H)      1.213804     2.744613     0.747683
Gh(H)     -0.094201     3.104652     0.284161
O         -2.116734    -0.221233    -1.605170
H         -2.311595     0.706106    -1.826664
H         -1.611838    -0.483958    -2.409399
Gh(O)     -0.049892    -1.890371     2.061110
Gh(H)      0.247910    -2.821836     2.137168
Gh(H)     -0.958496    -1.910780     2.339261
Gh(O)      1.916245     0.015119    -1.956164
Gh(H)      2.821662     0.235522    -1.746799
Gh(H)      1.929350    -0.944808    -2.052363

units ang
no_reorient
no_com
symmetry c1
}

set {
basis        aug-cc-pVTZ
scf_type     df
}

energy("mp2")
--------------------------------------------------------------------------

    Molecular point group: c1

    Geometry (in Angstrom), charge = 0, multiplicity = 1:

       Center              X                  Y                   Z               Mass
    ------------   -----------------  -----------------  -----------------  -----------------
      Gh(K)           0.000000000000     0.000000000000     0.000000000000    38.963706486400
      Gh(O)           0.577144000000     2.541320000000     0.000600000000    15.994914619570
      Gh(H)           1.213804000000     2.744613000000     0.747683000000     1.007825032230
      Gh(H)          -0.094201000000     3.104652000000     0.284161000000     1.007825032230
         O           -2.116734000000    -0.221233000000    -1.605170000000    15.994914619570
         H           -2.311595000000     0.706106000000    -1.826664000000     1.007825032230
         H           -1.611838000000    -0.483958000000    -2.409399000000     1.007825032230
      Gh(O)          -0.049892000000    -1.890371000000     2.061110000000    15.994914619570
      Gh(H)           0.247910000000    -2.821836000000     2.137168000000     1.007825032230
      Gh(H)          -0.958496000000    -1.910780000000     2.339261000000     1.007825032230
      Gh(O)           1.916245000000     0.015119000000    -1.956164000000    15.994914619570
      Gh(H)           2.821662000000     0.235522000000    -1.746799000000     1.007825032230
      Gh(H)           1.929350000000    -0.944808000000    -2.052363000000     1.007825032230

  Charge       = 0
  Multiplicity = 1
  Basis Set: AUG-CC-PVTZ
    Blend: AUG-CC-PVTZ
  Basis Set: (AUG-CC-PVTZ AUX)
    Blend: AUG-CC-PVTZ-JKFIT + DEF2-UNIVERSAL-JKFIT

    Orbital Energies [Eh]
    ---------------------

    Doubly Occupied:

       1A    -20.572957     2A     -1.345794     3A     -0.696955
       4A     -0.589755     5A     -0.509971

  @DF-RHF Final Energy:   -76.05757690376194

   => Energetics <=

    Nuclear Repulsion Energy =              9.0002062305003889
    One-Electron Energy =                -122.6846997094107081
    Two-Electron Energy =                  37.6269165751483854
    Total Energy =                        -76.0575769037619409
 Dipole X            :         39.6137633          -39.4145942            0.1991691
 Dipole Y            :          3.3569711           -2.9247594            0.4322117
 Dipole Z            :         31.6080263          -32.2716524           -0.6636261
 Magnitude           :                                                    0.8166241
  Basis Set: (AUG-CC-PVTZ AUX)
    Blend: AUG-CC-PVTZ-RI + DEF2-QZVPP-RI
	 Reference Energy          =     -76.0575769037619409 [Eh]
	 Singles Energy            =      -0.0000000000000000 [Eh]
	 Same-Spin Energy          =      -0.0688774433907861 [Eh]
	 Opposite-Spin Energy      =      -0.2169964324689144 [Eh]
	 Correlation Energy        =      -0.2858738758597005 [Eh]
	 Total Energy              =     -76.3434507796216479 [Eh]

	 ================> DF-SCS-MP2 Energies <==================
	-----------------------------------------------------------
	 SCS Same-Spin Scale       =       0.3333333333333333 [-]
	 SCS Opposite-Spin Scale   =       1.2000000000000000 [-]
	 SCS Same-Spin Energy      =      -0.0229591477969287 [Eh]
	 SCS Opposite-Spin Energy  =      -0.2603957189626973 [Eh]
	 SCS Correlation Energy    =      -0.2833548667596260 [Eh]
	 SCS Total Energy          =     -76.3409317705215642 [Eh]
	-----------------------------------------------------------

*** Psi4 exiting successfully. Buy a developer a beer!
