                               Psi4 1.9 release

  ==> Input File <==

--------------------------------------------------------------------------
MEMORY 60 GB

molecule dimer {
0 1
Gh(K)      0.000000     0.000000     0.000000
Gh(O)      0.260703     2.699192    -0.819281
Gh(H)      0.022127     3.429881    -1.445959
Gh(H)      1.104134     3.079934    -0.434669
Gh(O)      1.097032     0.079310     2.745102
Gh(H)      1.412062     0.923683     2.987028
Gh(H)      1.777563    -0.146764     2.181341
Gh(O)     -2.730553     0.881808     0.899593
Gh(H)     -2.493651     1.851589     0.688121
Gh(H)     -2.847400     0.884946     1.830074
O         -1.654607    -0.656583    -2.067116
H         -1.968817    -0.064990    -2.722678
H         -2.340457    -1.379730    -1.961527
Gh(O)      0.721932    -2.295296     1.132146
Gh(H)      0.703083    -3.102510     0.511510
Gh(H)      1.600267    -2.311320     1.651522

units ang
no_reorient
no_com
symmetry c1
}

set {
basis        aug-cc-pVTZ
scf_type     df
}

energy("mp2")
--------------------------------------------------------------------------

    Molecular point group: c1

    Geometry (in Angstrom), charge = 0, multiplicity = 1:

       Center              X                  Y                   Z               Mass
    ------------   -----------------  -----------------  -----------------  -----------------
      Gh(K)           0.000000000000     0.000000000000     0.000000000000    38.963706486400
      Gh(O)           0.260703000000     2.699192000000    -0.819281000000    15.994914619570
      Gh(H)           0.022127000000     3.429881000000    -1.445959000000     1.007825032230
      Gh(H)           1.104134000000     3.079934000000    -0.434669000000     1.007825032230
      Gh(O)           1.097032000000     0.079310000000     2.745102000000    15.994914619570
      Gh(H)           1.412062000000     0.923683000000     2.987028000000     1.007825032230
      Gh(H)           1.777563000000    -0.146764000000     2.181341000000     1.007825032230
      Gh(O)          -2.730553000000     0.881808000000     0.899593000000    15.994914619570
      Gh(H)          -2.493651000000     1.851589000000     0.688121000000     1.007825032230
      Gh(H)          -2.847400000000     0.884946000000     1.830074000000     1.007825032230
         O           -1.654607000000    -0.656583000000    -2.067116000000    15.994914619570
         H           -1.968817000000    -0.064990000000    -2.722678000000     1.007825032230
         H           -2.340457000000    -1.379730000000    -1.961527000000     1.007825032230
      Gh(O)           0.721932000000    -2.295296000000     1.132146000000    15.994914619570
      Gh(H)           0.703083000000    -3.102510000000     0.511510000000     1.007825032230
      Gh(H)           1.600267000000    -2.311320000000     1.651522000000     1.007825032230

  Charge       = 0
  Multiplicity = 1
  Basis Set: AUG-CC-PVTZ
    Blend: AUG-CC-PVTZ
  Basis Set: (AUG-CC-PVTZ AUX)
    Blend: AUG-CC-PVTZ-JKFIT + DEF2-UNIVERSAL-JKFIT

    Orbital Energies [Eh]
    ---------------------

    Doubly Occupied:

       1A    -20.567711     2A     -1.346127     3A     -0.716725
       4A     -0.576490     5A     -0.508505

  @DF-RHF Final Energy:   -76.05749481729613

   => Energetics <=

    Nuclear Repulsion Energy =              9.0790816240901098
    One-Electron Energy =                -122.8420334225953070
    Two-Electron Energy =                  37.7054569812090676
    Total Energy =                        -76.0574948172961314
 Dipole X            :         32.4938920          -33.1573803           -0.6634883
 Dipole Y            :         12.5770924          -12.6562215           -0.0791292
 Dipole Z            :         39.7306004          -40.1021294           -0.3715290
 Magnitude           :                                                    0.7645338
  Basis Set: (AUG-CC-PVTZ AUX)
    Blend: AUG-CC-PVTZ-RI + DEF2-QZVPP-RI
	 Reference Energy          =     -76.0574948172961314 [Eh]
	 Singles Energy            =      -0.0000000000000000 [Eh]
	 Same-Spin Energy          =      -0.0685343780752762 [Eh]
	 Opposite-Spin Energy      =      -0.2160390197057384 [Eh]
	 Correlation Energy        =      -0.2845733977810146 [Eh]
	 Total Energy              =     -76.3420682150771484 [Eh]

	 ================> DF-SCS-MP2 Energies <==================
	-----------------------------------------------------------
	 SCS Same-Spin Scale       =       0.3333333333333333 [-]
	 SCS Opposite-Spin Scale   =       1.2000000000000000 [-]
	 SCS Same-Spin Energy      =      -0.0228447926917587 [Eh]
	 SCS Opposite-Spin Energy  =      -0.2592468236468861 [Eh]
	 SCS Correlation Energy    =      -0.2820916163386448 [Eh]
	 SCS Total Energy          =     -76.3395864336347785 [Eh]
	-----------------------------------------------------------

*** Psi4 exiting successfully. Buy a developer a beer!
