                               Psi4 1.9 release

  ==> Input File <==

--------------------------------------------------------------------------
MEMORY 60 GB

molecule dimer {
1 1
K          0.000000     0.000000     0.000000
O         -0.210079     2.249880    -1.822263
H         -0.999905     2.747073    -2.188873
H          0.437892     2.910845    -1.624153
O         -0.450115    -1.345599    -2.334771
H         -1.257746    -1.369664    -2.796646
H         -0.004945    -2.214472    -2.565938
O          0.686051     1.202628     2.117488
H          1.269892     0.636475     2.686024
H          0.056161     1.684988     2.688453

units ang
no_reorient
no_com
symmetry c1
}

set {
basis        aug-cc-pVTZ
scf_type     df
}

energy("mp2")
--------------------------------------------------------------------------

    Molecular point group: c1

    Geometry (in Angstrom), charge = 1, multiplicity = 1:

       Center              X                  Y                   Z               Mass
    ------------   -----------------  -----------------  -----------------  -----------------
         K            0.000000000000     0.000000000000     0.000000000000    38.963706486400
         O           -0.210079000000     2.249880000000    -1.822263000000    15.994914619570
         H           -0.999905000000     2.747073000000    -2.188873000000     1.007825032230
         H            0.437892000000     2.910845000000    -1.624153000000     1.007825032230
         O           -0.450115000000    -1.345599000000    -2.334771000000    15.994914619570
         H           -1.257746000000    -1.369664000000    -2.796646000000     1.007825032230
         H           -0.004945000000    -2.214472000000    -2.565938000000     1.007825032230
         O            0.686051000000     1.202628000000     2.117488000000    15.994914619570
         H            1.269892000000     0.636475000000     2.686024000000     1.007825032230
         H            0.056161000000     1.684988000000     2.688453000000     1.007825032230

  Charge       = 1
  Multiplicity = 1
  Basis Set: AUG-CC-PVTZ
    Blend: AUG-CC-PVTZ
  Basis Set: (AUG-CC-PVTZ AUX)
    Blend: AUG-CC-PVTZ-JKFIT + DEF2-UNIVERSAL-JKFIT

    Orbital Energies [Eh]
    ---------------------

    Doubly Occupied:

       1A   -133.641542     2A    -20.737528     3A    -20.718860
       4A    -20.711742     5A    -14.599154     6A    -11.629160
       7A    -11.629028     8A    -11.628854     9A     -1.861066
      10A     -1.511084    11A     -1.503242    12A     -1.489034
      13A     -1.071921    14A     -1.069674    15A     -1.068965
      16A     -0.882541    17A     -0.864998    18A     -0.854051
      19A     -0.753640    20A     -0.742909    21A     -0.729725
      22A     -0.682075    23A     -0.664644    24A     -0.654388

  @DF-RHF Final Energy:  -827.25192934771303

   => Energetics <=

    Nuclear Repulsion Energy =            169.8509291459267558
    One-Electron Energy =               -1470.8060616652467161
    Two-Electron Energy =                 473.7032031716069014
    Total Energy =                       -827.2519293477130304
 Dipole X            :          0.1968532           -0.5514126           -0.3545594
 Dipole Y            :        -39.8275123           40.1576572            0.3301449
 Dipole Z            :         38.0830098          -38.0165672            0.0664426
 Magnitude           :                                                    0.4890017
  Basis Set: (AUG-CC-PVTZ AUX)
    Blend: AUG-CC-PVTZ-RI + DEF2-QZVPP-RI
	 Reference Energy          =    -827.2519293477130304 [Eh]
	 Singles Energy            =      -0.0000000000000000 [Eh]
	 Same-Spin Energy          =      -0.2411890371954592 [Eh]
	 Opposite-Spin Energy      =      -0.7277445350656180 [Eh]
	 Correlation Energy        =      -0.9689335722610772 [Eh]
	 Total Energy              =    -828.2208629199741381 [Eh]

	 ================> DF-SCS-MP2 Energies <==================
	-----------------------------------------------------------
	 SCS Same-Spin Scale       =       0.3333333333333333 [-]
	 SCS Opposite-Spin Scale   =       1.2000000000000000 [-]
	 SCS Same-Spin Energy      =      -0.0803963457318197 [Eh]
	 SCS Opposite-Spin Energy  =      -0.8732934420787416 [Eh]
	 SCS Correlation Energy    =      -0.9536897878105614 [Eh]
	 SCS Total Energy          =    -828.2056191355236479 [Eh]
	-----------------------------------------------------------

*** Psi4 exiting successfully. Buy a developer a beer!
