                               Psi4 1.9 release

  ==> Input File <==

--------------------------------------------------------------------------
MEMORY 60 GB

molecule dimer {
1 1
K          0.000000     0.000000     0.000000
O          2.102428     1.386670    -1.029358
H          1.785708     1.982325    -1.735266
H          3.054769     1.229330    -1.149632
O         -1.387566    -2.526538    -0.245913
H         -2.303481    -2.162204    -0.161558
H         -1.339001    -3.413108     0.108756
O         -2.609996    -0.019873     0.813235
H         -2.825722     0.803265     1.321763
H         -3.412621    -0.373229     0.472192
O          0.543936     1.404111     2.215947
H          1.365283     1.832211     2.534358
H         -0.163281     1.564772     2.878369
O          1.928879    -2.013912    -0.830288
H          1.588446    -2.627051    -1.468844
H          2.543503    -1.446099    -1.325233
O         -1.015672     1.980366    -1.649540
H         -0.491249     2.318255    -2.396721
H         -1.304712     2.818630    -1.072400

units ang
no_reorient
no_com
symmetry c1
}

set {
basis        aug-cc-pVTZ
scf_type     df
}

energy("mp2")
--------------------------------------------------------------------------

    Molecular point group: c1

    Geometry (in Angstrom), charge = 1, multiplicity = 1:

       Center              X                  Y                   Z               Mass
    ------------   -----------------  -----------------  -----------------  -----------------
         K            0.000000000000     0.000000000000     0.000000000000    38.963706486400
         O            2.102428000000     1.386670000000    -1.029358000000    15.994914619570
         H            1.785708000000     1.982325000000    -1.735266000000     1.007825032230
         H            3.054769000000     1.229330000000    -1.149632000000     1.007825032230
         O           -1.387566000000    -2.526538000000    -0.245913000000    15.994914619570
         H           -2.303481000000    -2.162204000000    -0.161558000000     1.007825032230
         H           -1.339001000000    -3.413108000000     0.108756000000     1.007825032230
         O           -2.609996000000    -0.019873000000     0.813235000000    15.994914619570
         H           -2.825722000000     0.803265000000     1.321763000000     1.007825032230
         H           -3.412621000000    -0.373229000000     0.472192000000     1.007825032230
         O            0.543936000000     1.404111000000     2.215947000000    15.994914619570
         H            1.365283000000     1.832211000000     2.534358000000     1.007825032230
         H           -0.163281000000     1.564772000000     2.878369000000     1.007825032230
         O            1.928879000000    -2.013912000000    -0.830288000000    15.994914619570
         H            1.588446000000    -2.627051000000    -1.468844000000     1.007825032230
         H            2.543503000000    -1.446099000000    -1.325233000000     1.007825032230
         O           -1.015672000000     1.980366000000    -1.649540000000    15.994914619570
         H           -0.491249000000     2.318255000000    -2.396721000000     1.007825032230
         H           -1.304712000000     2.818630000000    -1.072400000000     1.007825032230

  Charge       = 1
  Multiplicity = 1
  Basis Set: AUG-CC-PVTZ
    Blend: AUG-CC-PVTZ
  Basis Set: (AUG-CC-PVTZ AUX)
    Blend: AUG-CC-PVTZ-JKFIT + DEF2-UNIVERSAL-JKFIT

    Orbital Energies [Eh]
    ---------------------

    Doubly Occupied:

       1A   -133.571555     2A    -20.717360     3A    -20.712359
       4A    -20.711621     5A    -20.705901     6A    -20.685105
       7A    -20.684075     8A    -14.529588     9A    -11.559461
      10A    -11.559394    11A    -11.559342    12A     -1.793168
      13A     -1.497274    14A     -1.488968    15A     -1.479279
      16A     -1.471178    17A     -1.470369    18A     -1.462277
      19A     -1.004997    20A     -1.003767    21A     -1.002636
      22A     -0.873441    23A     -0.864136    24A     -0.850426
      25A     -0.839698    26A     -0.835945    27A     -0.834473
      28A     -0.732378    29A     -0.724391    30A     -0.719343
      31A     -0.717254    32A     -0.704629    33A     -0.694520
      34A     -0.658945    35A     -0.656324    36A     -0.651790
      37A     -0.647736    38A     -0.629692    39A     -0.627932

  @DF-RHF Final Energy: -1055.45234394168710

   => Energetics <=

    Nuclear Repulsion Energy =            452.6961364683156148
    One-Electron Energy =               -2348.4315003460042135
    Two-Electron Energy =                 840.2830199360015513
    Total Energy =                      -1055.4523439416871042
 Dipole X            :          8.9992727           -9.4605094           -0.4612367
 Dipole Y            :         -6.4723698            7.9627182            1.4903484
 Dipole Z            :         14.4314021          -14.7427966           -0.3113945
 Magnitude           :                                                    1.5908627
  Basis Set: (AUG-CC-PVTZ AUX)
    Blend: AUG-CC-PVTZ-RI + DEF2-QZVPP-RI
	 Reference Energy          =   -1055.4523439416871042 [Eh]
	 Singles Energy            =      -0.0000000000000000 [Eh]
	 Same-Spin Energy          =      -0.4569408482755882 [Eh]
	 Opposite-Spin Energy      =      -1.3958524949395485 [Eh]
	 Correlation Energy        =      -1.8527933432151369 [Eh]
	 Total Energy              =   -1057.3051372849022300 [Eh]

	 ================> DF-SCS-MP2 Energies <==================
	-----------------------------------------------------------
	 SCS Same-Spin Scale       =       0.3333333333333333 [-]
	 SCS Opposite-Spin Scale   =       1.2000000000000000 [-]
	 SCS Same-Spin Energy      =      -0.1523136160918627 [Eh]
	 SCS Opposite-Spin Energy  =      -1.6750229939274581 [Eh]
	 SCS Correlation Energy    =      -1.8273366100193209 [Eh]
	 SCS Total Energy          =   -1057.2796805517064058 [Eh]
	-----------------------------------------------------------

*** Psi4 exiting successfully. Buy a developer a beer!
