                               Psi4 1.9 release

  ==> Input File <==

--------------------------------------------------------------------------
MEMORY 60 GB

molecule dimer {
1 1
K          0.000000     0.000000     0.000000
O          0.913124     1.392044     2.215266
H          0.107898     1.589882     2.707194
H          1.074752     2.048582     1.547337
O          2.026680    -1.153352    -1.012698
H          2.858159    -1.449304    -0.567475
H          2.342505    -0.543742    -1.689308
O         -1.825857    -2.133558     0.355993
H         -1.430944    -2.920093     0.805392
H         -1.781389    -2.429058    -0.509967
O         -1.999435     0.997352    -1.712310
H         -1.916758     1.159308    -2.674599
H         -2.643508     1.624790    -1.332880
O         -2.230302     0.207585     1.991219
H         -2.672649     0.382701     2.901728
H         -2.200317    -0.765324     1.906808

units ang
no_reorient
no_com
symmetry c1
}

set {
basis        aug-cc-pVTZ
scf_type     df
}

energy("mp2")
--------------------------------------------------------------------------

    Molecular point group: c1

    Geometry (in Angstrom), charge = 1, multiplicity = 1:

       Center              X                  Y                   Z               Mass
    ------------   -----------------  -----------------  -----------------  -----------------
         K            0.000000000000     0.000000000000     0.000000000000    38.963706486400
         O            0.913124000000     1.392044000000     2.215266000000    15.994914619570
         H            0.107898000000     1.589882000000     2.707194000000     1.007825032230
         H            1.074752000000     2.048582000000     1.547337000000     1.007825032230
         O            2.026680000000    -1.153352000000    -1.012698000000    15.994914619570
         H            2.858159000000    -1.449304000000    -0.567475000000     1.007825032230
         H            2.342505000000    -0.543742000000    -1.689308000000     1.007825032230
         O           -1.825857000000    -2.133558000000     0.355993000000    15.994914619570
         H           -1.430944000000    -2.920093000000     0.805392000000     1.007825032230
         H           -1.781389000000    -2.429058000000    -0.509967000000     1.007825032230
         O           -1.999435000000     0.997352000000    -1.712310000000    15.994914619570
         H           -1.916758000000     1.159308000000    -2.674599000000     1.007825032230
         H           -2.643508000000     1.624790000000    -1.332880000000     1.007825032230
         O           -2.230302000000     0.207585000000     1.991219000000    15.994914619570
         H           -2.672649000000     0.382701000000     2.901728000000     1.007825032230
         H           -2.200317000000    -0.765324000000     1.906808000000     1.007825032230

  Charge       = 1
  Multiplicity = 1
  Basis Set: AUG-CC-PVTZ
    Blend: AUG-CC-PVTZ
  Basis Set: (AUG-CC-PVTZ AUX)
    Blend: AUG-CC-PVTZ-JKFIT + DEF2-UNIVERSAL-JKFIT

    Orbital Energies [Eh]
    ---------------------

    Doubly Occupied:

       1A   -133.614598     2A    -20.731021     3A    -20.722052
       4A    -20.710987     5A    -20.702168     6A    -20.695806
       7A    -14.572577     8A    -11.602491     9A    -11.602366
      10A    -11.602286    11A     -1.835984    12A     -1.519910
      13A     -1.511298    14A     -1.490715    15A     -1.484995
      16A     -1.456986    17A     -1.047519    18A     -1.046014
      19A     -1.044027    20A     -0.869691    21A     -0.869160
      22A     -0.868477    23A     -0.858925    24A     -0.825734
      25A     -0.755115    26A     -0.752595    27A     -0.724391
      28A     -0.714169    29A     -0.704725    30A     -0.676623
      31A     -0.672976    32A     -0.654016    33A     -0.652901
      34A     -0.631178

  @DF-RHF Final Energy:  -979.38154886607720

   => Energetics <=

    Nuclear Repulsion Energy =            347.7388687670213585
    One-Electron Energy =               -2033.7918787362600597
    Two-Electron Energy =                 706.6714611031615050
    Total Energy =                       -979.3815488660771962
 Dipole X            :         58.7109904          -58.9378574           -0.2268670
 Dipole Y            :         12.7733290          -12.8911258           -0.1177968
 Dipole Z            :        -34.0365047           33.6257678           -0.4107369
 Magnitude           :                                                    0.4837866
  Basis Set: (AUG-CC-PVTZ AUX)
    Blend: AUG-CC-PVTZ-RI + DEF2-QZVPP-RI
	 Reference Energy          =    -979.3815488660771962 [Eh]
	 Singles Energy            =      -0.0000000000000000 [Eh]
	 Same-Spin Energy          =      -0.3859082270347587 [Eh]
	 Opposite-Spin Energy      =      -1.1743736849300395 [Eh]
	 Correlation Energy        =      -1.5602819119647982 [Eh]
	 Total Energy              =    -980.9418307780420037 [Eh]

	 ================> DF-SCS-MP2 Energies <==================
	-----------------------------------------------------------
	 SCS Same-Spin Scale       =       0.3333333333333333 [-]
	 SCS Opposite-Spin Scale   =       1.2000000000000000 [-]
	 SCS Same-Spin Energy      =      -0.1286360756782529 [Eh]
	 SCS Opposite-Spin Energy  =      -1.4092484219160473 [Eh]
	 SCS Correlation Energy    =      -1.5378844975943002 [Eh]
	 SCS Total Energy          =    -980.9194333636714873 [Eh]
	-----------------------------------------------------------

*** Psi4 exiting successfully. Buy a developer a beer!
