                               Psi4 1.9 release

  ==> Input File <==

--------------------------------------------------------------------------
MEMORY 60 GB

molecule dimer {
0 1
Gh(K)      0.000000     0.000000     0.000000
Gh(O)      1.380814     0.870128    -2.552071
Gh(H)      0.720240     1.596362    -2.443970
Gh(H)      1.177395     0.252244    -3.293213
Gh(O)      1.273503     1.903801     1.295069
Gh(H)      1.989230     1.514260     1.865592
Gh(H)      0.801927     2.486720     1.867390
Gh(O)     -2.462575     1.133906     0.643205
Gh(H)     -2.766838     0.224028     0.624927
Gh(H)     -2.781846     1.533607    -0.169164
Gh(O)     -2.169681    -1.506407    -1.529652
Gh(H)     -2.399596    -2.128795    -2.205315
Gh(H)     -2.797931    -0.796605    -1.523323
O          1.163535    -1.097883     2.056202
H          2.105116    -0.983745     2.128536
H          0.817248    -1.314531     2.991563

units ang
no_reorient
no_com
symmetry c1
}

set {
basis        aug-cc-pVTZ
scf_type     df
}

energy("mp2")
--------------------------------------------------------------------------

    Molecular point group: c1

    Geometry (in Angstrom), charge = 0, multiplicity = 1:

       Center              X                  Y                   Z               Mass
    ------------   -----------------  -----------------  -----------------  -----------------
      Gh(K)           0.000000000000     0.000000000000     0.000000000000    38.963706486400
      Gh(O)           1.380814000000     0.870128000000    -2.552071000000    15.994914619570
      Gh(H)           0.720240000000     1.596362000000    -2.443970000000     1.007825032230
      Gh(H)           1.177395000000     0.252244000000    -3.293213000000     1.007825032230
      Gh(O)           1.273503000000     1.903801000000     1.295069000000    15.994914619570
      Gh(H)           1.989230000000     1.514260000000     1.865592000000     1.007825032230
      Gh(H)           0.801927000000     2.486720000000     1.867390000000     1.007825032230
      Gh(O)          -2.462575000000     1.133906000000     0.643205000000    15.994914619570
      Gh(H)          -2.766838000000     0.224028000000     0.624927000000     1.007825032230
      Gh(H)          -2.781846000000     1.533607000000    -0.169164000000     1.007825032230
      Gh(O)          -2.169681000000    -1.506407000000    -1.529652000000    15.994914619570
      Gh(H)          -2.399596000000    -2.128795000000    -2.205315000000     1.007825032230
      Gh(H)          -2.797931000000    -0.796605000000    -1.523323000000     1.007825032230
         O            1.163535000000    -1.097883000000     2.056202000000    15.994914619570
         H            2.105116000000    -0.983745000000     2.128536000000     1.007825032230
         H            0.817248000000    -1.314531000000     2.991563000000     1.007825032230

  Charge       = 0
  Multiplicity = 1
  Basis Set: AUG-CC-PVTZ
    Blend: AUG-CC-PVTZ
  Basis Set: (AUG-CC-PVTZ AUX)
    Blend: AUG-CC-PVTZ-JKFIT + DEF2-UNIVERSAL-JKFIT

    Orbital Energies [Eh]
    ---------------------

    Doubly Occupied:

       1A    -20.570637     2A     -1.338638     3A     -0.707132
       4A     -0.574270     5A     -0.507379

  @DF-RHF Final Energy:   -76.05516043751265

   => Energetics <=

    Nuclear Repulsion Energy =              8.9320187594576161
    One-Electron Energy =                -122.5782425648530705
    Two-Electron Energy =                  37.5910633678827963
    Total Energy =                        -76.0551604375126544
 Dipole X            :        -22.7115939           23.1125675            0.4009736
 Dipole Y            :         20.8753376          -20.9406977           -0.0653601
 Dipole Z            :        -40.1034535           40.7608540            0.6574005
 Magnitude           :                                                    0.7728047
  Basis Set: (AUG-CC-PVTZ AUX)
    Blend: AUG-CC-PVTZ-RI + DEF2-QZVPP-RI
	 Reference Energy          =     -76.0551604375126544 [Eh]
	 Singles Energy            =      -0.0000000000000000 [Eh]
	 Same-Spin Energy          =      -0.0688261663070548 [Eh]
	 Opposite-Spin Energy      =      -0.2170223685032793 [Eh]
	 Correlation Energy        =      -0.2858485348103341 [Eh]
	 Total Energy              =     -76.3410089723229817 [Eh]

	 ================> DF-SCS-MP2 Energies <==================
	-----------------------------------------------------------
	 SCS Same-Spin Scale       =       0.3333333333333333 [-]
	 SCS Opposite-Spin Scale   =       1.2000000000000000 [-]
	 SCS Same-Spin Energy      =      -0.0229420554356849 [Eh]
	 SCS Opposite-Spin Energy  =      -0.2604268422039351 [Eh]
	 SCS Correlation Energy    =      -0.2833688976396201 [Eh]
	 SCS Total Energy          =     -76.3385293351522733 [Eh]
	-----------------------------------------------------------

*** Psi4 exiting successfully. Buy a developer a beer!
