                               Psi4 1.9 release

  ==> Input File <==

--------------------------------------------------------------------------
MEMORY 60 GB

molecule dimer {
1 1
K          0.000000     0.000000     0.000000
O          2.210706     1.169674     1.148820
H          2.542276     0.564502     1.883025
H          2.469189     2.058712     1.390268
O         -0.157161     0.568570    -2.648263
H          0.654664     1.115551    -2.877620
H         -0.061308    -0.316781    -3.128151
O          1.720062    -1.820533    -1.495334
H          1.720440    -2.330188    -2.342644
H          2.311599    -2.331956    -0.890084
O         -1.760100     1.823148     0.416399
H         -1.645011     2.388567     1.190595
H         -1.171767     2.247211    -0.232701
O          0.101240    -2.179944     1.333505
H         -0.422830    -2.543391     0.610743
H          1.012164    -2.546319     1.146336

units ang
no_reorient
no_com
symmetry c1
}

set {
basis        aug-cc-pVTZ
scf_type     df
}

energy("mp2")
--------------------------------------------------------------------------

    Molecular point group: c1

    Geometry (in Angstrom), charge = 1, multiplicity = 1:

       Center              X                  Y                   Z               Mass
    ------------   -----------------  -----------------  -----------------  -----------------
         K            0.000000000000     0.000000000000     0.000000000000    38.963706486400
         O            2.210706000000     1.169674000000     1.148820000000    15.994914619570
         H            2.542276000000     0.564502000000     1.883025000000     1.007825032230
         H            2.469189000000     2.058712000000     1.390268000000     1.007825032230
         O           -0.157161000000     0.568570000000    -2.648263000000    15.994914619570
         H            0.654664000000     1.115551000000    -2.877620000000     1.007825032230
         H           -0.061308000000    -0.316781000000    -3.128151000000     1.007825032230
         O            1.720062000000    -1.820533000000    -1.495334000000    15.994914619570
         H            1.720440000000    -2.330188000000    -2.342644000000     1.007825032230
         H            2.311599000000    -2.331956000000    -0.890084000000     1.007825032230
         O           -1.760100000000     1.823148000000     0.416399000000    15.994914619570
         H           -1.645011000000     2.388567000000     1.190595000000     1.007825032230
         H           -1.171767000000     2.247211000000    -0.232701000000     1.007825032230
         O            0.101240000000    -2.179944000000     1.333505000000    15.994914619570
         H           -0.422830000000    -2.543391000000     0.610743000000     1.007825032230
         H            1.012164000000    -2.546319000000     1.146336000000     1.007825032230

  Charge       = 1
  Multiplicity = 1
  Basis Set: AUG-CC-PVTZ
    Blend: AUG-CC-PVTZ
  Basis Set: (AUG-CC-PVTZ AUX)
    Blend: AUG-CC-PVTZ-JKFIT + DEF2-UNIVERSAL-JKFIT

    Orbital Energies [Eh]
    ---------------------

    Doubly Occupied:

       1A   -133.602982     2A    -20.734761     3A    -20.728666
       4A    -20.723646     5A    -20.721110     6A    -20.714862
       7A    -14.561808     8A    -11.591619     9A    -11.591498
      10A    -11.591449    11A     -1.828109    12A     -1.507096
      13A     -1.502458    14A     -1.499527    15A     -1.496719
      16A     -1.478355    17A     -1.041990    18A     -1.038240
      19A     -1.036496    20A     -0.869529    21A     -0.863963
      22A     -0.859949    23A     -0.853389    24A     -0.844131
      25A     -0.750786    26A     -0.746205    27A     -0.739186
      28A     -0.737269    29A     -0.724521    30A     -0.678640
      31A     -0.668464    32A     -0.665750    33A     -0.660050
      34A     -0.657513

  @DF-RHF Final Energy:  -979.36487491217690

   => Energetics <=

    Nuclear Repulsion Energy =            354.0703937636276919
    One-Electron Energy =               -2046.2490620858388866
    Two-Electron Energy =                 712.8137934100343500
    Total Energy =                       -979.3648749121769015
 Dipole X            :        -43.7060272           45.9721082            2.2660811
 Dipole Y            :          9.3033612           -9.8393731           -0.5360119
 Dipole Z            :         24.3973578          -24.9618025           -0.5644447
 Magnitude           :                                                    2.3960446
  Basis Set: (AUG-CC-PVTZ AUX)
    Blend: AUG-CC-PVTZ-RI + DEF2-QZVPP-RI
	 Reference Energy          =    -979.3648749121769015 [Eh]
	 Singles Energy            =      -0.0000000000000000 [Eh]
	 Same-Spin Energy          =      -0.3884732214304412 [Eh]
	 Opposite-Spin Energy      =      -1.1815155230485517 [Eh]
	 Correlation Energy        =      -1.5699887444789928 [Eh]
	 Total Energy              =    -980.9348636566559207 [Eh]

	 ================> DF-SCS-MP2 Energies <==================
	-----------------------------------------------------------
	 SCS Same-Spin Scale       =       0.3333333333333333 [-]
	 SCS Opposite-Spin Scale   =       1.2000000000000000 [-]
	 SCS Same-Spin Energy      =      -0.1294910738101470 [Eh]
	 SCS Opposite-Spin Energy  =      -1.4178186276582621 [Eh]
	 SCS Correlation Energy    =      -1.5473097014684092 [Eh]
	 SCS Total Energy          =    -980.9121846136453087 [Eh]
	-----------------------------------------------------------

*** Psi4 exiting successfully. Buy a developer a beer!
