                               Psi4 1.9 release

  ==> Input File <==

--------------------------------------------------------------------------
MEMORY 60 GB

molecule dimer {
1 1
K          0.000000     0.000000     0.000000
O         -0.502703    -2.334457    -1.283675
H          0.237008    -2.749133    -1.803266
H         -1.286908    -2.624519    -1.722892
O          2.099037     0.906527     1.636457
H          2.896740     1.100518     1.113670
H          1.969279     1.530828     2.370669
O          0.462307     2.678042    -0.359156
H          0.213104     2.711476    -1.330404
H          1.161890     3.384492    -0.307642
O          1.843513    -0.310552    -1.771290
H          2.148881     0.527834    -2.195735
H          2.570572    -0.916573    -1.716041
O         -2.431167     1.182859    -0.447565
H         -2.521700     1.224046    -1.399351
H         -2.195533     2.014004     0.091471

units ang
no_reorient
no_com
symmetry c1
}

set {
basis        aug-cc-pVTZ
scf_type     df
}

energy("mp2")
--------------------------------------------------------------------------

    Molecular point group: c1

    Geometry (in Angstrom), charge = 1, multiplicity = 1:

       Center              X                  Y                   Z               Mass
    ------------   -----------------  -----------------  -----------------  -----------------
         K            0.000000000000     0.000000000000     0.000000000000    38.963706486400
         O           -0.502703000000    -2.334457000000    -1.283675000000    15.994914619570
         H            0.237008000000    -2.749133000000    -1.803266000000     1.007825032230
         H           -1.286908000000    -2.624519000000    -1.722892000000     1.007825032230
         O            2.099037000000     0.906527000000     1.636457000000    15.994914619570
         H            2.896740000000     1.100518000000     1.113670000000     1.007825032230
         H            1.969279000000     1.530828000000     2.370669000000     1.007825032230
         O            0.462307000000     2.678042000000    -0.359156000000    15.994914619570
         H            0.213104000000     2.711476000000    -1.330404000000     1.007825032230
         H            1.161890000000     3.384492000000    -0.307642000000     1.007825032230
         O            1.843513000000    -0.310552000000    -1.771290000000    15.994914619570
         H            2.148881000000     0.527834000000    -2.195735000000     1.007825032230
         H            2.570572000000    -0.916573000000    -1.716041000000     1.007825032230
         O           -2.431167000000     1.182859000000    -0.447565000000    15.994914619570
         H           -2.521700000000     1.224046000000    -1.399351000000     1.007825032230
         H           -2.195533000000     2.014004000000     0.091471000000     1.007825032230

  Charge       = 1
  Multiplicity = 1
  Basis Set: AUG-CC-PVTZ
    Blend: AUG-CC-PVTZ
  Basis Set: (AUG-CC-PVTZ AUX)
    Blend: AUG-CC-PVTZ-JKFIT + DEF2-UNIVERSAL-JKFIT

    Orbital Energies [Eh]
    ---------------------

    Doubly Occupied:

       1A   -133.592114     2A    -20.732182     3A    -20.725233
       4A    -20.703854     5A    -20.702907     6A    -20.702809
       7A    -14.550338     8A    -11.580248     9A    -11.580103
      10A    -11.580018    11A     -1.814606    12A     -1.509286
      13A     -1.495844    14A     -1.486139    15A     -1.479981
      16A     -1.472259    17A     -1.027288    18A     -1.025653
      19A     -1.022924    20A     -0.883592    21A     -0.869407
      22A     -0.862850    23A     -0.849914    24A     -0.847942
      25A     -0.748279    26A     -0.742845    27A     -0.727608
      28A     -0.711683    29A     -0.693158    30A     -0.675551
      31A     -0.669746    32A     -0.648536    33A     -0.646837
      34A     -0.644314

  @DF-RHF Final Energy:  -979.37661369369710

   => Energetics <=

    Nuclear Repulsion Energy =            355.2976201492862174
    One-Electron Energy =               -2049.3363590134736114
    Two-Electron Energy =                 714.6621251704904125
    Total Energy =                       -979.3766136936970952
 Dipole X            :        -30.3918170           32.0520776            1.6602605
 Dipole Y            :        -42.3320955           43.8082452            1.4761497
 Dipole Z            :         44.8859016          -46.6787921           -1.7928905
 Magnitude           :                                                    2.8548099
  Basis Set: (AUG-CC-PVTZ AUX)
    Blend: AUG-CC-PVTZ-RI + DEF2-QZVPP-RI
	 Reference Energy          =    -979.3766136936970952 [Eh]
	 Singles Energy            =      -0.0000000000000000 [Eh]
	 Same-Spin Energy          =      -0.3869625143088717 [Eh]
	 Opposite-Spin Energy      =      -1.1764539668985134 [Eh]
	 Correlation Energy        =      -1.5634164812073852 [Eh]
	 Total Energy              =    -980.9400301749044502 [Eh]

	 ================> DF-SCS-MP2 Energies <==================
	-----------------------------------------------------------
	 SCS Same-Spin Scale       =       0.3333333333333333 [-]
	 SCS Opposite-Spin Scale   =       1.2000000000000000 [-]
	 SCS Same-Spin Energy      =      -0.1289875047696239 [Eh]
	 SCS Opposite-Spin Energy  =      -1.4117447602782160 [Eh]
	 SCS Correlation Energy    =      -1.5407322650478399 [Eh]
	 SCS Total Energy          =    -980.9173459587449315 [Eh]
	-----------------------------------------------------------

*** Psi4 exiting successfully. Buy a developer a beer!
