                               Psi4 1.9 release

  ==> Input File <==

--------------------------------------------------------------------------
MEMORY 60 GB

molecule dimer {
1 1
K          0.000000     0.000000     0.000000
Gh(O)      2.508782    -0.141844     0.410377
Gh(H)      2.562458     0.762794     0.130963
Gh(H)      3.441425    -0.376554     0.562283
Gh(O)      1.412786    -1.432695    -1.957736
Gh(H)      2.326943    -1.625764    -2.277906
Gh(H)      0.935548    -2.250073    -1.821873
Gh(O)     -1.020538     1.606119     1.754091
Gh(H)     -1.273693     2.198824     1.035375
Gh(H)     -0.603547     2.090252     2.409861
Gh(O)     -1.392791    -1.909610     1.353410
Gh(H)     -1.147644    -2.832730     1.686886
Gh(H)     -2.369302    -1.909809     0.980002
Gh(O)     -1.194174    -0.015023    -2.323203
Gh(H)     -1.115379    -0.877981    -2.766013
Gh(H)     -2.152801     0.190925    -2.210689

units ang
no_reorient
no_com
symmetry c1
}

set {
basis        aug-cc-pVTZ
scf_type     df
}

energy("mp2")
--------------------------------------------------------------------------

    Molecular point group: c1

    Geometry (in Angstrom), charge = 1, multiplicity = 1:

       Center              X                  Y                   Z               Mass
    ------------   -----------------  -----------------  -----------------  -----------------
         K            0.000000000000     0.000000000000     0.000000000000    38.963706486400
      Gh(O)           2.508782000000    -0.141844000000     0.410377000000    15.994914619570
      Gh(H)           2.562458000000     0.762794000000     0.130963000000     1.007825032230
      Gh(H)           3.441425000000    -0.376554000000     0.562283000000     1.007825032230
      Gh(O)           1.412786000000    -1.432695000000    -1.957736000000    15.994914619570
      Gh(H)           2.326943000000    -1.625764000000    -2.277906000000     1.007825032230
      Gh(H)           0.935548000000    -2.250073000000    -1.821873000000     1.007825032230
      Gh(O)          -1.020538000000     1.606119000000     1.754091000000    15.994914619570
      Gh(H)          -1.273693000000     2.198824000000     1.035375000000     1.007825032230
      Gh(H)          -0.603547000000     2.090252000000     2.409861000000     1.007825032230
      Gh(O)          -1.392791000000    -1.909610000000     1.353410000000    15.994914619570
      Gh(H)          -1.147644000000    -2.832730000000     1.686886000000     1.007825032230
      Gh(H)          -2.369302000000    -1.909809000000     0.980002000000     1.007825032230
      Gh(O)          -1.194174000000    -0.015023000000    -2.323203000000    15.994914619570
      Gh(H)          -1.115379000000    -0.877981000000    -2.766013000000     1.007825032230
      Gh(H)          -2.152801000000     0.190925000000    -2.210689000000     1.007825032230

  Charge       = 1
  Multiplicity = 1
  Basis Set: AUG-CC-PVTZ
    Blend: AUG-CC-PVTZ
  Basis Set: (AUG-CC-PVTZ AUX)
    Blend: AUG-CC-PVTZ-JKFIT + DEF2-UNIVERSAL-JKFIT

    Orbital Energies [Eh]
    ---------------------

    Doubly Occupied:

       1A   -133.752521     2A    -14.708216     3A    -11.738277
       4A    -11.738275     5A    -11.738274     6A     -1.963891
       7A     -1.170608     8A     -1.170592     9A     -1.170575

  @DF-RHF Final Energy:  -599.01751655442536

   => Energetics <=

    Nuclear Repulsion Energy =              0.0000000000000000
    One-Electron Energy =                -819.7325784498185612
    Two-Electron Energy =                 220.7150618953932337
    Total Energy =                       -599.0175165544253559
 Dipole X            :         -0.0000123            0.0000000           -0.0000123
 Dipole Y            :         -0.0000901            0.0000000           -0.0000901
 Dipole Z            :         -0.0000574            0.0000000           -0.0000574
 Magnitude           :                                                    0.0001075
  Basis Set: (AUG-CC-PVTZ AUX)
    Blend: AUG-CC-PVTZ-RI + DEF2-QZVPP-RI
	 Reference Energy          =    -599.0175165544253559 [Eh]
	 Singles Energy            =      -0.0000000000000000 [Eh]
	 Same-Spin Energy          =      -0.0383820823770122 [Eh]
	 Opposite-Spin Energy      =      -0.0940193038257214 [Eh]
	 Correlation Energy        =      -0.1324013862027335 [Eh]
	 Total Energy              =    -599.1499179406281428 [Eh]

	 ================> DF-SCS-MP2 Energies <==================
	-----------------------------------------------------------
	 SCS Same-Spin Scale       =       0.3333333333333333 [-]
	 SCS Opposite-Spin Scale   =       1.2000000000000000 [-]
	 SCS Same-Spin Energy      =      -0.0127940274590041 [Eh]
	 SCS Opposite-Spin Energy  =      -0.1128231645908656 [Eh]
	 SCS Correlation Energy    =      -0.1256171920498697 [Eh]
	 SCS Total Energy          =    -599.1431337464752005 [Eh]
	-----------------------------------------------------------

*** Psi4 exiting successfully. Buy a developer a beer!
