                               Psi4 1.9 release

  ==> Input File <==

--------------------------------------------------------------------------
MEMORY 60 GB

molecule dimer {
1 1
K          0.000000     0.000000     0.000000
O         -2.448527    -0.291095    -1.019181
H         -2.813473     0.376710    -0.455549
H         -2.996059    -1.063636    -0.906107
O         -0.359694    -2.647424     0.173385
H         -0.129317    -3.280336    -0.543745
H         -0.768006    -3.148797     0.926610
O          2.782323     0.361715    -0.387797
H          3.104084     1.127188     0.048438
H          3.129044    -0.410494     0.120079
O          1.143816     0.172493     2.326214
H          2.118111     0.190490     2.431222
H          0.790123    -0.238853     3.124352
O         -0.785943     2.820602    -0.803775
H         -1.653070     3.218136    -0.938106
H         -0.338429     3.318736    -0.088312

units ang
no_reorient
no_com
symmetry c1
}

set {
basis        aug-cc-pVTZ
scf_type     df
}

energy("mp2")
--------------------------------------------------------------------------

    Molecular point group: c1

    Geometry (in Angstrom), charge = 1, multiplicity = 1:

       Center              X                  Y                   Z               Mass
    ------------   -----------------  -----------------  -----------------  -----------------
         K            0.000000000000     0.000000000000     0.000000000000    38.963706486400
         O           -2.448527000000    -0.291095000000    -1.019181000000    15.994914619570
         H           -2.813473000000     0.376710000000    -0.455549000000     1.007825032230
         H           -2.996059000000    -1.063636000000    -0.906107000000     1.007825032230
         O           -0.359694000000    -2.647424000000     0.173385000000    15.994914619570
         H           -0.129317000000    -3.280336000000    -0.543745000000     1.007825032230
         H           -0.768006000000    -3.148797000000     0.926610000000     1.007825032230
         O            2.782323000000     0.361715000000    -0.387797000000    15.994914619570
         H            3.104084000000     1.127188000000     0.048438000000     1.007825032230
         H            3.129044000000    -0.410494000000     0.120079000000     1.007825032230
         O            1.143816000000     0.172493000000     2.326214000000    15.994914619570
         H            2.118111000000     0.190490000000     2.431222000000     1.007825032230
         H            0.790123000000    -0.238853000000     3.124352000000     1.007825032230
         O           -0.785943000000     2.820602000000    -0.803775000000    15.994914619570
         H           -1.653070000000     3.218136000000    -0.938106000000     1.007825032230
         H           -0.338429000000     3.318736000000    -0.088312000000     1.007825032230

  Charge       = 1
  Multiplicity = 1
  Basis Set: AUG-CC-PVTZ
    Blend: AUG-CC-PVTZ
  Basis Set: (AUG-CC-PVTZ AUX)
    Blend: AUG-CC-PVTZ-JKFIT + DEF2-UNIVERSAL-JKFIT

    Orbital Energies [Eh]
    ---------------------

    Doubly Occupied:

       1A   -133.595858     2A    -20.727464     3A    -20.718259
       4A    -20.709247     5A    -20.702586     6A    -20.700134
       7A    -14.554003     8A    -11.583927     9A    -11.583773
      10A    -11.583702    11A     -1.817904    12A     -1.508283
      13A     -1.497475    14A     -1.494915    15A     -1.487334
      16A     -1.477313    17A     -1.029664    18A     -1.028073
      19A     -1.027271    20A     -0.875751    21A     -0.864831
      22A     -0.861503    23A     -0.859576    24A     -0.848078
      25A     -0.748618    26A     -0.730929    27A     -0.727229
      28A     -0.725943    29A     -0.712393    30A     -0.673922
      31A     -0.662735    32A     -0.655127    33A     -0.649606
      34A     -0.642915

  @DF-RHF Final Energy:  -979.39293078869946

   => Energetics <=

    Nuclear Repulsion Energy =            345.7285706178125224
    One-Electron Energy =               -2030.1103163758650680
    Two-Electron Energy =                 704.9888149693531432
    Total Energy =                       -979.3929307886994593
 Dipole X            :         -5.9842345            5.8558984           -0.1283361
 Dipole Y            :         -7.0324556            6.4618656           -0.5705900
 Dipole Z            :         -9.2761328           11.3943871            2.1182543
 Magnitude           :                                                    2.1975087
  Basis Set: (AUG-CC-PVTZ AUX)
    Blend: AUG-CC-PVTZ-RI + DEF2-QZVPP-RI
	 Reference Energy          =    -979.3929307886994593 [Eh]
	 Singles Energy            =      -0.0000000000000000 [Eh]
	 Same-Spin Energy          =      -0.3850559942131594 [Eh]
	 Opposite-Spin Energy      =      -1.1731388712152282 [Eh]
	 Correlation Energy        =      -1.5581948654283877 [Eh]
	 Total Energy              =    -980.9511256541278499 [Eh]

	 ================> DF-SCS-MP2 Energies <==================
	-----------------------------------------------------------
	 SCS Same-Spin Scale       =       0.3333333333333333 [-]
	 SCS Opposite-Spin Scale   =       1.2000000000000000 [-]
	 SCS Same-Spin Energy      =      -0.1283519980710531 [Eh]
	 SCS Opposite-Spin Energy  =      -1.4077666454582738 [Eh]
	 SCS Correlation Energy    =      -1.5361186435293268 [Eh]
	 SCS Total Energy          =    -980.9290494322287941 [Eh]
	-----------------------------------------------------------

*** Psi4 exiting successfully. Buy a developer a beer!
