                               Psi4 1.9 release

  ==> Input File <==

--------------------------------------------------------------------------
MEMORY 60 GB

molecule dimer {
0 1
Gh(K)      0.000000     0.000000     0.000000
Gh(O)     -1.748582    -1.917623     0.824916
Gh(H)     -1.927657    -2.525574     0.033501
Gh(H)     -1.050096    -2.347738     1.319853
Gh(O)     -1.621019    -0.026661    -2.495029
Gh(H)     -2.157829     0.783290    -2.142273
Gh(H)     -0.938955     0.298904    -3.093444
Gh(O)      1.590594     2.164731    -0.894823
Gh(H)      1.235565     3.044904    -0.640630
Gh(H)      1.783507     2.237495    -1.824659
Gh(O)     -1.616151     1.949068     0.718448
Gh(H)     -1.919618     2.437775    -0.050766
Gh(H)     -2.417592     1.668498     1.285757
O          1.392847    -1.450900    -1.792945
H          2.296831    -1.347027    -1.608727
H          1.207511    -1.120090    -2.693635

units ang
no_reorient
no_com
symmetry c1
}

set {
basis        aug-cc-pVTZ
scf_type     df
}

energy("mp2")
--------------------------------------------------------------------------

    Molecular point group: c1

    Geometry (in Angstrom), charge = 0, multiplicity = 1:

       Center              X                  Y                   Z               Mass
    ------------   -----------------  -----------------  -----------------  -----------------
      Gh(K)           0.000000000000     0.000000000000     0.000000000000    38.963706486400
      Gh(O)          -1.748582000000    -1.917623000000     0.824916000000    15.994914619570
      Gh(H)          -1.927657000000    -2.525574000000     0.033501000000     1.007825032230
      Gh(H)          -1.050096000000    -2.347738000000     1.319853000000     1.007825032230
      Gh(O)          -1.621019000000    -0.026661000000    -2.495029000000    15.994914619570
      Gh(H)          -2.157829000000     0.783290000000    -2.142273000000     1.007825032230
      Gh(H)          -0.938955000000     0.298904000000    -3.093444000000     1.007825032230
      Gh(O)           1.590594000000     2.164731000000    -0.894823000000    15.994914619570
      Gh(H)           1.235565000000     3.044904000000    -0.640630000000     1.007825032230
      Gh(H)           1.783507000000     2.237495000000    -1.824659000000     1.007825032230
      Gh(O)          -1.616151000000     1.949068000000     0.718448000000    15.994914619570
      Gh(H)          -1.919618000000     2.437775000000    -0.050766000000     1.007825032230
      Gh(H)          -2.417592000000     1.668498000000     1.285757000000     1.007825032230
         O            1.392847000000    -1.450900000000    -1.792945000000    15.994914619570
         H            2.296831000000    -1.347027000000    -1.608727000000     1.007825032230
         H            1.207511000000    -1.120090000000    -2.693635000000     1.007825032230

  Charge       = 0
  Multiplicity = 1
  Basis Set: AUG-CC-PVTZ
    Blend: AUG-CC-PVTZ
  Basis Set: (AUG-CC-PVTZ AUX)
    Blend: AUG-CC-PVTZ-JKFIT + DEF2-UNIVERSAL-JKFIT

    Orbital Energies [Eh]
    ---------------------

    Doubly Occupied:

       1A    -20.564032     2A     -1.353046     3A     -0.729349
       4A     -0.576324     5A     -0.509354

  @DF-RHF Final Energy:   -76.05944821370603

   => Energetics <=

    Nuclear Repulsion Energy =              9.2324010838812036
    One-Electron Energy =                -123.1194863690579808
    Two-Electron Energy =                  37.8276370714707468
    Total Energy =                        -76.0594482137060339
 Dipole X            :        -27.1872595           27.6790415            0.4917821
 Dipole Y            :         26.8895782          -26.5966045            0.2929737
 Dipole Z            :         34.7556011          -35.2356859           -0.4800849
 Magnitude           :                                                    0.7471042
  Basis Set: (AUG-CC-PVTZ AUX)
    Blend: AUG-CC-PVTZ-RI + DEF2-QZVPP-RI
	 Reference Energy          =     -76.0594482137060339 [Eh]
	 Singles Energy            =      -0.0000000000000000 [Eh]
	 Same-Spin Energy          =      -0.0682373070011207 [Eh]
	 Opposite-Spin Energy      =      -0.2151736608613407 [Eh]
	 Correlation Energy        =      -0.2834109678624614 [Eh]
	 Total Energy              =     -76.3428591815684996 [Eh]

	 ================> DF-SCS-MP2 Energies <==================
	-----------------------------------------------------------
	 SCS Same-Spin Scale       =       0.3333333333333333 [-]
	 SCS Opposite-Spin Scale   =       1.2000000000000000 [-]
	 SCS Same-Spin Energy      =      -0.0227457690003736 [Eh]
	 SCS Opposite-Spin Energy  =      -0.2582083930336089 [Eh]
	 SCS Correlation Energy    =      -0.2809541620339824 [Eh]
	 SCS Total Energy          =     -76.3404023757400125 [Eh]
	-----------------------------------------------------------

*** Psi4 exiting successfully. Buy a developer a beer!
