                               Psi4 1.9 release

  ==> Input File <==

--------------------------------------------------------------------------
MEMORY 60 GB

molecule dimer {
0 1
Gh(K)      0.000000     0.000000     0.000000
Gh(O)     -1.079975    -2.519084    -1.114293
Gh(H)     -1.161689    -2.449086    -2.142292
Gh(H)     -0.354682    -3.093749    -0.915162
Gh(O)      1.908494     1.199004     1.428095
Gh(H)      1.949247     2.134957     1.646687
Gh(H)      2.266614     0.791491     2.173180
O          1.456059     1.407035    -1.667662
H          2.234873     1.586585    -1.148718
H          1.247923     2.161680    -2.201385
Gh(O)      2.223638    -1.618894    -0.002776
Gh(H)      2.648935    -1.081482     0.723639
Gh(H)      2.271674    -2.530630     0.297885
Gh(O)     -2.357044     0.556742    -0.791296
Gh(H)     -2.362310     1.515093    -0.520705
Gh(H)     -2.704638     0.650218    -1.700959
Gh(O)     -1.360042    -0.673605     2.109571
Gh(H)     -2.212517    -0.566043     1.680662
Gh(H)     -1.415840    -1.458593     2.705608

units ang
no_reorient
no_com
symmetry c1
}

set {
basis        aug-cc-pVTZ
scf_type     df
}

energy("mp2")
--------------------------------------------------------------------------

    Molecular point group: c1

    Geometry (in Angstrom), charge = 0, multiplicity = 1:

       Center              X                  Y                   Z               Mass
    ------------   -----------------  -----------------  -----------------  -----------------
      Gh(K)           0.000000000000     0.000000000000     0.000000000000    38.963706486400
      Gh(O)          -1.079975000000    -2.519084000000    -1.114293000000    15.994914619570
      Gh(H)          -1.161689000000    -2.449086000000    -2.142292000000     1.007825032230
      Gh(H)          -0.354682000000    -3.093749000000    -0.915162000000     1.007825032230
      Gh(O)           1.908494000000     1.199004000000     1.428095000000    15.994914619570
      Gh(H)           1.949247000000     2.134957000000     1.646687000000     1.007825032230
      Gh(H)           2.266614000000     0.791491000000     2.173180000000     1.007825032230
         O            1.456059000000     1.407035000000    -1.667662000000    15.994914619570
         H            2.234873000000     1.586585000000    -1.148718000000     1.007825032230
         H            1.247923000000     2.161680000000    -2.201385000000     1.007825032230
      Gh(O)           2.223638000000    -1.618894000000    -0.002776000000    15.994914619570
      Gh(H)           2.648935000000    -1.081482000000     0.723639000000     1.007825032230
      Gh(H)           2.271674000000    -2.530630000000     0.297885000000     1.007825032230
      Gh(O)          -2.357044000000     0.556742000000    -0.791296000000    15.994914619570
      Gh(H)          -2.362310000000     1.515093000000    -0.520705000000     1.007825032230
      Gh(H)          -2.704638000000     0.650218000000    -1.700959000000     1.007825032230
      Gh(O)          -1.360042000000    -0.673605000000     2.109571000000    15.994914619570
      Gh(H)          -2.212517000000    -0.566043000000     1.680662000000     1.007825032230
      Gh(H)          -1.415840000000    -1.458593000000     2.705608000000     1.007825032230

  Charge       = 0
  Multiplicity = 1
  Basis Set: AUG-CC-PVTZ
    Blend: AUG-CC-PVTZ
  Basis Set: (AUG-CC-PVTZ AUX)
    Blend: AUG-CC-PVTZ-JKFIT + DEF2-UNIVERSAL-JKFIT

    Orbital Energies [Eh]
    ---------------------

    Doubly Occupied:

       1A    -20.563497     2A     -1.353531     3A     -0.731429
       4A     -0.576197     5A     -0.509406

  @DF-RHF Final Energy:   -76.06074741962678

   => Energetics <=

    Nuclear Repulsion Energy =              9.2513556007366784
    One-Electron Energy =                -123.1560843959584588
    Two-Electron Energy =                  37.8439813755950070
    Total Energy =                        -76.0607474196267788
 Dipole X            :        -28.2069905           28.5939525            0.3869620
 Dipole Y            :        -27.7199904           28.3544807            0.6344903
 Dipole Z            :         31.5314870          -31.5421728           -0.0106857
 Magnitude           :                                                    0.7432575
  Basis Set: (AUG-CC-PVTZ AUX)
    Blend: AUG-CC-PVTZ-RI + DEF2-QZVPP-RI
	 Reference Energy          =     -76.0607474196267788 [Eh]
	 Singles Energy            =      -0.0000000000000000 [Eh]
	 Same-Spin Energy          =      -0.0682042975089802 [Eh]
	 Opposite-Spin Energy      =      -0.2150518686767312 [Eh]
	 Correlation Energy        =      -0.2832561661857114 [Eh]
	 Total Energy              =     -76.3440035858124872 [Eh]

	 ================> DF-SCS-MP2 Energies <==================
	-----------------------------------------------------------
	 SCS Same-Spin Scale       =       0.3333333333333333 [-]
	 SCS Opposite-Spin Scale   =       1.2000000000000000 [-]
	 SCS Same-Spin Energy      =      -0.0227347658363267 [Eh]
	 SCS Opposite-Spin Energy  =      -0.2580622424120775 [Eh]
	 SCS Correlation Energy    =      -0.2807970082484042 [Eh]
	 SCS Total Energy          =     -76.3415444278751778 [Eh]
	-----------------------------------------------------------

*** Psi4 exiting successfully. Buy a developer a beer!
