                               Psi4 1.9 release

  ==> Input File <==

--------------------------------------------------------------------------
MEMORY 60 GB

molecule dimer {
1 1
K          0.000000     0.000000     0.000000
O         -1.624696     1.170589    -1.773297
H         -2.481887     0.884131    -1.505250
H         -1.740444     1.131366    -2.691646
O          1.825084     2.002345    -0.856271
H          2.736729     1.760906    -0.931498
H          1.835268     2.896585    -0.440370
O          2.864344    -0.844859     0.005723
H          2.698983    -1.133793    -0.900163
H          3.529909    -0.153569    -0.092673
O          0.154222    -1.854253     2.188230
H          0.676628    -2.434760     1.536156
H          0.442297    -1.788222     3.119830
O         -1.619276     1.879651     1.526773
H         -1.466252     1.473301     2.383724
H         -2.509648     2.026489     1.441369
O         -0.827346    -1.993974    -1.708939
H         -1.116939    -1.685994    -2.556826
H         -1.616419    -2.415908    -1.284760

units ang
no_reorient
no_com
symmetry c1
}

set {
basis        aug-cc-pVTZ
scf_type     df
}

energy("mp2")
--------------------------------------------------------------------------

    Molecular point group: c1

    Geometry (in Angstrom), charge = 1, multiplicity = 1:

       Center              X                  Y                   Z               Mass
    ------------   -----------------  -----------------  -----------------  -----------------
         K            0.000000000000     0.000000000000     0.000000000000    38.963706486400
         O           -1.624696000000     1.170589000000    -1.773297000000    15.994914619570
         H           -2.481887000000     0.884131000000    -1.505250000000     1.007825032230
         H           -1.740444000000     1.131366000000    -2.691646000000     1.007825032230
         O            1.825084000000     2.002345000000    -0.856271000000    15.994914619570
         H            2.736729000000     1.760906000000    -0.931498000000     1.007825032230
         H            1.835268000000     2.896585000000    -0.440370000000     1.007825032230
         O            2.864344000000    -0.844859000000     0.005723000000    15.994914619570
         H            2.698983000000    -1.133793000000    -0.900163000000     1.007825032230
         H            3.529909000000    -0.153569000000    -0.092673000000     1.007825032230
         O            0.154222000000    -1.854253000000     2.188230000000    15.994914619570
         H            0.676628000000    -2.434760000000     1.536156000000     1.007825032230
         H            0.442297000000    -1.788222000000     3.119830000000     1.007825032230
         O           -1.619276000000     1.879651000000     1.526773000000    15.994914619570
         H           -1.466252000000     1.473301000000     2.383724000000     1.007825032230
         H           -2.509648000000     2.026489000000     1.441369000000     1.007825032230
         O           -0.827346000000    -1.993974000000    -1.708939000000    15.994914619570
         H           -1.116939000000    -1.685994000000    -2.556826000000     1.007825032230
         H           -1.616419000000    -2.415908000000    -1.284760000000     1.007825032230

  Charge       = 1
  Multiplicity = 1
  Basis Set: AUG-CC-PVTZ
    Blend: AUG-CC-PVTZ
  Basis Set: (AUG-CC-PVTZ AUX)
    Blend: AUG-CC-PVTZ-JKFIT + DEF2-UNIVERSAL-JKFIT

    Orbital Energies [Eh]
    ---------------------

    Doubly Occupied:

       1A   -133.594216     2A    -20.715754     3A    -20.706989
       4A    -20.706617     5A    -20.702322     6A    -20.697319
       7A    -20.694105     8A    -14.551917     9A    -11.581807
      10A    -11.581756    11A    -11.581696    12A     -1.814449
      13A     -1.515681    14A     -1.498721    15A     -1.497902
      16A     -1.491346    17A     -1.484930    18A     -1.458561
      19A     -1.025012    20A     -1.024467    21A     -1.023595
      22A     -0.872284    23A     -0.864977    24A     -0.862053
      25A     -0.855629    26A     -0.853739    27A     -0.846250
      28A     -0.750132    29A     -0.734689    30A     -0.726880
      31A     -0.723804    32A     -0.719634    33A     -0.686898
      34A     -0.671481    35A     -0.657749    36A     -0.651564
      37A     -0.647699    38A     -0.641033    39A     -0.637109

  @DF-RHF Final Energy: -1055.44889161062815

   => Energetics <=

    Nuclear Repulsion Energy =            447.0426811869364769
    One-Electron Energy =               -2336.2776060428427627
    Two-Electron Energy =                 833.7860332452780767
    Total Energy =                      -1055.4488916106281522
 Dipole X            :        -13.9067877           13.5434423           -0.3633454
 Dipole Y            :         -6.5140338            6.4940892           -0.0199446
 Dipole Z            :         12.4653149          -12.9717510           -0.5064361
 Magnitude           :                                                    0.6236147
  Basis Set: (AUG-CC-PVTZ AUX)
    Blend: AUG-CC-PVTZ-RI + DEF2-QZVPP-RI
	 Reference Energy          =   -1055.4488916106281522 [Eh]
	 Singles Energy            =      -0.0000000000000000 [Eh]
	 Same-Spin Energy          =      -0.4546199179027782 [Eh]
	 Opposite-Spin Energy      =      -1.3901399234636354 [Eh]
	 Correlation Energy        =      -1.8447598413664135 [Eh]
	 Total Energy              =   -1057.2936514519944922 [Eh]

	 ================> DF-SCS-MP2 Energies <==================
	-----------------------------------------------------------
	 SCS Same-Spin Scale       =       0.3333333333333333 [-]
	 SCS Opposite-Spin Scale   =       1.2000000000000000 [-]
	 SCS Same-Spin Energy      =      -0.1515399726342594 [Eh]
	 SCS Opposite-Spin Energy  =      -1.6681679081563623 [Eh]
	 SCS Correlation Energy    =      -1.8197078807906217 [Eh]
	 SCS Total Energy          =   -1057.2685994914188541 [Eh]
	-----------------------------------------------------------

*** Psi4 exiting successfully. Buy a developer a beer!
