                               Psi4 1.9 release

  ==> Input File <==

--------------------------------------------------------------------------
MEMORY 60 GB

molecule dimer {
0 1
Gh(K)      0.000000     0.000000     0.000000
Gh(O)     -1.079975    -2.519084    -1.114293
Gh(H)     -1.161689    -2.449086    -2.142292
Gh(H)     -0.354682    -3.093749    -0.915162
Gh(O)      1.908494     1.199004     1.428095
Gh(H)      1.949247     2.134957     1.646687
Gh(H)      2.266614     0.791491     2.173180
Gh(O)      1.456059     1.407035    -1.667662
Gh(H)      2.234873     1.586585    -1.148718
Gh(H)      1.247923     2.161680    -2.201385
Gh(O)      2.223638    -1.618894    -0.002776
Gh(H)      2.648935    -1.081482     0.723639
Gh(H)      2.271674    -2.530630     0.297885
Gh(O)     -2.357044     0.556742    -0.791296
Gh(H)     -2.362310     1.515093    -0.520705
Gh(H)     -2.704638     0.650218    -1.700959
O         -1.360042    -0.673605     2.109571
H         -2.212517    -0.566043     1.680662
H         -1.415840    -1.458593     2.705608

units ang
no_reorient
no_com
symmetry c1
}

set {
basis        aug-cc-pVTZ
scf_type     df
}

energy("mp2")
--------------------------------------------------------------------------

    Molecular point group: c1

    Geometry (in Angstrom), charge = 0, multiplicity = 1:

       Center              X                  Y                   Z               Mass
    ------------   -----------------  -----------------  -----------------  -----------------
      Gh(K)           0.000000000000     0.000000000000     0.000000000000    38.963706486400
      Gh(O)          -1.079975000000    -2.519084000000    -1.114293000000    15.994914619570
      Gh(H)          -1.161689000000    -2.449086000000    -2.142292000000     1.007825032230
      Gh(H)          -0.354682000000    -3.093749000000    -0.915162000000     1.007825032230
      Gh(O)           1.908494000000     1.199004000000     1.428095000000    15.994914619570
      Gh(H)           1.949247000000     2.134957000000     1.646687000000     1.007825032230
      Gh(H)           2.266614000000     0.791491000000     2.173180000000     1.007825032230
      Gh(O)           1.456059000000     1.407035000000    -1.667662000000    15.994914619570
      Gh(H)           2.234873000000     1.586585000000    -1.148718000000     1.007825032230
      Gh(H)           1.247923000000     2.161680000000    -2.201385000000     1.007825032230
      Gh(O)           2.223638000000    -1.618894000000    -0.002776000000    15.994914619570
      Gh(H)           2.648935000000    -1.081482000000     0.723639000000     1.007825032230
      Gh(H)           2.271674000000    -2.530630000000     0.297885000000     1.007825032230
      Gh(O)          -2.357044000000     0.556742000000    -0.791296000000    15.994914619570
      Gh(H)          -2.362310000000     1.515093000000    -0.520705000000     1.007825032230
      Gh(H)          -2.704638000000     0.650218000000    -1.700959000000     1.007825032230
         O           -1.360042000000    -0.673605000000     2.109571000000    15.994914619570
         H           -2.212517000000    -0.566043000000     1.680662000000     1.007825032230
         H           -1.415840000000    -1.458593000000     2.705608000000     1.007825032230

  Charge       = 0
  Multiplicity = 1
  Basis Set: AUG-CC-PVTZ
    Blend: AUG-CC-PVTZ
  Basis Set: (AUG-CC-PVTZ AUX)
    Blend: AUG-CC-PVTZ-JKFIT + DEF2-UNIVERSAL-JKFIT

    Orbital Energies [Eh]
    ---------------------

    Doubly Occupied:

       1A    -20.568305     2A     -1.342921     3A     -0.715174
       4A     -0.574958     5A     -0.507937

  @DF-RHF Final Energy:   -76.05858822161261

   => Energetics <=

    Nuclear Repulsion Energy =              9.0324405296411445
    One-Electron Energy =                -122.7634652424741262
    Two-Electron Energy =                  37.6724364912203669
    Total Energy =                        -76.0585882216126095
 Dipole X            :         26.8109893          -27.4174562           -0.6064669
 Dipole Y            :         13.5611609          -14.0094393           -0.4482784
 Dipole Z            :        -40.0722862           40.1809405            0.1086542
 Magnitude           :                                                    0.7619458
  Basis Set: (AUG-CC-PVTZ AUX)
    Blend: AUG-CC-PVTZ-RI + DEF2-QZVPP-RI
	 Reference Energy          =     -76.0585882216126095 [Eh]
	 Singles Energy            =      -0.0000000000000000 [Eh]
	 Same-Spin Energy          =      -0.0686227967852394 [Eh]
	 Opposite-Spin Energy      =      -0.2163779847886197 [Eh]
	 Correlation Energy        =      -0.2850007815738591 [Eh]
	 Total Energy              =     -76.3435890031864659 [Eh]

	 ================> DF-SCS-MP2 Energies <==================
	-----------------------------------------------------------
	 SCS Same-Spin Scale       =       0.3333333333333333 [-]
	 SCS Opposite-Spin Scale   =       1.2000000000000000 [-]
	 SCS Same-Spin Energy      =      -0.0228742655950798 [Eh]
	 SCS Opposite-Spin Energy  =      -0.2596535817463436 [Eh]
	 SCS Correlation Energy    =      -0.2825278473414234 [Eh]
	 SCS Total Energy          =     -76.3411160689540367 [Eh]
	-----------------------------------------------------------

*** Psi4 exiting successfully. Buy a developer a beer!
