                               Psi4 1.9 release

  ==> Input File <==

--------------------------------------------------------------------------
MEMORY 60 GB

molecule dimer {
0 1
Gh(K)      0.000000     0.000000     0.000000
Gh(O)      2.210706     1.169674     1.148820
Gh(H)      2.542276     0.564502     1.883025
Gh(H)      2.469189     2.058712     1.390268
Gh(O)     -0.157161     0.568570    -2.648263
Gh(H)      0.654664     1.115551    -2.877620
Gh(H)     -0.061308    -0.316781    -3.128151
Gh(O)      1.720062    -1.820533    -1.495334
Gh(H)      1.720440    -2.330188    -2.342644
Gh(H)      2.311599    -2.331956    -0.890084
Gh(O)     -1.760100     1.823148     0.416399
Gh(H)     -1.645011     2.388567     1.190595
Gh(H)     -1.171767     2.247211    -0.232701
O          0.101240    -2.179944     1.333505
H         -0.422830    -2.543391     0.610743
H          1.012164    -2.546319     1.146336

units ang
no_reorient
no_com
symmetry c1
}

set {
basis        aug-cc-pVTZ
scf_type     df
}

energy("mp2")
--------------------------------------------------------------------------

    Molecular point group: c1

    Geometry (in Angstrom), charge = 0, multiplicity = 1:

       Center              X                  Y                   Z               Mass
    ------------   -----------------  -----------------  -----------------  -----------------
      Gh(K)           0.000000000000     0.000000000000     0.000000000000    38.963706486400
      Gh(O)           2.210706000000     1.169674000000     1.148820000000    15.994914619570
      Gh(H)           2.542276000000     0.564502000000     1.883025000000     1.007825032230
      Gh(H)           2.469189000000     2.058712000000     1.390268000000     1.007825032230
      Gh(O)          -0.157161000000     0.568570000000    -2.648263000000    15.994914619570
      Gh(H)           0.654664000000     1.115551000000    -2.877620000000     1.007825032230
      Gh(H)          -0.061308000000    -0.316781000000    -3.128151000000     1.007825032230
      Gh(O)           1.720062000000    -1.820533000000    -1.495334000000    15.994914619570
      Gh(H)           1.720440000000    -2.330188000000    -2.342644000000     1.007825032230
      Gh(H)           2.311599000000    -2.331956000000    -0.890084000000     1.007825032230
      Gh(O)          -1.760100000000     1.823148000000     0.416399000000    15.994914619570
      Gh(H)          -1.645011000000     2.388567000000     1.190595000000     1.007825032230
      Gh(H)          -1.171767000000     2.247211000000    -0.232701000000     1.007825032230
         O            0.101240000000    -2.179944000000     1.333505000000    15.994914619570
         H           -0.422830000000    -2.543391000000     0.610743000000     1.007825032230
         H            1.012164000000    -2.546319000000     1.146336000000     1.007825032230

  Charge       = 0
  Multiplicity = 1
  Basis Set: AUG-CC-PVTZ
    Blend: AUG-CC-PVTZ
  Basis Set: (AUG-CC-PVTZ AUX)
    Blend: AUG-CC-PVTZ-JKFIT + DEF2-UNIVERSAL-JKFIT

    Orbital Energies [Eh]
    ---------------------

    Doubly Occupied:

       1A    -20.572141     2A     -1.342879     3A     -0.700941
       4A     -0.583882     5A     -0.509007

  @DF-RHF Final Energy:   -76.05729771736843

   => Energetics <=

    Nuclear Repulsion Energy =              8.9728345628317854
    One-Electron Energy =                -122.6425609329039048
    Two-Electron Energy =                  37.6124286527036915
    Total Energy =                        -76.0572977173684137
 Dipole X            :         -2.3983252            2.6442068            0.2458816
 Dipole Y            :         42.0985644          -42.5741350           -0.4755706
 Dipole Z            :        -24.0749806           23.4800720           -0.5949086
 Magnitude           :                                                    0.8003383
  Basis Set: (AUG-CC-PVTZ AUX)
    Blend: AUG-CC-PVTZ-RI + DEF2-QZVPP-RI
	 Reference Energy          =     -76.0572977173684279 [Eh]
	 Singles Energy            =      -0.0000000000000000 [Eh]
	 Same-Spin Energy          =      -0.0688580571194261 [Eh]
	 Opposite-Spin Energy      =      -0.2171083140335493 [Eh]
	 Correlation Energy        =      -0.2859663711529754 [Eh]
	 Total Energy              =     -76.3432640885214084 [Eh]

	 ================> DF-SCS-MP2 Energies <==================
	-----------------------------------------------------------
	 SCS Same-Spin Scale       =       0.3333333333333333 [-]
	 SCS Opposite-Spin Scale   =       1.2000000000000000 [-]
	 SCS Same-Spin Energy      =      -0.0229526857064754 [Eh]
	 SCS Opposite-Spin Energy  =      -0.2605299768402591 [Eh]
	 SCS Correlation Energy    =      -0.2834826625467345 [Eh]
	 SCS Total Energy          =     -76.3407803799151594 [Eh]
	-----------------------------------------------------------

*** Psi4 exiting successfully. Buy a developer a beer!
