                               Psi4 1.9 release

  ==> Input File <==

--------------------------------------------------------------------------
MEMORY 60 GB

molecule dimer {
1 1
K      0.000000     0.000000     0.000000
--
0 1
O     -2.788678     0.406415     0.653974
H     -3.199869     0.958424    -0.018216
H     -2.648871     0.994298     1.339656
O     -0.538075    -0.007256    -2.587985
H     -1.178974     0.573219    -3.036130
H     -0.622551    -0.842304    -3.100694
O      1.217666    -2.504639    -1.246697
H      2.075220    -2.521579    -1.694555
H      1.096683    -3.374284    -0.758390
O     -0.231617     1.394607     2.438855
H     -0.561266     2.289091     2.589398
H      0.557946     1.311939     2.977921
O      2.575424     0.453046    -0.769981
H      2.519390    -0.471796    -0.995216
H      3.471222     0.584527    -0.443942

units ang
no_reorient
no_com
symmetry c1
}

set {
basis        aug-cc-pVTZ
scf_type     df
}

energy("mp2", bsse_type="cp")
--------------------------------------------------------------------------

                               Psi4 1.9 release
    Molecular point group: c1
  Charge       = 0
  Multiplicity = 1
  Basis Set: AUG-CC-PVTZ
    Blend: AUG-CC-PVTZ
  Basis Set: (AUG-CC-PVTZ AUX)
    Blend: AUG-CC-PVTZ-JKFIT + DEF2-UNIVERSAL-JKFIT
  @DF-RHF Final Energy:  -380.28473064153252
    Total Energy =                       -380.2847306415325193
 Dipole X            :         -5.7003621            6.3999166            0.6995545
 Dipole Y            :          4.7774539           -4.8397417           -0.0622878
 Dipole Z            :         28.7800568          -28.7896752           -0.0096184
 Magnitude           :                                                    0.7023879
  Basis Set: (AUG-CC-PVTZ AUX)
    Blend: AUG-CC-PVTZ-RI + DEF2-QZVPP-RI
	 Reference Energy          =    -380.2847306415325193 [Eh]
	 Singles Energy            =      -0.0000000000000000 [Eh]
	 Same-Spin Energy          =      -0.3446919920396846 [Eh]
	 Opposite-Spin Energy      =      -1.0827305218726491 [Eh]
	 Correlation Energy        =      -1.4274225139123338 [Eh]
	 Total Energy              =    -381.7121531554448666 [Eh]
	 SCS Total Energy          =    -381.6989045984595919 [Eh]
                               Psi4 1.9 release
    Molecular point group: c1
  Multiplicity = 1
  Basis Set: AUG-CC-PVTZ
    Blend: AUG-CC-PVTZ
  Basis Set: (AUG-CC-PVTZ AUX)
    Blend: AUG-CC-PVTZ-JKFIT + DEF2-UNIVERSAL-JKFIT
  @DF-RHF Final Energy:  -599.01751545441812
    Total Energy =                       -599.0175154544181169
  Basis Set: (AUG-CC-PVTZ AUX)
	 Singles Energy            =      -0.0000000000000000 [Eh]
	 Same-Spin Energy          =      -0.0364224132568798 [Eh]
	 Opposite-Spin Energy      =      -0.0886229006399110 [Eh]
	 Correlation Energy        =      -0.1250453138967908 [Eh]
	 Total Energy              =    -599.1425607683148655 [Eh]
	 SCS Total Energy          =    -599.1360037396049165 [Eh]
                               Psi4 1.9 release
    Molecular point group: c1

    Geometry (in Bohr), charge = 1, multiplicity = 1:

       Center              X                  Y                   Z               Mass
    ------------   -----------------  -----------------  -----------------  -----------------
         K            0.000000000000     0.000000000000     0.000000000000    38.963706486400
         O           -5.269837672089     0.768013043278     1.235831753170    15.994914619570
         H           -6.046876047343     1.811158872066    -0.034423251101     1.007825032230
         H           -5.005640731668     1.878950907090     2.531582942326     1.007825032230
         O           -1.016814384956    -0.013711852766    -4.890582866793    15.994914619570
         H           -2.227937969036     1.083226919909    -5.737454181286     1.007825032230
         H           -1.176450889130    -1.591723874378    -5.859462458850     1.007825032230
         O            2.301055252282    -4.733081753141    -2.355915891430    15.994914619570
         H            3.921597450073    -4.765093713706    -3.202244854525     1.007825032230
         H            2.072430516445    -6.376472629514    -1.433149396286     1.007825032230
         O           -0.437692696000     2.635425282646     4.608768009703    15.994914619570
         H           -1.060639023531     4.325755066250     4.893253049808     1.007825032230
         H            1.054365132795     2.479205403307     5.627455113250     1.007825032230
         O            4.866846016931     0.856132862234    -1.455053211806    15.994914619570
         H            4.760957103217    -0.891565227087    -1.880685675674     1.007825032230
         H            6.559658900664     1.104595942935    -0.838928795588     1.007825032230

  Charge       = 1
  Multiplicity = 1
  Basis Set: AUG-CC-PVTZ
    Blend: AUG-CC-PVTZ
  Basis Set: (AUG-CC-PVTZ AUX)
    Blend: AUG-CC-PVTZ-JKFIT + DEF2-UNIVERSAL-JKFIT

    Orbital Energies [Eh]
    ---------------------

    Doubly Occupied:

       1A   -133.608473     2A    -20.722620     3A    -20.716811
       4A    -20.710604     5A    -20.706742     6A    -20.696684
       7A    -14.566095     8A    -11.596068     9A    -11.595913
      10A    -11.595857    11A     -1.828208    12A     -1.502823
      13A     -1.499504    14A     -1.496897    15A     -1.491049
      16A     -1.487355    17A     -1.039213    18A     -1.037143
      19A     -1.036933    20A     -0.870558    21A     -0.870338
      22A     -0.857031    23A     -0.855323    24A     -0.843110
      25A     -0.742039    26A     -0.735676    27A     -0.731680
      28A     -0.728752    29A     -0.727235    30A     -0.664074
      31A     -0.663076    32A     -0.655535    33A     -0.652111
      34A     -0.648358

  @DF-RHF Final Energy:  -979.39595926943446

   => Energetics <=

    Nuclear Repulsion Energy =            342.3395673994892832
    One-Electron Energy =               -2023.1112663604067166
    Two-Electron Energy =                 701.3757396914830906
    Total Energy =                       -979.3959592694344565
 Dipole X            :         -5.6690818            6.3999166            0.7308348
 Dipole Y            :          4.8105421           -4.8397417           -0.0291996
 Dipole Z            :         28.6071069          -28.7896752           -0.1825683
 Magnitude           :                                                    0.7538589
  Basis Set: (AUG-CC-PVTZ AUX)
    Blend: AUG-CC-PVTZ-RI + DEF2-QZVPP-RI
	 Reference Energy          =    -979.3959592694344565 [Eh]
	 Singles Energy            =      -0.0000000000000000 [Eh]
	 Same-Spin Energy          =      -0.3840359634553351 [Eh]
	 Opposite-Spin Energy      =      -1.1708432824826511 [Eh]
	 Correlation Energy        =      -1.5548792459379861 [Eh]
	 Total Energy              =    -980.9508385153724248 [Eh]

	 ================> DF-SCS-MP2 Energies <==================
	-----------------------------------------------------------
	 SCS Same-Spin Scale       =       0.3333333333333333 [-]
	 SCS Opposite-Spin Scale   =       1.2000000000000000 [-]
	 SCS Same-Spin Energy      =      -0.1280119878184450 [Eh]
	 SCS Opposite-Spin Energy  =      -1.4050119389791813 [Eh]
	 SCS Correlation Energy    =      -1.5330239267976262 [Eh]
	 SCS Total Energy          =    -980.9289831962321387 [Eh]
	-----------------------------------------------------------

*** Psi4 exiting successfully. Buy a developer a beer!
