                               Psi4 1.9 release

  ==> Input File <==

--------------------------------------------------------------------------
MEMORY 60 GB

molecule dimer {
1 1
K          0.000000     0.000000     0.000000
O         -1.249687    -2.212479     0.364535
H         -2.209513    -2.240427     0.194993
H         -1.217501    -2.449956     1.323026
O         -0.848192     2.494283    -0.608818
H         -1.728060     2.614033    -0.331862
H         -0.360729     3.287164    -0.498154
O         -0.354819     1.551553     2.420581
H          0.571155     1.863402     2.412682
H         -0.844927     2.239234     1.996701
O          1.824471     1.246239    -1.492036
H          2.780868     1.330448    -1.240610
H          1.596086     1.819060    -2.215030

units ang
no_reorient
no_com
symmetry c1
}

set {
basis        aug-cc-pVTZ
scf_type     df
}

energy("mp2")
--------------------------------------------------------------------------

    Molecular point group: c1

    Geometry (in Angstrom), charge = 1, multiplicity = 1:

       Center              X                  Y                   Z               Mass
    ------------   -----------------  -----------------  -----------------  -----------------
         K            0.000000000000     0.000000000000     0.000000000000    38.963706486400
         O           -1.249687000000    -2.212479000000     0.364535000000    15.994914619570
         H           -2.209513000000    -2.240427000000     0.194993000000     1.007825032230
         H           -1.217501000000    -2.449956000000     1.323026000000     1.007825032230
         O           -0.848192000000     2.494283000000    -0.608818000000    15.994914619570
         H           -1.728060000000     2.614033000000    -0.331862000000     1.007825032230
         H           -0.360729000000     3.287164000000    -0.498154000000     1.007825032230
         O           -0.354819000000     1.551553000000     2.420581000000    15.994914619570
         H            0.571155000000     1.863402000000     2.412682000000     1.007825032230
         H           -0.844927000000     2.239234000000     1.996701000000     1.007825032230
         O            1.824471000000     1.246239000000    -1.492036000000    15.994914619570
         H            2.780868000000     1.330448000000    -1.240610000000     1.007825032230
         H            1.596086000000     1.819060000000    -2.215030000000     1.007825032230

  Charge       = 1
  Multiplicity = 1
  Basis Set: AUG-CC-PVTZ
    Blend: AUG-CC-PVTZ
  Basis Set: (AUG-CC-PVTZ AUX)
    Blend: AUG-CC-PVTZ-JKFIT + DEF2-UNIVERSAL-JKFIT

    Orbital Energies [Eh]
    ---------------------

    Doubly Occupied:

       1A   -133.621257     2A    -20.727868     3A    -20.727801
       4A    -20.720625     5A    -20.717005     6A    -14.579357
       7A    -11.609307     8A    -11.609157     9A    -11.609018
      10A     -1.842995    11A     -1.533475    12A     -1.504809
      13A     -1.503665    14A     -1.500393    15A     -1.054783
      16A     -1.052406    17A     -1.051816    18A     -0.912343
      19A     -0.880240    20A     -0.867523    21A     -0.857122
      22A     -0.757917    23A     -0.750832    24A     -0.736922
      25A     -0.733632    26A     -0.686781    27A     -0.671932
      28A     -0.666242    29A     -0.660391

  @DF-RHF Final Energy:  -903.31961789444688

   => Energetics <=

    Nuclear Repulsion Energy =            258.3065873776579338
    One-Electron Energy =               -1750.9571770783356897
    Two-Electron Energy =                 589.3309718062308775
    Total Energy =                       -903.3196178944468784
 Dipole X            :         12.0094640          -12.1668826           -0.1574186
 Dipole Y            :        -60.7811407           62.5494170            1.7682762
 Dipole Z            :        -13.3106781           13.4469925            0.1363145
 Magnitude           :                                                    1.7804952
  Basis Set: (AUG-CC-PVTZ AUX)
    Blend: AUG-CC-PVTZ-RI + DEF2-QZVPP-RI
	 Reference Energy          =    -903.3196178944468784 [Eh]
	 Singles Energy            =      -0.0000000000000000 [Eh]
	 Same-Spin Energy          =      -0.3138221346840451 [Eh]
	 Opposite-Spin Energy      =      -0.9509127860107865 [Eh]
	 Correlation Energy        =      -1.2647349206948317 [Eh]
	 Total Energy              =    -904.5843528151417559 [Eh]

	 ================> DF-SCS-MP2 Energies <==================
	-----------------------------------------------------------
	 SCS Same-Spin Scale       =       0.3333333333333333 [-]
	 SCS Opposite-Spin Scale   =       1.2000000000000000 [-]
	 SCS Same-Spin Energy      =      -0.1046073782280150 [Eh]
	 SCS Opposite-Spin Energy  =      -1.1410953432129438 [Eh]
	 SCS Correlation Energy    =      -1.2457027214409588 [Eh]
	 SCS Total Energy          =    -904.5653206158877992 [Eh]
	-----------------------------------------------------------

*** Psi4 exiting successfully. Buy a developer a beer!
