                               Psi4 1.9 release

  ==> Input File <==

--------------------------------------------------------------------------
MEMORY 60 GB

molecule dimer {
1 1
K      0.000000     0.000000     0.000000
--
0 1
O      0.293827     2.618771    -0.398133
H     -0.603386     2.977651    -0.383603
H      0.504951     2.523150    -1.349400
O      2.290662    -1.154012     1.170513
H      2.200413    -1.828377     1.847435
H      2.800025    -0.449315     1.581926
O     -0.679679    -1.715755     2.067459
H      0.176766    -2.136211     2.260417
H     -1.317277    -2.272083     1.599994
O     -2.767030     0.221449     0.099673
H     -3.057655     0.587440     0.925810
H     -3.142942    -0.646895     0.189675

units ang
no_reorient
no_com
symmetry c1
}

set {
basis        aug-cc-pVTZ
scf_type     df
}

energy("mp2", bsse_type="cp")
--------------------------------------------------------------------------

                               Psi4 1.9 release
    Molecular point group: c1
  Charge       = 0
  Multiplicity = 1
  Basis Set: AUG-CC-PVTZ
    Blend: AUG-CC-PVTZ
  Basis Set: (AUG-CC-PVTZ AUX)
    Blend: AUG-CC-PVTZ-JKFIT + DEF2-UNIVERSAL-JKFIT
  @DF-RHF Final Energy:  -304.22721084503894
    Total Energy =                       -304.2272108450389396
 Dipole X            :         17.2186367          -17.6441177           -0.4254810
 Dipole Y            :          2.0701914           -2.7987146           -0.7285232
 Dipole Z            :        -56.5767493           57.0477137            0.4709644
 Magnitude           :                                                    0.9662234
  Basis Set: (AUG-CC-PVTZ AUX)
    Blend: AUG-CC-PVTZ-RI + DEF2-QZVPP-RI
	 Reference Energy          =    -304.2272108450389396 [Eh]
	 Singles Energy            =      -0.0000000000000000 [Eh]
	 Same-Spin Energy          =      -0.2751687142696804 [Eh]
	 Opposite-Spin Energy      =      -0.8648556103174216 [Eh]
	 Correlation Energy        =      -1.1400243245871020 [Eh]
	 Total Energy              =    -305.3672351696260421 [Eh]
	 SCS Total Energy          =    -305.3567604821764121 [Eh]
                               Psi4 1.9 release
    Molecular point group: c1
  Multiplicity = 1
  Basis Set: AUG-CC-PVTZ
    Blend: AUG-CC-PVTZ
  Basis Set: (AUG-CC-PVTZ AUX)
    Blend: AUG-CC-PVTZ-JKFIT + DEF2-UNIVERSAL-JKFIT
  @DF-RHF Final Energy:  -599.01751387776108
    Total Energy =                       -599.0175138777610755
  Basis Set: (AUG-CC-PVTZ AUX)
	 Singles Energy            =      -0.0000000000000000 [Eh]
	 Same-Spin Energy          =      -0.0345689088816021 [Eh]
	 Opposite-Spin Energy      =      -0.0833013391183829 [Eh]
	 Correlation Energy        =      -0.1178702479999849 [Eh]
	 Total Energy              =    -599.1353841257611066 [Eh]
	 SCS Total Energy          =    -599.1289984543303717 [Eh]
                               Psi4 1.9 release
    Molecular point group: c1

    Geometry (in Bohr), charge = 1, multiplicity = 1:

       Center              X                  Y                   Z               Mass
    ------------   -----------------  -----------------  -----------------  -----------------
         K            0.000000000000     0.000000000000     0.000000000000    38.963706486400
         O            0.555252558265     4.948759975291    -0.752362331507    15.994914619570
         H           -1.140234287935     5.626944887196    -0.724904610904     1.007825032230
         H            0.954219096776     4.768062473449    -2.549996433693     1.007825032230
         O            4.328723825993    -2.180766625492     2.211948996288    15.994914619570
         H            4.158177932897    -3.455131784086     3.491146184585     1.007825032230
         H            5.291280394435    -0.849082294060     2.989406890741     1.007825032230
         O           -1.284407163225    -3.242307048385     3.906931285613    15.994914619570
         H            0.334039328293    -4.036853736190     4.271569059329     1.007825032230
         H           -2.489292761365    -4.293614604309     3.023550462376     1.007825032230
         O           -5.228928880926     0.418477960757     0.188354672103    15.994914619570
         H           -5.778130536137     1.110100715139     1.749527344210     1.007825032230
         H           -5.939299608199    -1.222454381928     0.358433802846     1.007825032230

  Charge       = 1
  Multiplicity = 1
  Basis Set: AUG-CC-PVTZ
    Blend: AUG-CC-PVTZ
  Basis Set: (AUG-CC-PVTZ AUX)
    Blend: AUG-CC-PVTZ-JKFIT + DEF2-UNIVERSAL-JKFIT

    Orbital Energies [Eh]
    ---------------------

    Doubly Occupied:

       1A   -133.635664     2A    -20.729114     3A    -20.728013
       4A    -20.727634     5A    -20.726852     6A    -14.593404
       7A    -11.623341     8A    -11.623210     9A    -11.623147
      10A     -1.855858    11A     -1.524695    12A     -1.516524
      13A     -1.507341    14A     -1.506329    15A     -1.066138
      16A     -1.065148    17A     -1.063802    18A     -0.899919
      19A     -0.877734    20A     -0.871259    21A     -0.868436
      22A     -0.765630    23A     -0.752224    24A     -0.744636
      25A     -0.730218    26A     -0.684110    27A     -0.676683
      28A     -0.672686    29A     -0.667993

  @DF-RHF Final Energy:  -903.31222979480265

   => Energetics <=

    Nuclear Repulsion Energy =            254.9881192547522915
    One-Electron Energy =               -1743.9452095662109059
    Two-Electron Energy =                 585.6448605166559673
    Total Energy =                       -903.3122297948026471
 Dipole X            :         17.1180617          -17.6441177           -0.5260560
 Dipole Y            :          2.0812535           -2.7987146           -0.7174611
 Dipole Z            :        -56.2818798           57.0477137            0.7658339
 Magnitude           :                                                    1.1738769
  Basis Set: (AUG-CC-PVTZ AUX)
    Blend: AUG-CC-PVTZ-RI + DEF2-QZVPP-RI
	 Reference Energy          =    -903.3122297948026471 [Eh]
	 Singles Energy            =      -0.0000000000000000 [Eh]
	 Same-Spin Energy          =      -0.3126894505106838 [Eh]
	 Opposite-Spin Energy      =      -0.9486707065524020 [Eh]
	 Correlation Energy        =      -1.2613601570630859 [Eh]
	 Total Energy              =    -904.5735899518657561 [Eh]

	 ================> DF-SCS-MP2 Energies <==================
	-----------------------------------------------------------
	 SCS Same-Spin Scale       =       0.3333333333333333 [-]
	 SCS Opposite-Spin Scale   =       1.2000000000000000 [-]
	 SCS Same-Spin Energy      =      -0.1042298168368946 [Eh]
	 SCS Opposite-Spin Energy  =      -1.1384048478628823 [Eh]
	 SCS Correlation Energy    =      -1.2426346646997770 [Eh]
	 SCS Total Energy          =    -904.5548644595023688 [Eh]
	-----------------------------------------------------------

*** Psi4 exiting successfully. Buy a developer a beer!
