                               Psi4 1.9 release

  ==> Input File <==

--------------------------------------------------------------------------
MEMORY 60 GB

molecule dimer {
0 1
Gh(K)      0.000000     0.000000     0.000000
Gh(O)      2.160859     1.290133    -0.400753
Gh(H)      1.851863     2.165893    -0.347882
Gh(H)      2.858507     1.265871    -1.028996
Gh(O)     -0.224116     2.890704    -0.587416
Gh(H)      0.184621     3.724005    -0.298127
Gh(H)     -0.628412     3.022379    -1.479339
O         -0.596279     0.293745     2.645164
H         -0.155475     0.327230     3.510654
H         -0.745470     1.203896     2.319434
Gh(O)     -2.653038     0.116948    -0.474000
Gh(H)     -3.072390     0.994919    -0.656688
Gh(H)     -3.153251    -0.529245    -0.935285
Gh(O)      0.199903    -1.131038    -2.302949
Gh(H)      0.210418    -2.106909    -2.322390
Gh(H)      1.094372    -1.077689    -2.576535
Gh(O)      1.590735    -1.740659     0.686324
Gh(H)      2.345406    -1.342599     1.136997
Gh(H)      1.996290    -2.458499     0.178618

units ang
no_reorient
no_com
symmetry c1
}

set {
basis        aug-cc-pVTZ
scf_type     df
}

energy("mp2")
--------------------------------------------------------------------------

    Molecular point group: c1

    Geometry (in Angstrom), charge = 0, multiplicity = 1:

       Center              X                  Y                   Z               Mass
    ------------   -----------------  -----------------  -----------------  -----------------
      Gh(K)           0.000000000000     0.000000000000     0.000000000000    38.963706486400
      Gh(O)           2.160859000000     1.290133000000    -0.400753000000    15.994914619570
      Gh(H)           1.851863000000     2.165893000000    -0.347882000000     1.007825032230
      Gh(H)           2.858507000000     1.265871000000    -1.028996000000     1.007825032230
      Gh(O)          -0.224116000000     2.890704000000    -0.587416000000    15.994914619570
      Gh(H)           0.184621000000     3.724005000000    -0.298127000000     1.007825032230
      Gh(H)          -0.628412000000     3.022379000000    -1.479339000000     1.007825032230
         O           -0.596279000000     0.293745000000     2.645164000000    15.994914619570
         H           -0.155475000000     0.327230000000     3.510654000000     1.007825032230
         H           -0.745470000000     1.203896000000     2.319434000000     1.007825032230
      Gh(O)          -2.653038000000     0.116948000000    -0.474000000000    15.994914619570
      Gh(H)          -3.072390000000     0.994919000000    -0.656688000000     1.007825032230
      Gh(H)          -3.153251000000    -0.529245000000    -0.935285000000     1.007825032230
      Gh(O)           0.199903000000    -1.131038000000    -2.302949000000    15.994914619570
      Gh(H)           0.210418000000    -2.106909000000    -2.322390000000     1.007825032230
      Gh(H)           1.094372000000    -1.077689000000    -2.576535000000     1.007825032230
      Gh(O)           1.590735000000    -1.740659000000     0.686324000000    15.994914619570
      Gh(H)           2.345406000000    -1.342599000000     1.136997000000     1.007825032230
      Gh(H)           1.996290000000    -2.458499000000     0.178618000000     1.007825032230

  Charge       = 0
  Multiplicity = 1
  Basis Set: AUG-CC-PVTZ
    Blend: AUG-CC-PVTZ
  Basis Set: (AUG-CC-PVTZ AUX)
    Blend: AUG-CC-PVTZ-JKFIT + DEF2-UNIVERSAL-JKFIT

    Orbital Energies [Eh]
    ---------------------

    Doubly Occupied:

       1A    -20.567807     2A     -1.341140     3A     -0.717129
       4A     -0.571865     5A     -0.507342

  @DF-RHF Final Energy:   -76.05844674080231

   => Energetics <=

    Nuclear Repulsion Energy =              9.0164228135543034
    One-Electron Energy =                -122.7391684285415607
    Two-Electron Energy =                  37.6642988741849507
    Total Energy =                        -76.0584467408023102
 Dipole X            :         10.9119474          -10.7169713            0.1949760
 Dipole Y            :         -6.7044830            7.3341896            0.6297066
 Dipole Z            :        -50.6451299           51.0063537            0.3612239
 Magnitude           :                                                    0.7516839
  Basis Set: (AUG-CC-PVTZ AUX)
    Blend: AUG-CC-PVTZ-RI + DEF2-QZVPP-RI
	 Reference Energy          =     -76.0584467408023102 [Eh]
	 Singles Energy            =      -0.0000000000000000 [Eh]
	 Same-Spin Energy          =      -0.0686296665159289 [Eh]
	 Opposite-Spin Energy      =      -0.2163409257550658 [Eh]
	 Correlation Energy        =      -0.2849705922709947 [Eh]
	 Total Energy              =     -76.3434173330733046 [Eh]

	 ================> DF-SCS-MP2 Energies <==================
	-----------------------------------------------------------
	 SCS Same-Spin Scale       =       0.3333333333333333 [-]
	 SCS Opposite-Spin Scale   =       1.2000000000000000 [-]
	 SCS Same-Spin Energy      =      -0.0228765555053096 [Eh]
	 SCS Opposite-Spin Energy  =      -0.2596091109060790 [Eh]
	 SCS Correlation Energy    =      -0.2824856664113886 [Eh]
	 SCS Total Energy          =     -76.3409324072136997 [Eh]
	-----------------------------------------------------------

*** Psi4 exiting successfully. Buy a developer a beer!
