                               Psi4 1.9 release

  ==> Input File <==

--------------------------------------------------------------------------
MEMORY 60 GB

molecule dimer {
0 1
Gh(K)      0.000000     0.000000     0.000000
O         -0.410929    -0.700784    -2.509863
H         -1.217513    -1.219559    -2.665649
H         -0.164264    -0.548002    -3.391802
Gh(O)      0.364162     2.737792     0.615970
Gh(H)     -0.368150     3.382202     0.757426
Gh(H)      0.419133     2.301238     1.419304
Gh(O)     -1.302168    -1.379093     2.269078
Gh(H)     -1.734333    -1.173294     3.111865
Gh(H)     -1.340808    -2.327373     2.231571
Gh(O)      2.554230    -0.782247     0.698580
Gh(H)      2.890378    -1.647175     0.845380
Gh(H)      3.241882    -0.204019     0.218312

units ang
no_reorient
no_com
symmetry c1
}

set {
basis        aug-cc-pVTZ
scf_type     df
}

energy("mp2")
--------------------------------------------------------------------------

    Molecular point group: c1

    Geometry (in Angstrom), charge = 0, multiplicity = 1:

       Center              X                  Y                   Z               Mass
    ------------   -----------------  -----------------  -----------------  -----------------
      Gh(K)           0.000000000000     0.000000000000     0.000000000000    38.963706486400
         O           -0.410929000000    -0.700784000000    -2.509863000000    15.994914619570
         H           -1.217513000000    -1.219559000000    -2.665649000000     1.007825032230
         H           -0.164264000000    -0.548002000000    -3.391802000000     1.007825032230
      Gh(O)           0.364162000000     2.737792000000     0.615970000000    15.994914619570
      Gh(H)          -0.368150000000     3.382202000000     0.757426000000     1.007825032230
      Gh(H)           0.419133000000     2.301238000000     1.419304000000     1.007825032230
      Gh(O)          -1.302168000000    -1.379093000000     2.269078000000    15.994914619570
      Gh(H)          -1.734333000000    -1.173294000000     3.111865000000     1.007825032230
      Gh(H)          -1.340808000000    -2.327373000000     2.231571000000     1.007825032230
      Gh(O)           2.554230000000    -0.782247000000     0.698580000000    15.994914619570
      Gh(H)           2.890378000000    -1.647175000000     0.845380000000     1.007825032230
      Gh(H)           3.241882000000    -0.204019000000     0.218312000000     1.007825032230

  Charge       = 0
  Multiplicity = 1
  Basis Set: AUG-CC-PVTZ
    Blend: AUG-CC-PVTZ
  Basis Set: (AUG-CC-PVTZ AUX)
    Blend: AUG-CC-PVTZ-JKFIT + DEF2-UNIVERSAL-JKFIT

    Orbital Energies [Eh]
    ---------------------

    Doubly Occupied:

       1A    -20.568035     2A     -1.362003     3A     -0.710663
       4A     -0.597088     5A     -0.512549

  @DF-RHF Final Energy:   -76.05874439462798

   => Energetics <=

    Nuclear Repulsion Energy =              9.2831896041546518
    One-Electron Energy =                -123.1831896282144783
    Two-Electron Energy =                  37.8412556294318421
    Total Energy =                        -76.0587443946279791
 Dipole X            :          8.4613542           -8.8235262           -0.3621720
 Dipole Y            :         13.6975495          -13.9345249           -0.2369754
 Dipole Z            :         48.7031976          -49.3905529           -0.6873553
 Magnitude           :                                                    0.8122704
  Basis Set: (AUG-CC-PVTZ AUX)
    Blend: AUG-CC-PVTZ-RI + DEF2-QZVPP-RI
	 Reference Energy          =     -76.0587443946279791 [Eh]
	 Singles Energy            =      -0.0000000000000000 [Eh]
	 Same-Spin Energy          =      -0.0683739487182180 [Eh]
	 Opposite-Spin Energy      =      -0.2153811230855047 [Eh]
	 Correlation Energy        =      -0.2837550718037227 [Eh]
	 Total Energy              =     -76.3424994664317040 [Eh]

	 ================> DF-SCS-MP2 Energies <==================
	-----------------------------------------------------------
	 SCS Same-Spin Scale       =       0.3333333333333333 [-]
	 SCS Opposite-Spin Scale   =       1.2000000000000000 [-]
	 SCS Same-Spin Energy      =      -0.0227913162394060 [Eh]
	 SCS Opposite-Spin Energy  =      -0.2584573477026057 [Eh]
	 SCS Correlation Energy    =      -0.2812486639420117 [Eh]
	 SCS Total Energy          =     -76.3399930585699877 [Eh]
	-----------------------------------------------------------

*** Psi4 exiting successfully. Buy a developer a beer!
