                               Psi4 1.9 release

  ==> Input File <==

--------------------------------------------------------------------------
MEMORY 60 GB

molecule dimer {
1 1
K          0.000000     0.000000     0.000000
O          1.573041     1.595164    -1.828830
H          1.782496     2.427484    -1.472982
H          2.404379     1.442044    -2.240169
O          2.542675    -0.726399     0.160104
H          2.495524    -0.827647    -0.784085
H          2.947300    -1.512593     0.461683
O         -0.696117    -1.387787     2.142827
H         -1.572201    -1.578739     1.777997
H         -0.721888    -1.146147     3.057868
O         -2.445245    -1.000611    -0.272942
H         -2.636754    -1.958729    -0.204424
H         -3.151468    -0.659976    -0.827128
O         -1.095844     1.180662    -2.400144
H         -0.169066     1.239994    -2.615175
H         -1.309802     0.269347    -2.619630

units ang
no_reorient
no_com
symmetry c1
}

set {
basis        aug-cc-pVTZ
scf_type     df
}

energy("mp2")
--------------------------------------------------------------------------

    Molecular point group: c1

    Geometry (in Angstrom), charge = 1, multiplicity = 1:

       Center              X                  Y                   Z               Mass
    ------------   -----------------  -----------------  -----------------  -----------------
         K            0.000000000000     0.000000000000     0.000000000000    38.963706486400
         O            1.573041000000     1.595164000000    -1.828830000000    15.994914619570
         H            1.782496000000     2.427484000000    -1.472982000000     1.007825032230
         H            2.404379000000     1.442044000000    -2.240169000000     1.007825032230
         O            2.542675000000    -0.726399000000     0.160104000000    15.994914619570
         H            2.495524000000    -0.827647000000    -0.784085000000     1.007825032230
         H            2.947300000000    -1.512593000000     0.461683000000     1.007825032230
         O           -0.696117000000    -1.387787000000     2.142827000000    15.994914619570
         H           -1.572201000000    -1.578739000000     1.777997000000     1.007825032230
         H           -0.721888000000    -1.146147000000     3.057868000000     1.007825032230
         O           -2.445245000000    -1.000611000000    -0.272942000000    15.994914619570
         H           -2.636754000000    -1.958729000000    -0.204424000000     1.007825032230
         H           -3.151468000000    -0.659976000000    -0.827128000000     1.007825032230
         O           -1.095844000000     1.180662000000    -2.400144000000    15.994914619570
         H           -0.169066000000     1.239994000000    -2.615175000000     1.007825032230
         H           -1.309802000000     0.269347000000    -2.619630000000     1.007825032230

  Charge       = 1
  Multiplicity = 1
  Basis Set: AUG-CC-PVTZ
    Blend: AUG-CC-PVTZ
  Basis Set: (AUG-CC-PVTZ AUX)
    Blend: AUG-CC-PVTZ-JKFIT + DEF2-UNIVERSAL-JKFIT

    Orbital Energies [Eh]
    ---------------------

    Doubly Occupied:

       1A   -133.613642     2A    -20.736959     3A    -20.731398
       4A    -20.716743     5A    -20.706699     6A    -20.689507
       7A    -14.571884     8A    -11.601860     9A    -11.601612
      10A    -11.601558    11A     -1.836079    12A     -1.542507
      13A     -1.520603    14A     -1.517514    15A     -1.495829
      16A     -1.481878    17A     -1.048485    18A     -1.047282
      19A     -1.043825    20A     -0.891673    21A     -0.885261
      22A     -0.877770    23A     -0.871239    24A     -0.852645
      25A     -0.779042    26A     -0.762951    27A     -0.745953
      28A     -0.721866    29A     -0.713804    30A     -0.685074
      31A     -0.683603    32A     -0.668751    33A     -0.657100
      34A     -0.638162

  @DF-RHF Final Energy:  -979.38794650743512

   => Energetics <=

    Nuclear Repulsion Energy =            356.8978481559495322
    One-Electron Energy =               -2051.4900685362895274
    Two-Electron Energy =                 715.2042738729048779
    Total Energy =                       -979.3879465074351174
 Dipole X            :          1.9952781           -1.7071786            0.2880995
 Dipole Y            :          8.4335897           -9.4802457           -1.0466560
 Dipole Z            :         42.8572315          -43.5731633           -0.7159317
 Magnitude           :                                                    1.3004032
  Basis Set: (AUG-CC-PVTZ AUX)
    Blend: AUG-CC-PVTZ-RI + DEF2-QZVPP-RI
	 Reference Energy          =    -979.3879465074351174 [Eh]
	 Singles Energy            =      -0.0000000000000000 [Eh]
	 Same-Spin Energy          =      -0.3861906058666284 [Eh]
	 Opposite-Spin Energy      =      -1.1725721657973860 [Eh]
	 Correlation Energy        =      -1.5587627716640144 [Eh]
	 Total Energy              =    -980.9467092790990819 [Eh]

	 ================> DF-SCS-MP2 Energies <==================
	-----------------------------------------------------------
	 SCS Same-Spin Scale       =       0.3333333333333333 [-]
	 SCS Opposite-Spin Scale   =       1.2000000000000000 [-]
	 SCS Same-Spin Energy      =      -0.1287302019555428 [Eh]
	 SCS Opposite-Spin Energy  =      -1.4070865989568631 [Eh]
	 SCS Correlation Energy    =      -1.5358168009124058 [Eh]
	 SCS Total Energy          =    -980.9237633083474748 [Eh]
	-----------------------------------------------------------

*** Psi4 exiting successfully. Buy a developer a beer!
