                               Psi4 1.9 release

  ==> Input File <==

--------------------------------------------------------------------------
MEMORY 60 GB

molecule dimer {
0 1
Gh(K)      0.000000     0.000000     0.000000
O         -1.761971     1.679819    -1.384796
H         -1.993530     1.859311    -2.310131
H         -1.491064     2.551322    -1.061033
Gh(O)     -1.934913    -2.329125     0.427012
Gh(H)     -2.429676    -2.843944    -0.200316
Gh(H)     -2.478147    -1.527226     0.550138
Gh(O)     -0.769395    -1.744512    -2.140743
Gh(H)     -0.280499    -2.412102    -1.484121
Gh(H)     -1.513491    -2.237356    -2.422087
Gh(O)      0.163245     3.037506     0.036371
Gh(H)      0.343344     3.833379    -0.472962
Gh(H)      0.088329     3.252112     0.940310
Gh(O)      2.337800     1.279403    -0.997110
Gh(H)      2.614134     2.061165    -0.590317
Gh(H)      1.747208     1.653313    -1.667772
Gh(O)      0.977425    -0.442696     2.492052
Gh(H)      1.859603    -0.903416     2.580845
Gh(H)      0.477952    -0.770092     3.245807

units ang
no_reorient
no_com
symmetry c1
}

set {
basis        aug-cc-pVTZ
scf_type     df
}

energy("mp2")
--------------------------------------------------------------------------

    Molecular point group: c1

    Geometry (in Angstrom), charge = 0, multiplicity = 1:

       Center              X                  Y                   Z               Mass
    ------------   -----------------  -----------------  -----------------  -----------------
      Gh(K)           0.000000000000     0.000000000000     0.000000000000    38.963706486400
         O           -1.761971000000     1.679819000000    -1.384796000000    15.994914619570
         H           -1.993530000000     1.859311000000    -2.310131000000     1.007825032230
         H           -1.491064000000     2.551322000000    -1.061033000000     1.007825032230
      Gh(O)          -1.934913000000    -2.329125000000     0.427012000000    15.994914619570
      Gh(H)          -2.429676000000    -2.843944000000    -0.200316000000     1.007825032230
      Gh(H)          -2.478147000000    -1.527226000000     0.550138000000     1.007825032230
      Gh(O)          -0.769395000000    -1.744512000000    -2.140743000000    15.994914619570
      Gh(H)          -0.280499000000    -2.412102000000    -1.484121000000     1.007825032230
      Gh(H)          -1.513491000000    -2.237356000000    -2.422087000000     1.007825032230
      Gh(O)           0.163245000000     3.037506000000     0.036371000000    15.994914619570
      Gh(H)           0.343344000000     3.833379000000    -0.472962000000     1.007825032230
      Gh(H)           0.088329000000     3.252112000000     0.940310000000     1.007825032230
      Gh(O)           2.337800000000     1.279403000000    -0.997110000000    15.994914619570
      Gh(H)           2.614134000000     2.061165000000    -0.590317000000     1.007825032230
      Gh(H)           1.747208000000     1.653313000000    -1.667772000000     1.007825032230
      Gh(O)           0.977425000000    -0.442696000000     2.492052000000    15.994914619570
      Gh(H)           1.859603000000    -0.903416000000     2.580845000000     1.007825032230
      Gh(H)           0.477952000000    -0.770092000000     3.245807000000     1.007825032230

  Charge       = 0
  Multiplicity = 1
  Basis Set: AUG-CC-PVTZ
    Blend: AUG-CC-PVTZ
  Basis Set: (AUG-CC-PVTZ AUX)
    Blend: AUG-CC-PVTZ-JKFIT + DEF2-UNIVERSAL-JKFIT

    Orbital Energies [Eh]
    ---------------------

    Doubly Occupied:

       1A    -20.570017     2A     -1.348574     3A     -0.707505
       4A     -0.586143     5A     -0.509872

  @DF-RHF Final Energy:   -76.05945188698851

   => Energetics <=

    Nuclear Repulsion Energy =              9.0828955131613682
    One-Electron Energy =                -122.8404707144954102
    Two-Electron Energy =                  37.6981233143455512
    Total Energy =                        -76.0594518869884979
 Dipole X            :         33.2478812          -33.2220694            0.0258119
 Dipole Y            :        -33.0397805           33.7300712            0.6902907
 Dipole Z            :         26.9110904          -27.3056581           -0.3945677
 Magnitude           :                                                    0.7955194
  Basis Set: (AUG-CC-PVTZ AUX)
    Blend: AUG-CC-PVTZ-RI + DEF2-QZVPP-RI
	 Reference Energy          =     -76.0594518869885121 [Eh]
	 Singles Energy            =      -0.0000000000000000 [Eh]
	 Same-Spin Energy          =      -0.0686621258014513 [Eh]
	 Opposite-Spin Energy      =      -0.2165864480146204 [Eh]
	 Correlation Energy        =      -0.2852485738160718 [Eh]
	 Total Energy              =     -76.3447004608045887 [Eh]

	 ================> DF-SCS-MP2 Energies <==================
	-----------------------------------------------------------
	 SCS Same-Spin Scale       =       0.3333333333333333 [-]
	 SCS Opposite-Spin Scale   =       1.2000000000000000 [-]
	 SCS Same-Spin Energy      =      -0.0228873752671504 [Eh]
	 SCS Opposite-Spin Energy  =      -0.2599037376175445 [Eh]
	 SCS Correlation Energy    =      -0.2827911128846949 [Eh]
	 SCS Total Energy          =     -76.3422429998732071 [Eh]
	-----------------------------------------------------------

*** Psi4 exiting successfully. Buy a developer a beer!
