                               Psi4 1.9 release

  ==> Input File <==

--------------------------------------------------------------------------
MEMORY 60 GB

molecule dimer {
0 1
Gh(K)      0.000000     0.000000     0.000000
Gh(O)     -1.914219     0.381099     2.047352
Gh(H)     -1.320578     0.674184     2.686368
Gh(H)     -2.321467    -0.319664     2.513747
Gh(O)      0.428472     2.036835    -1.419653
Gh(H)     -0.185122     2.755299    -1.648266
Gh(H)      0.372818     1.517892    -2.257890
Gh(O)      0.770031     1.249993     2.200665
Gh(H)      1.009133     2.175197     2.337599
Gh(H)      1.515479     0.726860     2.473995
Gh(O)     -2.260178    -0.231462    -1.572764
Gh(H)     -2.803882    -0.985370    -1.417875
Gh(H)     -2.627539     0.547665    -1.165198
Gh(O)      2.290299    -1.266372     0.334224
Gh(H)      3.155079    -0.865329     0.373528
Gh(H)      2.386314    -2.179876     0.539797
O         -1.344210    -2.412788     0.379287
H         -2.112438    -2.800330    -0.114885
H         -1.698340    -2.036621     1.151405

units ang
no_reorient
no_com
symmetry c1
}

set {
basis        aug-cc-pVTZ
scf_type     df
}

energy("mp2")
--------------------------------------------------------------------------

    Molecular point group: c1

    Geometry (in Angstrom), charge = 0, multiplicity = 1:

       Center              X                  Y                   Z               Mass
    ------------   -----------------  -----------------  -----------------  -----------------
      Gh(K)           0.000000000000     0.000000000000     0.000000000000    38.963706486400
      Gh(O)          -1.914219000000     0.381099000000     2.047352000000    15.994914619570
      Gh(H)          -1.320578000000     0.674184000000     2.686368000000     1.007825032230
      Gh(H)          -2.321467000000    -0.319664000000     2.513747000000     1.007825032230
      Gh(O)           0.428472000000     2.036835000000    -1.419653000000    15.994914619570
      Gh(H)          -0.185122000000     2.755299000000    -1.648266000000     1.007825032230
      Gh(H)           0.372818000000     1.517892000000    -2.257890000000     1.007825032230
      Gh(O)           0.770031000000     1.249993000000     2.200665000000    15.994914619570
      Gh(H)           1.009133000000     2.175197000000     2.337599000000     1.007825032230
      Gh(H)           1.515479000000     0.726860000000     2.473995000000     1.007825032230
      Gh(O)          -2.260178000000    -0.231462000000    -1.572764000000    15.994914619570
      Gh(H)          -2.803882000000    -0.985370000000    -1.417875000000     1.007825032230
      Gh(H)          -2.627539000000     0.547665000000    -1.165198000000     1.007825032230
      Gh(O)           2.290299000000    -1.266372000000     0.334224000000    15.994914619570
      Gh(H)           3.155079000000    -0.865329000000     0.373528000000     1.007825032230
      Gh(H)           2.386314000000    -2.179876000000     0.539797000000     1.007825032230
         O           -1.344210000000    -2.412788000000     0.379287000000    15.994914619570
         H           -2.112438000000    -2.800330000000    -0.114885000000     1.007825032230
         H           -1.698340000000    -2.036621000000     1.151405000000     1.007825032230

  Charge       = 0
  Multiplicity = 1
  Basis Set: AUG-CC-PVTZ
    Blend: AUG-CC-PVTZ
  Basis Set: (AUG-CC-PVTZ AUX)
    Blend: AUG-CC-PVTZ-JKFIT + DEF2-UNIVERSAL-JKFIT

    Orbital Energies [Eh]
    ---------------------

    Doubly Occupied:

       1A    -20.566708     2A     -1.351589     3A     -0.719170
       4A     -0.580816     5A     -0.509660

  @DF-RHF Final Energy:   -76.05853856128479

   => Energetics <=

    Nuclear Repulsion Energy =              9.1679284999108788
    One-Electron Energy =                -122.9970441083301012
    Two-Electron Energy =                  37.7705770471344309
    Total Energy =                        -76.0585385612847915
 Dipole X            :         26.7770108          -27.5228368           -0.7458260
 Dipole Y            :         45.6140002          -45.6165808           -0.0025806
 Dipole Z            :         -7.4985719            7.6927273            0.1941554
 Magnitude           :                                                    0.7706876
  Basis Set: (AUG-CC-PVTZ AUX)
    Blend: AUG-CC-PVTZ-RI + DEF2-QZVPP-RI
	 Reference Energy          =     -76.0585385612847915 [Eh]
	 Singles Energy            =      -0.0000000000000000 [Eh]
	 Same-Spin Energy          =      -0.0684311232899439 [Eh]
	 Opposite-Spin Energy      =      -0.2160764669371346 [Eh]
	 Correlation Energy        =      -0.2845075902270785 [Eh]
	 Total Energy              =     -76.3430461515118708 [Eh]

	 ================> DF-SCS-MP2 Energies <==================
	-----------------------------------------------------------
	 SCS Same-Spin Scale       =       0.3333333333333333 [-]
	 SCS Opposite-Spin Scale   =       1.2000000000000000 [-]
	 SCS Same-Spin Energy      =      -0.0228103744299813 [Eh]
	 SCS Opposite-Spin Energy  =      -0.2592917603245616 [Eh]
	 SCS Correlation Energy    =      -0.2821021347545429 [Eh]
	 SCS Total Energy          =     -76.3406406960393298 [Eh]
	-----------------------------------------------------------

*** Psi4 exiting successfully. Buy a developer a beer!
