                               Psi4 1.9 release

  ==> Input File <==

--------------------------------------------------------------------------
MEMORY 60 GB

molecule dimer {
1 1
K          0.000000     0.000000     0.000000
O         -1.202188     2.642841     0.692677
H         -0.359877     2.846537     0.288544
H         -1.204085     2.921992     1.633837
O         -1.785275    -1.619405     1.542860
H         -1.608427    -2.541342     1.315844
H         -2.705446    -1.468932     1.288631
O          0.144826     0.555459     2.652150
H         -0.007468     1.382754     3.068522
H          0.885053     0.138197     3.140295
O          0.561667     0.361770    -2.784131
H          0.458919    -0.179426    -3.508356
H          0.977542     1.097592    -3.183885
O          1.915812    -1.620111     0.708210
H          2.736568    -1.603689     1.185820
H          2.168479    -1.743309    -0.203061
O          1.244176     2.226543    -0.413552
H          1.113277     2.980785    -0.948090
H          2.029386     2.478591     0.106543

units ang
no_reorient
no_com
symmetry c1
}

set {
basis        aug-cc-pVTZ
scf_type     df
}

energy("mp2")
--------------------------------------------------------------------------

    Molecular point group: c1

    Geometry (in Angstrom), charge = 1, multiplicity = 1:

       Center              X                  Y                   Z               Mass
    ------------   -----------------  -----------------  -----------------  -----------------
         K            0.000000000000     0.000000000000     0.000000000000    38.963706486400
         O           -1.202188000000     2.642841000000     0.692677000000    15.994914619570
         H           -0.359877000000     2.846537000000     0.288544000000     1.007825032230
         H           -1.204085000000     2.921992000000     1.633837000000     1.007825032230
         O           -1.785275000000    -1.619405000000     1.542860000000    15.994914619570
         H           -1.608427000000    -2.541342000000     1.315844000000     1.007825032230
         H           -2.705446000000    -1.468932000000     1.288631000000     1.007825032230
         O            0.144826000000     0.555459000000     2.652150000000    15.994914619570
         H           -0.007468000000     1.382754000000     3.068522000000     1.007825032230
         H            0.885053000000     0.138197000000     3.140295000000     1.007825032230
         O            0.561667000000     0.361770000000    -2.784131000000    15.994914619570
         H            0.458919000000    -0.179426000000    -3.508356000000     1.007825032230
         H            0.977542000000     1.097592000000    -3.183885000000     1.007825032230
         O            1.915812000000    -1.620111000000     0.708210000000    15.994914619570
         H            2.736568000000    -1.603689000000     1.185820000000     1.007825032230
         H            2.168479000000    -1.743309000000    -0.203061000000     1.007825032230
         O            1.244176000000     2.226543000000    -0.413552000000    15.994914619570
         H            1.113277000000     2.980785000000    -0.948090000000     1.007825032230
         H            2.029386000000     2.478591000000     0.106543000000     1.007825032230

  Charge       = 1
  Multiplicity = 1
  Basis Set: AUG-CC-PVTZ
    Blend: AUG-CC-PVTZ
  Basis Set: (AUG-CC-PVTZ AUX)
    Blend: AUG-CC-PVTZ-JKFIT + DEF2-UNIVERSAL-JKFIT

    Orbital Energies [Eh]
    ---------------------

    Doubly Occupied:

       1A   -133.580559     2A    -20.736005     3A    -20.713248
       4A    -20.702447     5A    -20.692212     6A    -20.683910
       7A    -20.673343     8A    -14.538870     9A    -11.568722
      10A    -11.568696    11A    -11.568530    12A     -1.803491
      13A     -1.536252    14A     -1.517413    15A     -1.508269
      16A     -1.481054    17A     -1.466449    18A     -1.456417
      19A     -1.016969    20A     -1.015616    21A     -1.012162
      22A     -0.892480    23A     -0.871656    24A     -0.869348
      25A     -0.849690    26A     -0.839585    27A     -0.830593
      28A     -0.770194    29A     -0.748867    30A     -0.740477
      31A     -0.718806    32A     -0.705039    33A     -0.697289
      34A     -0.667657    35A     -0.663680    36A     -0.657484
      37A     -0.639395    38A     -0.629065    39A     -0.618446

  @DF-RHF Final Energy: -1055.45419689385517

   => Energetics <=

    Nuclear Repulsion Energy =            464.3762965001826046
    One-Electron Energy =               -2371.1602075864811923
    Two-Electron Energy =                 851.3297141924434754
    Total Energy =                      -1055.4541968938551690
 Dipole X            :        -19.6845433           21.7622089            2.0776656
 Dipole Y            :        -49.5689753           50.4302254            0.8612501
 Dipole Z            :        -44.4517376           44.1635723           -0.2881653
 Magnitude           :                                                    2.2674843
  Basis Set: (AUG-CC-PVTZ AUX)
    Blend: AUG-CC-PVTZ-RI + DEF2-QZVPP-RI
	 Reference Energy          =   -1055.4541968938551690 [Eh]
	 Singles Energy            =      -0.0000000000000000 [Eh]
	 Same-Spin Energy          =      -0.4574434574844994 [Eh]
	 Opposite-Spin Energy      =      -1.3938754373547142 [Eh]
	 Correlation Energy        =      -1.8513188948392136 [Eh]
	 Total Energy              =   -1057.3055157886944926 [Eh]

	 ================> DF-SCS-MP2 Energies <==================
	-----------------------------------------------------------
	 SCS Same-Spin Scale       =       0.3333333333333333 [-]
	 SCS Opposite-Spin Scale   =       1.2000000000000000 [-]
	 SCS Same-Spin Energy      =      -0.1524811524948331 [Eh]
	 SCS Opposite-Spin Energy  =      -1.6726505248256569 [Eh]
	 SCS Correlation Energy    =      -1.8251316773204900 [Eh]
	 SCS Total Energy          =   -1057.2793285711757107 [Eh]
	-----------------------------------------------------------

*** Psi4 exiting successfully. Buy a developer a beer!
