                               Psi4 1.9 release

  ==> Input File <==

--------------------------------------------------------------------------
MEMORY 60 GB

molecule dimer {
0 1
Gh(K)      0.000000     0.000000     0.000000
Gh(O)      1.752063    -1.955740    -0.896493
Gh(H)      2.693070    -2.147140    -1.012955
Gh(H)      1.399783    -2.564561    -0.243759
Gh(O)     -2.037636    -1.672138     0.117504
Gh(H)     -2.427489    -2.365114     0.675856
Gh(H)     -2.816892    -1.155028    -0.141307
O          0.519565    -0.340148     2.890005
H          0.272037     0.564577     2.764165
H         -0.190010    -0.696801     3.468111
Gh(O)     -1.943971     1.609727     0.991987
Gh(H)     -2.039868     2.479130     0.578168
Gh(H)     -2.271273     1.714132     1.898834
Gh(O)     -0.866082     1.453293    -2.302765
Gh(H)     -0.118946     2.054102    -2.495125
Gh(H)     -1.462586     2.104021    -1.901122

units ang
no_reorient
no_com
symmetry c1
}

set {
basis        aug-cc-pVTZ
scf_type     df
}

energy("mp2")
--------------------------------------------------------------------------

    Molecular point group: c1

    Geometry (in Angstrom), charge = 0, multiplicity = 1:

       Center              X                  Y                   Z               Mass
    ------------   -----------------  -----------------  -----------------  -----------------
      Gh(K)           0.000000000000     0.000000000000     0.000000000000    38.963706486400
      Gh(O)           1.752063000000    -1.955740000000    -0.896493000000    15.994914619570
      Gh(H)           2.693070000000    -2.147140000000    -1.012955000000     1.007825032230
      Gh(H)           1.399783000000    -2.564561000000    -0.243759000000     1.007825032230
      Gh(O)          -2.037636000000    -1.672138000000     0.117504000000    15.994914619570
      Gh(H)          -2.427489000000    -2.365114000000     0.675856000000     1.007825032230
      Gh(H)          -2.816892000000    -1.155028000000    -0.141307000000     1.007825032230
         O            0.519565000000    -0.340148000000     2.890005000000    15.994914619570
         H            0.272037000000     0.564577000000     2.764165000000     1.007825032230
         H           -0.190010000000    -0.696801000000     3.468111000000     1.007825032230
      Gh(O)          -1.943971000000     1.609727000000     0.991987000000    15.994914619570
      Gh(H)          -2.039868000000     2.479130000000     0.578168000000     1.007825032230
      Gh(H)          -2.271273000000     1.714132000000     1.898834000000     1.007825032230
      Gh(O)          -0.866082000000     1.453293000000    -2.302765000000    15.994914619570
      Gh(H)          -0.118946000000     2.054102000000    -2.495125000000     1.007825032230
      Gh(H)          -1.462586000000     2.104021000000    -1.901122000000     1.007825032230

  Charge       = 0
  Multiplicity = 1
  Basis Set: AUG-CC-PVTZ
    Blend: AUG-CC-PVTZ
  Basis Set: (AUG-CC-PVTZ AUX)
    Blend: AUG-CC-PVTZ-JKFIT + DEF2-UNIVERSAL-JKFIT

    Orbital Energies [Eh]
    ---------------------

    Doubly Occupied:

       1A    -20.568621     2A     -1.350787     3A     -0.712387
       4A     -0.585033     5A     -0.510032

  @DF-RHF Final Energy:   -76.05944033948580

   => Energetics <=

    Nuclear Repulsion Energy =              9.1319197599157409
    One-Electron Energy =                -122.9289968526680497
    Two-Electron Energy =                  37.7376367532665000
    Total Energy =                        -76.0594403394858034
 Dipole X            :         -8.6400441            8.0096930           -0.6303511
 Dipole Y            :          5.7597201           -5.3921596            0.3675604
 Dipole Z            :        -55.1717814           55.4678384            0.2960570
 Magnitude           :                                                    0.7874598
  Basis Set: (AUG-CC-PVTZ AUX)
    Blend: AUG-CC-PVTZ-RI + DEF2-QZVPP-RI
	 Reference Energy          =     -76.0594403394858034 [Eh]
	 Singles Energy            =      -0.0000000000000000 [Eh]
	 Same-Spin Energy          =      -0.0685143180707351 [Eh]
	 Opposite-Spin Energy      =      -0.2159618771635165 [Eh]
	 Correlation Energy        =      -0.2844761952342517 [Eh]
	 Total Energy              =     -76.3439165347200515 [Eh]

	 ================> DF-SCS-MP2 Energies <==================
	-----------------------------------------------------------
	 SCS Same-Spin Scale       =       0.3333333333333333 [-]
	 SCS Opposite-Spin Scale   =       1.2000000000000000 [-]
	 SCS Same-Spin Energy      =      -0.0228381060235784 [Eh]
	 SCS Opposite-Spin Energy  =      -0.2591542525962198 [Eh]
	 SCS Correlation Energy    =      -0.2819923586197982 [Eh]
	 SCS Total Energy          =     -76.3414326981056064 [Eh]
	-----------------------------------------------------------

*** Psi4 exiting successfully. Buy a developer a beer!
