                               Psi4 1.9 release

  ==> Input File <==

--------------------------------------------------------------------------
MEMORY 60 GB

molecule dimer {
1 1
K          0.000000     0.000000     0.000000
O          0.957190    -1.386757     2.254317
H          0.346314    -1.538227     2.944648
H          1.508477    -0.680100     2.530417
O         -1.972321    -1.892141    -0.455348
H         -2.386838    -1.108573    -0.921557
H         -1.959596    -2.685029    -1.112345
O          2.214048     1.192468     0.500912
H          2.674099     0.872921     1.259207
H          2.802115     1.115706    -0.234481
O         -1.570407     1.521695    -1.522003
H         -2.540405     1.534752    -1.445713
H         -1.376556     1.601288    -2.489818
O          1.131955    -1.268921    -1.784459
H          1.698719    -1.777535    -1.212553
H          1.705790    -0.723363    -2.309643

units ang
no_reorient
no_com
symmetry c1
}

set {
basis        aug-cc-pVTZ
scf_type     df
}

energy("mp2")
--------------------------------------------------------------------------

    Molecular point group: c1

    Geometry (in Angstrom), charge = 1, multiplicity = 1:

       Center              X                  Y                   Z               Mass
    ------------   -----------------  -----------------  -----------------  -----------------
         K            0.000000000000     0.000000000000     0.000000000000    38.963706486400
         O            0.957190000000    -1.386757000000     2.254317000000    15.994914619570
         H            0.346314000000    -1.538227000000     2.944648000000     1.007825032230
         H            1.508477000000    -0.680100000000     2.530417000000     1.007825032230
         O           -1.972321000000    -1.892141000000    -0.455348000000    15.994914619570
         H           -2.386838000000    -1.108573000000    -0.921557000000     1.007825032230
         H           -1.959596000000    -2.685029000000    -1.112345000000     1.007825032230
         O            2.214048000000     1.192468000000     0.500912000000    15.994914619570
         H            2.674099000000     0.872921000000     1.259207000000     1.007825032230
         H            2.802115000000     1.115706000000    -0.234481000000     1.007825032230
         O           -1.570407000000     1.521695000000    -1.522003000000    15.994914619570
         H           -2.540405000000     1.534752000000    -1.445713000000     1.007825032230
         H           -1.376556000000     1.601288000000    -2.489818000000     1.007825032230
         O            1.131955000000    -1.268921000000    -1.784459000000    15.994914619570
         H            1.698719000000    -1.777535000000    -1.212553000000     1.007825032230
         H            1.705790000000    -0.723363000000    -2.309643000000     1.007825032230

  Charge       = 1
  Multiplicity = 1
  Basis Set: AUG-CC-PVTZ
    Blend: AUG-CC-PVTZ
  Basis Set: (AUG-CC-PVTZ AUX)
    Blend: AUG-CC-PVTZ-JKFIT + DEF2-UNIVERSAL-JKFIT

    Orbital Energies [Eh]
    ---------------------

    Doubly Occupied:

       1A   -133.591525     2A    -20.728968     3A    -20.727540
       4A    -20.724199     5A    -20.710911     6A    -20.707942
       7A    -14.550713     8A    -11.580475     9A    -11.580348
      10A    -11.580320    11A     -1.818400    12A     -1.529846
      13A     -1.522285    14A     -1.514046    15A     -1.501722
      16A     -1.460332    17A     -1.032485    18A     -1.030357
      19A     -1.028041    20A     -0.902051    21A     -0.887590
      22A     -0.882308    23A     -0.866421    24A     -0.828912
      25A     -0.756787    26A     -0.749767    27A     -0.745530
      28A     -0.737344    29A     -0.706015    30A     -0.684977
      31A     -0.675229    32A     -0.670288    33A     -0.663885
      34A     -0.641997

  @DF-RHF Final Energy:  -979.37522001766968

   => Energetics <=

    Nuclear Repulsion Energy =            359.7687667520027617
    One-Electron Energy =               -2057.6488522162658228
    Two-Electron Energy =                 718.5048654465934987
    Total Energy =                       -979.3752200176696761
 Dipole X            :        -15.4210133           16.1681925            0.7471792
 Dipole Y            :         34.1794327          -34.1235557            0.0558770
 Dipole Z            :         20.0860605          -20.8710537           -0.7849932
 Magnitude           :                                                    1.0851789
  Basis Set: (AUG-CC-PVTZ AUX)
    Blend: AUG-CC-PVTZ-RI + DEF2-QZVPP-RI
	 Reference Energy          =    -979.3752200176696761 [Eh]
	 Singles Energy            =      -0.0000000000000000 [Eh]
	 Same-Spin Energy          =      -0.3873867374231549 [Eh]
	 Opposite-Spin Energy      =      -1.1774192961026742 [Eh]
	 Correlation Energy        =      -1.5648060335258291 [Eh]
	 Total Energy              =    -980.9400260511955594 [Eh]

	 ================> DF-SCS-MP2 Energies <==================
	-----------------------------------------------------------
	 SCS Same-Spin Scale       =       0.3333333333333333 [-]
	 SCS Opposite-Spin Scale   =       1.2000000000000000 [-]
	 SCS Same-Spin Energy      =      -0.1291289124743850 [Eh]
	 SCS Opposite-Spin Energy  =      -1.4129031553232090 [Eh]
	 SCS Correlation Energy    =      -1.5420320677975941 [Eh]
	 SCS Total Energy          =    -980.9172520854672257 [Eh]
	-----------------------------------------------------------

*** Psi4 exiting successfully. Buy a developer a beer!
