                               Psi4 1.9 release

  ==> Input File <==

--------------------------------------------------------------------------
MEMORY 60 GB

molecule dimer {
0 1
Gh(K)      0.000000     0.000000     0.000000
Gh(O)     -1.457044    -2.550395     0.407014
Gh(H)     -0.947257    -2.879841     1.151043
Gh(H)     -2.328321    -2.243661     0.699340
O          2.038414    -1.767961     0.341126
H          2.837008    -1.255039     0.326724
H          1.966681    -2.473380    -0.315675
Gh(O)     -1.661440     0.175056     1.991238
Gh(H)     -0.975522     0.765504     2.308795
Gh(H)     -2.384597     0.634620     1.603907
Gh(O)      1.704232     1.691653    -1.239466
Gh(H)      1.159358     2.227433    -1.799160
Gh(H)      1.823795     2.247273    -0.485218
Gh(O)     -1.743882     0.339578    -1.736908
Gh(H)     -2.201474    -0.503521    -1.987939
Gh(H)     -2.102341     0.953944    -2.383414

units ang
no_reorient
no_com
symmetry c1
}

set {
basis        aug-cc-pVTZ
scf_type     df
}

energy("mp2")
--------------------------------------------------------------------------

    Molecular point group: c1

    Geometry (in Angstrom), charge = 0, multiplicity = 1:

       Center              X                  Y                   Z               Mass
    ------------   -----------------  -----------------  -----------------  -----------------
      Gh(K)           0.000000000000     0.000000000000     0.000000000000    38.963706486400
      Gh(O)          -1.457044000000    -2.550395000000     0.407014000000    15.994914619570
      Gh(H)          -0.947257000000    -2.879841000000     1.151043000000     1.007825032230
      Gh(H)          -2.328321000000    -2.243661000000     0.699340000000     1.007825032230
         O            2.038414000000    -1.767961000000     0.341126000000    15.994914619570
         H            2.837008000000    -1.255039000000     0.326724000000     1.007825032230
         H            1.966681000000    -2.473380000000    -0.315675000000     1.007825032230
      Gh(O)          -1.661440000000     0.175056000000     1.991238000000    15.994914619570
      Gh(H)          -0.975522000000     0.765504000000     2.308795000000     1.007825032230
      Gh(H)          -2.384597000000     0.634620000000     1.603907000000     1.007825032230
      Gh(O)           1.704232000000     1.691653000000    -1.239466000000    15.994914619570
      Gh(H)           1.159358000000     2.227433000000    -1.799160000000     1.007825032230
      Gh(H)           1.823795000000     2.247273000000    -0.485218000000     1.007825032230
      Gh(O)          -1.743882000000     0.339578000000    -1.736908000000    15.994914619570
      Gh(H)          -2.201474000000    -0.503521000000    -1.987939000000     1.007825032230
      Gh(H)          -2.102341000000     0.953944000000    -2.383414000000     1.007825032230

  Charge       = 0
  Multiplicity = 1
  Basis Set: AUG-CC-PVTZ
    Blend: AUG-CC-PVTZ
  Basis Set: (AUG-CC-PVTZ AUX)
    Blend: AUG-CC-PVTZ-JKFIT + DEF2-UNIVERSAL-JKFIT

    Orbital Energies [Eh]
    ---------------------

    Doubly Occupied:

       1A    -20.561466     2A     -1.345076     3A     -0.738783
       4A     -0.561711     5A     -0.506587

  @DF-RHF Final Energy:   -76.05765584436477

   => Energetics <=

    Nuclear Repulsion Energy =              9.1647013535544399
    One-Electron Energy =                -123.0174647569141086
    Two-Electron Energy =                  37.7951075589948999
    Total Energy =                        -76.0576558443647741
 Dipole X            :        -39.3904190           39.8940101            0.5035911
 Dipole Y            :         33.6415735          -33.7733875           -0.1318140
 Dipole Z            :         -5.6411653            5.1779573           -0.4632080
 Magnitude           :                                                    0.6968074
  Basis Set: (AUG-CC-PVTZ AUX)
    Blend: AUG-CC-PVTZ-RI + DEF2-QZVPP-RI
	 Reference Energy          =     -76.0576558443647741 [Eh]
	 Singles Energy            =      -0.0000000000000000 [Eh]
	 Same-Spin Energy          =      -0.0683280541969335 [Eh]
	 Opposite-Spin Energy      =      -0.2151502019435299 [Eh]
	 Correlation Energy        =      -0.2834782561404633 [Eh]
	 Total Energy              =     -76.3411341005052435 [Eh]

	 ================> DF-SCS-MP2 Energies <==================
	-----------------------------------------------------------
	 SCS Same-Spin Scale       =       0.3333333333333333 [-]
	 SCS Opposite-Spin Scale   =       1.2000000000000000 [-]
	 SCS Same-Spin Energy      =      -0.0227760180656445 [Eh]
	 SCS Opposite-Spin Energy  =      -0.2581802423322358 [Eh]
	 SCS Correlation Energy    =      -0.2809562603978803 [Eh]
	 SCS Total Energy          =     -76.3386121047626602 [Eh]
	-----------------------------------------------------------

*** Psi4 exiting successfully. Buy a developer a beer!
