                               Psi4 1.9 release

  ==> Input File <==

--------------------------------------------------------------------------
MEMORY 60 GB

molecule dimer {
1 1
K      0.000000     0.000000     0.000000
--
0 1
O     -2.448527    -0.291095    -1.019181
H     -2.813473     0.376710    -0.455549
H     -2.996059    -1.063636    -0.906107
O     -0.359694    -2.647424     0.173385
H     -0.129317    -3.280336    -0.543745
H     -0.768006    -3.148797     0.926610
O      2.782323     0.361715    -0.387797
H      3.104084     1.127188     0.048438
H      3.129044    -0.410494     0.120079
O      1.143816     0.172493     2.326214
H      2.118111     0.190490     2.431222
H      0.790123    -0.238853     3.124352
O     -0.785943     2.820602    -0.803775
H     -1.653070     3.218136    -0.938106
H     -0.338429     3.318736    -0.088312

units ang
no_reorient
no_com
symmetry c1
}

set {
basis        aug-cc-pVTZ
scf_type     df
}

energy("mp2", bsse_type="cp")
--------------------------------------------------------------------------

                               Psi4 1.9 release
    Molecular point group: c1
  Charge       = 0
  Multiplicity = 1
  Basis Set: AUG-CC-PVTZ
    Blend: AUG-CC-PVTZ
  Basis Set: (AUG-CC-PVTZ AUX)
    Blend: AUG-CC-PVTZ-JKFIT + DEF2-UNIVERSAL-JKFIT
  @DF-RHF Final Energy:  -380.27937188709666
    Total Energy =                       -380.2793718870966586
 Dipole X            :         -6.0052082            5.8558984           -0.1493097
 Dipole Y            :         -6.9431626            6.4618656           -0.4812970
 Dipole Z            :         -9.3949252           11.3943871            1.9994619
 Magnitude           :                                                    2.0619865
  Basis Set: (AUG-CC-PVTZ AUX)
    Blend: AUG-CC-PVTZ-RI + DEF2-QZVPP-RI
	 Reference Energy          =    -380.2793718870966586 [Eh]
	 Singles Energy            =      -0.0000000000000000 [Eh]
	 Same-Spin Energy          =      -0.3445757267574902 [Eh]
	 Opposite-Spin Energy      =      -1.0830143774477679 [Eh]
	 Correlation Energy        =      -1.4275901042052581 [Eh]
	 Total Energy              =    -381.7069619913019096 [Eh]
	 SCS Total Energy          =    -381.6938477156198246 [Eh]
                               Psi4 1.9 release
    Molecular point group: c1
  Multiplicity = 1
  Basis Set: AUG-CC-PVTZ
    Blend: AUG-CC-PVTZ
  Basis Set: (AUG-CC-PVTZ AUX)
    Blend: AUG-CC-PVTZ-JKFIT + DEF2-UNIVERSAL-JKFIT
  @DF-RHF Final Energy:  -599.01751594759060
    Total Energy =                       -599.0175159475905957
  Basis Set: (AUG-CC-PVTZ AUX)
	 Singles Energy            =      -0.0000000000000000 [Eh]
	 Same-Spin Energy          =      -0.0371878272304357 [Eh]
	 Opposite-Spin Energy      =      -0.0906748448218432 [Eh]
	 Correlation Energy        =      -0.1278626720522789 [Eh]
	 Total Energy              =    -599.1453786196428837 [Eh]
	 SCS Total Energy          =    -599.1387217037869277 [Eh]
                               Psi4 1.9 release
    Molecular point group: c1

    Geometry (in Bohr), charge = 1, multiplicity = 1:

       Center              X                  Y                   Z               Mass
    ------------   -----------------  -----------------  -----------------  -----------------
         K            0.000000000000     0.000000000000     0.000000000000    38.963706486400
         O           -4.627045440789    -0.550089826490    -1.925972962270    15.994914619570
         H           -5.316693431370     0.711878728721    -0.860862846726     1.007825032230
         H           -5.661730965713    -2.009980737177    -1.712294070360     1.007825032230
         O           -0.679723148970    -5.002906297964     0.327650164263    15.994914619570
         H           -0.244373713366    -6.198936639480    -1.027529132087     1.007825032230
         H           -1.451321002708    -5.950363954663     1.751039125110     1.007825032230
         O            5.257828462562     0.683542285470    -0.732830122274    15.994914619570
         H            5.865868630416     2.130076611903     0.091534554065     1.007825032230
         H            5.913036194507    -0.775721236144     0.226916423419     1.007825032230
         O            2.161498977917     0.325964528559     4.395907369206    15.994914619570
         H            4.002649693320     0.359973929638     4.594343730188     1.007825032230
         H            1.493116075425    -0.451366754244     5.904169599526     1.007825032230
         O           -1.485217020221     5.330165288919    -1.518914616490    15.994914619570
         H           -3.123849566211     6.081395674476    -1.772763416649     1.007825032230
         H           -0.639538122913     6.271502122697    -0.166885493591     1.007825032230

  Charge       = 1
  Multiplicity = 1
  Basis Set: AUG-CC-PVTZ
    Blend: AUG-CC-PVTZ
  Basis Set: (AUG-CC-PVTZ AUX)
    Blend: AUG-CC-PVTZ-JKFIT + DEF2-UNIVERSAL-JKFIT

    Orbital Energies [Eh]
    ---------------------

    Doubly Occupied:

       1A   -133.595858     2A    -20.727464     3A    -20.718259
       4A    -20.709247     5A    -20.702586     6A    -20.700134
       7A    -14.554003     8A    -11.583927     9A    -11.583773
      10A    -11.583702    11A     -1.817904    12A     -1.508283
      13A     -1.497475    14A     -1.494915    15A     -1.487334
      16A     -1.477313    17A     -1.029664    18A     -1.028073
      19A     -1.027271    20A     -0.875751    21A     -0.864831
      22A     -0.861503    23A     -0.859576    24A     -0.848078
      25A     -0.748618    26A     -0.730929    27A     -0.727229
      28A     -0.725943    29A     -0.712393    30A     -0.673922
      31A     -0.662735    32A     -0.655127    33A     -0.649606
      34A     -0.642915

  @DF-RHF Final Energy:  -979.39293078908372

   => Energetics <=

    Nuclear Repulsion Energy =            345.7285706178125224
    One-Electron Energy =               -2030.1103163756431513
    Two-Electron Energy =                 704.9888149687469650
    Total Energy =                       -979.3929307890837208
 Dipole X            :         -5.9842345            5.8558984           -0.1283361
 Dipole Y            :         -7.0324556            6.4618656           -0.5705900
 Dipole Z            :         -9.2761328           11.3943871            2.1182543
 Magnitude           :                                                    2.1975087
  Basis Set: (AUG-CC-PVTZ AUX)
    Blend: AUG-CC-PVTZ-RI + DEF2-QZVPP-RI
	 Reference Energy          =    -979.3929307890837208 [Eh]
	 Singles Energy            =      -0.0000000000000000 [Eh]
	 Same-Spin Energy          =      -0.3850559942136917 [Eh]
	 Opposite-Spin Energy      =      -1.1731388712172808 [Eh]
	 Correlation Energy        =      -1.5581948654309725 [Eh]
	 Total Energy              =    -980.9511256545147262 [Eh]

	 ================> DF-SCS-MP2 Energies <==================
	-----------------------------------------------------------
	 SCS Same-Spin Scale       =       0.3333333333333333 [-]
	 SCS Opposite-Spin Scale   =       1.2000000000000000 [-]
	 SCS Same-Spin Energy      =      -0.1283519980712306 [Eh]
	 SCS Opposite-Spin Energy  =      -1.4077666454607369 [Eh]
	 SCS Correlation Energy    =      -1.5361186435319676 [Eh]
	 SCS Total Energy          =    -980.9290494326156704 [Eh]
	-----------------------------------------------------------

*** Psi4 exiting successfully. Buy a developer a beer!
