                               Psi4 1.9 release

  ==> Input File <==

--------------------------------------------------------------------------
MEMORY 60 GB

molecule dimer {
0 1
Gh(K)      0.000000     0.000000     0.000000
Gh(O)     -1.476491    -0.756259     2.290019
Gh(H)     -1.759686    -1.376309     1.544947
Gh(H)     -2.291192    -0.305429     2.556178
Gh(O)     -2.631532     1.181732    -0.243706
Gh(H)     -2.245032     1.740452    -0.949982
Gh(H)     -2.984989     1.700291     0.504715
Gh(O)      1.975492    -0.044738    -1.728567
Gh(H)      2.884251    -0.090974    -1.517372
Gh(H)      1.820966    -0.995882    -1.782993
Gh(O)      2.397673    -0.356089     1.291352
Gh(H)      2.935808    -0.353847     0.513619
Gh(H)      2.540992     0.514317     1.727057
O         -0.114464     2.275923     1.666919
H         -0.924524     2.782367     1.384837
H          0.519910     2.828453     2.078350
Gh(O)     -1.132358    -0.800595    -2.392425
Gh(H)     -1.671831    -1.510047    -1.934175
Gh(H)     -1.222263    -0.893060    -3.357476

units ang
no_reorient
no_com
symmetry c1
}

set {
basis        aug-cc-pVTZ
scf_type     df
}

energy("mp2")
--------------------------------------------------------------------------

    Molecular point group: c1

    Geometry (in Angstrom), charge = 0, multiplicity = 1:

       Center              X                  Y                   Z               Mass
    ------------   -----------------  -----------------  -----------------  -----------------
      Gh(K)           0.000000000000     0.000000000000     0.000000000000    38.963706486400
      Gh(O)          -1.476491000000    -0.756259000000     2.290019000000    15.994914619570
      Gh(H)          -1.759686000000    -1.376309000000     1.544947000000     1.007825032230
      Gh(H)          -2.291192000000    -0.305429000000     2.556178000000     1.007825032230
      Gh(O)          -2.631532000000     1.181732000000    -0.243706000000    15.994914619570
      Gh(H)          -2.245032000000     1.740452000000    -0.949982000000     1.007825032230
      Gh(H)          -2.984989000000     1.700291000000     0.504715000000     1.007825032230
      Gh(O)           1.975492000000    -0.044738000000    -1.728567000000    15.994914619570
      Gh(H)           2.884251000000    -0.090974000000    -1.517372000000     1.007825032230
      Gh(H)           1.820966000000    -0.995882000000    -1.782993000000     1.007825032230
      Gh(O)           2.397673000000    -0.356089000000     1.291352000000    15.994914619570
      Gh(H)           2.935808000000    -0.353847000000     0.513619000000     1.007825032230
      Gh(H)           2.540992000000     0.514317000000     1.727057000000     1.007825032230
         O           -0.114464000000     2.275923000000     1.666919000000    15.994914619570
         H           -0.924524000000     2.782367000000     1.384837000000     1.007825032230
         H            0.519910000000     2.828453000000     2.078350000000     1.007825032230
      Gh(O)          -1.132358000000    -0.800595000000    -2.392425000000    15.994914619570
      Gh(H)          -1.671831000000    -1.510047000000    -1.934175000000     1.007825032230
      Gh(H)          -1.222263000000    -0.893060000000    -3.357476000000     1.007825032230

  Charge       = 0
  Multiplicity = 1
  Basis Set: AUG-CC-PVTZ
    Blend: AUG-CC-PVTZ
  Basis Set: (AUG-CC-PVTZ AUX)
    Blend: AUG-CC-PVTZ-JKFIT + DEF2-UNIVERSAL-JKFIT

    Orbital Energies [Eh]
    ---------------------

    Doubly Occupied:

       1A    -20.564934     2A     -1.344581     3A     -0.726651
       4A     -0.568405     5A     -0.507319

  @DF-RHF Final Energy:   -76.05716012827754

   => Energetics <=

    Nuclear Repulsion Energy =              9.1005999790398970
    One-Electron Energy =                -122.8917378425335443
    Two-Electron Energy =                  37.7339777352161008
    Total Energy =                        -76.0571601282775447
 Dipole X            :          2.3830956           -2.4950545           -0.1119590
 Dipole Y            :        -44.2921888           45.0098824            0.7176936
 Dipole Z            :        -31.6534572           31.7446380            0.0911808
 Magnitude           :                                                    0.7320743
  Basis Set: (AUG-CC-PVTZ AUX)
    Blend: AUG-CC-PVTZ-RI + DEF2-QZVPP-RI
	 Reference Energy          =     -76.0571601282775447 [Eh]
	 Singles Energy            =      -0.0000000000000000 [Eh]
	 Same-Spin Energy          =      -0.0684557890922501 [Eh]
	 Opposite-Spin Energy      =      -0.2158067629170651 [Eh]
	 Correlation Energy        =      -0.2842625520093152 [Eh]
	 Total Energy              =     -76.3414226802868541 [Eh]

	 ================> DF-SCS-MP2 Energies <==================
	-----------------------------------------------------------
	 SCS Same-Spin Scale       =       0.3333333333333333 [-]
	 SCS Opposite-Spin Scale   =       1.2000000000000000 [-]
	 SCS Same-Spin Energy      =      -0.0228185963640834 [Eh]
	 SCS Opposite-Spin Energy  =      -0.2589681155004781 [Eh]
	 SCS Correlation Energy    =      -0.2817867118645614 [Eh]
	 SCS Total Energy          =     -76.3389468401420999 [Eh]
	-----------------------------------------------------------

*** Psi4 exiting successfully. Buy a developer a beer!
