                               Psi4 1.9 release

  ==> Input File <==

--------------------------------------------------------------------------
MEMORY 60 GB

molecule dimer {
0 1
Gh(K)      0.000000     0.000000     0.000000
Gh(O)      2.447443     0.085993    -0.685068
Gh(H)      2.680985    -0.837747    -0.449500
Gh(H)      2.829525     0.251364    -1.547070
O         -0.233139     0.163157    -2.500787
H         -0.170321     1.052496    -2.894868
H         -0.081279    -0.518299    -3.176040
Gh(O)      0.572340    -2.370612     0.170271
Gh(H)      1.401491    -2.685494    -0.138462
Gh(H)      0.365707    -2.920483     0.932021
Gh(O)     -1.422337    -0.715469     2.174589
Gh(H)     -1.861433     0.134559     2.211240
Gh(H)     -0.761789    -0.679178     2.924485
Gh(O)     -0.712298     2.966230    -0.259699
Gh(H)     -1.087339     3.581553    -0.884928
Gh(H)      0.231785     2.928736    -0.444753

units ang
no_reorient
no_com
symmetry c1
}

set {
basis        aug-cc-pVTZ
scf_type     df
}

energy("mp2")
--------------------------------------------------------------------------

    Molecular point group: c1

    Geometry (in Angstrom), charge = 0, multiplicity = 1:

       Center              X                  Y                   Z               Mass
    ------------   -----------------  -----------------  -----------------  -----------------
      Gh(K)           0.000000000000     0.000000000000     0.000000000000    38.963706486400
      Gh(O)           2.447443000000     0.085993000000    -0.685068000000    15.994914619570
      Gh(H)           2.680985000000    -0.837747000000    -0.449500000000     1.007825032230
      Gh(H)           2.829525000000     0.251364000000    -1.547070000000     1.007825032230
         O           -0.233139000000     0.163157000000    -2.500787000000    15.994914619570
         H           -0.170321000000     1.052496000000    -2.894868000000     1.007825032230
         H           -0.081279000000    -0.518299000000    -3.176040000000     1.007825032230
      Gh(O)           0.572340000000    -2.370612000000     0.170271000000    15.994914619570
      Gh(H)           1.401491000000    -2.685494000000    -0.138462000000     1.007825032230
      Gh(H)           0.365707000000    -2.920483000000     0.932021000000     1.007825032230
      Gh(O)          -1.422337000000    -0.715469000000     2.174589000000    15.994914619570
      Gh(H)          -1.861433000000     0.134559000000     2.211240000000     1.007825032230
      Gh(H)          -0.761789000000    -0.679178000000     2.924485000000     1.007825032230
      Gh(O)          -0.712298000000     2.966230000000    -0.259699000000    15.994914619570
      Gh(H)          -1.087339000000     3.581553000000    -0.884928000000     1.007825032230
      Gh(H)           0.231785000000     2.928736000000    -0.444753000000     1.007825032230

  Charge       = 0
  Multiplicity = 1
  Basis Set: AUG-CC-PVTZ
    Blend: AUG-CC-PVTZ
  Basis Set: (AUG-CC-PVTZ AUX)
    Blend: AUG-CC-PVTZ-JKFIT + DEF2-UNIVERSAL-JKFIT

    Orbital Energies [Eh]
    ---------------------

    Doubly Occupied:

       1A    -20.567045     2A     -1.341489     3A     -0.719851
       4A     -0.570476     5A     -0.507208

  @DF-RHF Final Energy:   -76.05849994266691

   => Energetics <=

    Nuclear Repulsion Energy =              9.0326436338067602
    One-Electron Energy =                -122.7701442859493000
    Two-Electron Energy =                  37.6790007094756305
    Total Energy =                        -76.0584999426669128
 Dipole X            :          4.1437713           -4.0000060            0.1437653
 Dipole Y            :         -3.3371394            3.4760624            0.1389230
 Dipole Z            :         48.5615436          -49.2787737           -0.7172301
 Magnitude           :                                                    0.7445717
  Basis Set: (AUG-CC-PVTZ AUX)
    Blend: AUG-CC-PVTZ-RI + DEF2-QZVPP-RI
	 Reference Energy          =     -76.0584999426669128 [Eh]
	 Singles Energy            =      -0.0000000000000000 [Eh]
	 Same-Spin Energy          =      -0.0685882983626148 [Eh]
	 Opposite-Spin Energy      =      -0.2161781331389207 [Eh]
	 Correlation Energy        =      -0.2847664315015355 [Eh]
	 Total Energy              =     -76.3432663741684507 [Eh]

	 ================> DF-SCS-MP2 Energies <==================
	-----------------------------------------------------------
	 SCS Same-Spin Scale       =       0.3333333333333333 [-]
	 SCS Opposite-Spin Scale   =       1.2000000000000000 [-]
	 SCS Same-Spin Energy      =      -0.0228627661208716 [Eh]
	 SCS Opposite-Spin Energy  =      -0.2594137597667048 [Eh]
	 SCS Correlation Energy    =      -0.2822765258875765 [Eh]
	 SCS Total Energy          =     -76.3407764685544947 [Eh]
	-----------------------------------------------------------

*** Psi4 exiting successfully. Buy a developer a beer!
