                               Psi4 1.9 release

  ==> Input File <==

--------------------------------------------------------------------------
MEMORY 60 GB

molecule dimer {
1 1
K      0.000000     0.000000     0.000000
--
0 1
O     -1.879920     2.131600     0.557926
H     -2.648079     2.548980     0.056049
H     -1.887437     2.455367     1.426203
O      1.152182     1.581044    -1.769112
H      1.909533     1.935900    -1.263555
H      1.466093     1.448690    -2.624702
O      0.223121    -2.711640     0.645294
H      0.828753    -2.906869     1.403819
H     -0.563140    -3.220153     0.851557
O      1.524854     2.013421     1.098941
H      1.225291     2.922636     1.209810
H      2.238959     2.172119     0.523577
O     -0.474255    -1.111893    -2.327802
H     -1.177610    -1.416111    -2.945593
H      0.329445    -1.642755    -2.406746
O     -2.305451    -0.792312     1.710421
H     -2.440067    -1.648183     2.196214
H     -2.692466    -0.773457     0.838942

units ang
no_reorient
no_com
symmetry c1
}

set {
basis        aug-cc-pVTZ
scf_type     df
}

energy("mp2", bsse_type="cp")
--------------------------------------------------------------------------

                               Psi4 1.9 release
    Molecular point group: c1
  Charge       = 0
  Multiplicity = 1
  Basis Set: AUG-CC-PVTZ
    Blend: AUG-CC-PVTZ
  Basis Set: (AUG-CC-PVTZ AUX)
    Blend: AUG-CC-PVTZ-JKFIT + DEF2-UNIVERSAL-JKFIT
  @DF-RHF Final Energy:  -456.32116678646753
    Total Energy =                       -456.3211667864675292
 Dipole X            :         33.0616283          -33.0446524            0.0169758
 Dipole Y            :        -20.5722636           20.3295300           -0.2427335
 Dipole Z            :          2.3046045           -2.6627772           -0.3581726
 Magnitude           :                                                    0.4330074
  Basis Set: (AUG-CC-PVTZ AUX)
    Blend: AUG-CC-PVTZ-RI + DEF2-QZVPP-RI
	 Reference Energy          =    -456.3211667864675292 [Eh]
	 Singles Energy            =      -0.0000000000000000 [Eh]
	 Same-Spin Energy          =      -0.4147031615458880 [Eh]
	 Opposite-Spin Energy      =      -1.3009682750132061 [Eh]
	 Correlation Energy        =      -1.7156714365590942 [Eh]
	 Total Energy              =    -458.0368382230266207 [Eh]
	 SCS Total Energy          =    -458.0205631036653244 [Eh]
                               Psi4 1.9 release
    Molecular point group: c1
  Multiplicity = 1
  Basis Set: AUG-CC-PVTZ
    Blend: AUG-CC-PVTZ
  Basis Set: (AUG-CC-PVTZ AUX)
    Blend: AUG-CC-PVTZ-JKFIT + DEF2-UNIVERSAL-JKFIT
  @DF-RHF Final Energy:  -599.01751675918388
    Total Energy =                       -599.0175167591838772
  Basis Set: (AUG-CC-PVTZ AUX)
	 Singles Energy            =      -0.0000000000000000 [Eh]
	 Same-Spin Energy          =      -0.0385913993374168 [Eh]
	 Opposite-Spin Energy      =      -0.0945233339589848 [Eh]
	 Correlation Energy        =      -0.1331147332964016 [Eh]
	 Total Energy              =    -599.1506314924803291 [Eh]
	 SCS Total Energy          =    -599.1438085597137615 [Eh]
                               Psi4 1.9 release
    Molecular point group: c1

    Geometry (in Bohr), charge = 1, multiplicity = 1:

       Center              X                  Y                   Z               Mass
    ------------   -----------------  -----------------  -----------------  -----------------
         K            0.000000000000     0.000000000000     0.000000000000    38.963706486400
         O           -3.552533937771     4.028140209026     1.054327338272    15.994914619570
         H           -5.004144068576     4.816874099269     0.105917259606     1.007825032230
         H           -3.566739009056     4.639971167487     2.695133069306     1.007825032230
         O            2.177308426682     2.987740152298    -3.343137165261    15.994914619570
         H            3.608494397524     3.658320806274    -2.387772894453     1.007825032230
         H            2.770514244451     2.737627340690    -4.959967940941     1.007825032230
         O            0.421637582838    -5.124256950836     1.219428930401    15.994914619570
         H            1.566116195652    -5.493186292583     2.652833439714     1.007825032230
         H           -1.064180370290    -6.085207252071     1.609209510216     1.007825032230
         O            2.881556441309     3.804814265245     2.076697518037    15.994914619570
         H            2.315464413988     5.522981604404     2.286209563840     1.007825032230
         H            4.231019316129     4.104710021903     0.989417135589     1.007825032230
         O           -0.896212063629    -2.101173250814    -4.398908254293    15.994914619570
         H           -2.225360382600    -2.676061953248    -5.566364047066     1.007825032230
         H            0.622560823401    -3.104357041226    -4.548090793541     1.007825032230
         O           -4.356670985663    -1.497252685914     3.232227249232    15.994914619570
         H           -4.611058357768    -3.114614474635     4.150242972896     1.007825032230
         H           -5.088023342107    -1.461621899818     1.585370615144     1.007825032230

  Charge       = 1
  Multiplicity = 1
  Basis Set: AUG-CC-PVTZ
    Blend: AUG-CC-PVTZ
  Basis Set: (AUG-CC-PVTZ AUX)
    Blend: AUG-CC-PVTZ-JKFIT + DEF2-UNIVERSAL-JKFIT

    Orbital Energies [Eh]
    ---------------------

    Doubly Occupied:

       1A   -133.579182     2A    -20.709064     3A    -20.707036
       4A    -20.703945     5A    -20.703153     6A    -20.689809
       7A    -20.689103     8A    -14.537338     9A    -11.567260
      10A    -11.567104    11A    -11.567042    12A     -1.801413
      13A     -1.511336    14A     -1.499193    15A     -1.485672
      16A     -1.480713    17A     -1.472162    18A     -1.465634
      19A     -1.013907    20A     -1.012045    21A     -1.010807
      22A     -0.876853    23A     -0.860624    24A     -0.851757
      25A     -0.848503    26A     -0.845194    27A     -0.843292
      28A     -0.748608    29A     -0.731194    30A     -0.728054
      31A     -0.713057    32A     -0.706953    33A     -0.690839
      34A     -0.659016    35A     -0.656777    36A     -0.653645
      37A     -0.646280    38A     -0.634155    39A     -0.629212

  @DF-RHF Final Energy: -1055.44793276309110

   => Energetics <=

    Nuclear Repulsion Energy =            457.1541142623107135
    One-Electron Energy =               -2357.0102200328678919
    Two-Electron Energy =                 844.4081730074660754
    Total Energy =                      -1055.4479327630911030
 Dipole X            :         32.9333651          -33.0446524           -0.1112873
 Dipole Y            :        -20.4826099           20.3295300           -0.1530798
 Dipole Z            :          2.2074896           -2.6627772           -0.4552876
 Magnitude           :                                                    0.4930569
  Basis Set: (AUG-CC-PVTZ AUX)
    Blend: AUG-CC-PVTZ-RI + DEF2-QZVPP-RI
	 Reference Energy          =   -1055.4479327630911030 [Eh]
	 Singles Energy            =      -0.0000000000000000 [Eh]
	 Same-Spin Energy          =      -0.4569218452882483 [Eh]
	 Opposite-Spin Energy      =      -1.3946583769983936 [Eh]
	 Correlation Energy        =      -1.8515802222866418 [Eh]
	 Total Energy              =   -1057.2995129853777598 [Eh]

	 ================> DF-SCS-MP2 Energies <==================
	-----------------------------------------------------------
	 SCS Same-Spin Scale       =       0.3333333333333333 [-]
	 SCS Opposite-Spin Scale   =       1.2000000000000000 [-]
	 SCS Same-Spin Energy      =      -0.1523072817627494 [Eh]
	 SCS Opposite-Spin Energy  =      -1.6735900523980722 [Eh]
	 SCS Correlation Energy    =      -1.8258973341608216 [Eh]
	 SCS Total Energy          =   -1057.2738300972519028 [Eh]
	-----------------------------------------------------------

*** Psi4 exiting successfully. Buy a developer a beer!
