                               Psi4 1.9 release

  ==> Input File <==

--------------------------------------------------------------------------
MEMORY 60 GB

molecule dimer {
1 1
K          0.000000     0.000000     0.000000
O         -1.237201    -1.186877    -1.898620
H         -1.455599    -2.078405    -2.264946
H         -1.884303    -0.587869    -2.247465
O          1.982555    -1.627158    -0.050544
H          2.859228    -1.332600    -0.294042
H          2.024029    -2.574119    -0.007952
O          0.529545     2.030396     1.666827
H          0.081547     1.990380     2.491648
H          0.447311     2.993552     1.488365
O         -2.004583    -1.160979     1.036664
H         -2.719039    -0.691870     1.542242
H         -2.486547    -1.780673     0.451519

units ang
no_reorient
no_com
symmetry c1
}

set {
basis        aug-cc-pVTZ
scf_type     df
}

energy("mp2")
--------------------------------------------------------------------------

    Molecular point group: c1

    Geometry (in Angstrom), charge = 1, multiplicity = 1:

       Center              X                  Y                   Z               Mass
    ------------   -----------------  -----------------  -----------------  -----------------
         K            0.000000000000     0.000000000000     0.000000000000    38.963706486400
         O           -1.237201000000    -1.186877000000    -1.898620000000    15.994914619570
         H           -1.455599000000    -2.078405000000    -2.264946000000     1.007825032230
         H           -1.884303000000    -0.587869000000    -2.247465000000     1.007825032230
         O            1.982555000000    -1.627158000000    -0.050544000000    15.994914619570
         H            2.859228000000    -1.332600000000    -0.294042000000     1.007825032230
         H            2.024029000000    -2.574119000000    -0.007952000000     1.007825032230
         O            0.529545000000     2.030396000000     1.666827000000    15.994914619570
         H            0.081547000000     1.990380000000     2.491648000000     1.007825032230
         H            0.447311000000     2.993552000000     1.488365000000     1.007825032230
         O           -2.004583000000    -1.160979000000     1.036664000000    15.994914619570
         H           -2.719039000000    -0.691870000000     1.542242000000     1.007825032230
         H           -2.486547000000    -1.780673000000     0.451519000000     1.007825032230

  Charge       = 1
  Multiplicity = 1
  Basis Set: AUG-CC-PVTZ
    Blend: AUG-CC-PVTZ
  Basis Set: (AUG-CC-PVTZ AUX)
    Blend: AUG-CC-PVTZ-JKFIT + DEF2-UNIVERSAL-JKFIT

    Orbital Energies [Eh]
    ---------------------

    Doubly Occupied:

       1A   -133.594129     2A    -20.724201     3A    -20.720479
       4A    -20.716946     5A    -20.710155     6A    -14.553004
       7A    -11.582836     8A    -11.582713     9A    -11.582632
      10A     -1.819339    11A     -1.509543    12A     -1.506500
      13A     -1.504018    14A     -1.493913    15A     -1.031764
      16A     -1.031201    17A     -1.030311    18A     -0.875738
      19A     -0.871135    20A     -0.855364    21A     -0.854433
      22A     -0.754709    23A     -0.743970    24A     -0.740554
      25A     -0.738148    26A     -0.677882    27A     -0.664165
      28A     -0.660548    29A     -0.657474

  @DF-RHF Final Energy:  -903.32797695949546

   => Energetics <=

    Nuclear Repulsion Energy =            262.7006391961128884
    One-Electron Energy =               -1760.4816197403761180
    Two-Electron Energy =                 594.4530035847677709
    Total Energy =                       -903.3279769594954587
 Dipole X            :         15.7973612          -16.9524402           -1.1550790
 Dipole Y            :         36.7128307          -37.0736827           -0.3608520
 Dipole Z            :        -13.7921510           13.5946614           -0.1974896
 Magnitude           :                                                    1.2261418
  Basis Set: (AUG-CC-PVTZ AUX)
    Blend: AUG-CC-PVTZ-RI + DEF2-QZVPP-RI
	 Reference Energy          =    -903.3279769594954587 [Eh]
	 Singles Energy            =      -0.0000000000000000 [Eh]
	 Same-Spin Energy          =      -0.3157338163647489 [Eh]
	 Opposite-Spin Energy      =      -0.9549327641880156 [Eh]
	 Correlation Energy        =      -1.2706665805527646 [Eh]
	 Total Energy              =    -904.5986435400482151 [Eh]

	 ================> DF-SCS-MP2 Energies <==================
	-----------------------------------------------------------
	 SCS Same-Spin Scale       =       0.3333333333333333 [-]
	 SCS Opposite-Spin Scale   =       1.2000000000000000 [-]
	 SCS Same-Spin Energy      =      -0.1052446054549163 [Eh]
	 SCS Opposite-Spin Energy  =      -1.1459193170256188 [Eh]
	 SCS Correlation Energy    =      -1.2511639224805351 [Eh]
	 SCS Total Energy          =    -904.5791408819759454 [Eh]
	-----------------------------------------------------------

*** Psi4 exiting successfully. Buy a developer a beer!
