                               Psi4 1.9 release

  ==> Input File <==

--------------------------------------------------------------------------
MEMORY 60 GB

molecule dimer {
1 1
K          0.000000     0.000000     0.000000
O          0.293827     2.618771    -0.398133
H         -0.603386     2.977651    -0.383603
H          0.504951     2.523150    -1.349400
O          2.290662    -1.154012     1.170513
H          2.200413    -1.828377     1.847435
H          2.800025    -0.449315     1.581926
O         -0.679679    -1.715755     2.067459
H          0.176766    -2.136211     2.260417
H         -1.317277    -2.272083     1.599994
O         -2.767030     0.221449     0.099673
H         -3.057655     0.587440     0.925810
H         -3.142942    -0.646895     0.189675

units ang
no_reorient
no_com
symmetry c1
}

set {
basis        aug-cc-pVTZ
scf_type     df
}

energy("mp2")
--------------------------------------------------------------------------

    Molecular point group: c1

    Geometry (in Angstrom), charge = 1, multiplicity = 1:

       Center              X                  Y                   Z               Mass
    ------------   -----------------  -----------------  -----------------  -----------------
         K            0.000000000000     0.000000000000     0.000000000000    38.963706486400
         O            0.293827000000     2.618771000000    -0.398133000000    15.994914619570
         H           -0.603386000000     2.977651000000    -0.383603000000     1.007825032230
         H            0.504951000000     2.523150000000    -1.349400000000     1.007825032230
         O            2.290662000000    -1.154012000000     1.170513000000    15.994914619570
         H            2.200413000000    -1.828377000000     1.847435000000     1.007825032230
         H            2.800025000000    -0.449315000000     1.581926000000     1.007825032230
         O           -0.679679000000    -1.715755000000     2.067459000000    15.994914619570
         H            0.176766000000    -2.136211000000     2.260417000000     1.007825032230
         H           -1.317277000000    -2.272083000000     1.599994000000     1.007825032230
         O           -2.767030000000     0.221449000000     0.099673000000    15.994914619570
         H           -3.057655000000     0.587440000000     0.925810000000     1.007825032230
         H           -3.142942000000    -0.646895000000     0.189675000000     1.007825032230

  Charge       = 1
  Multiplicity = 1
  Basis Set: AUG-CC-PVTZ
    Blend: AUG-CC-PVTZ
  Basis Set: (AUG-CC-PVTZ AUX)
    Blend: AUG-CC-PVTZ-JKFIT + DEF2-UNIVERSAL-JKFIT

    Orbital Energies [Eh]
    ---------------------

    Doubly Occupied:

       1A   -133.635664     2A    -20.729114     3A    -20.728013
       4A    -20.727634     5A    -20.726852     6A    -14.593404
       7A    -11.623341     8A    -11.623210     9A    -11.623147
      10A     -1.855858    11A     -1.524695    12A     -1.516524
      13A     -1.507341    14A     -1.506329    15A     -1.066138
      16A     -1.065148    17A     -1.063802    18A     -0.899919
      19A     -0.877734    20A     -0.871259    21A     -0.868436
      22A     -0.765630    23A     -0.752224    24A     -0.744636
      25A     -0.730218    26A     -0.684110    27A     -0.676683
      28A     -0.672686    29A     -0.667993

  @DF-RHF Final Energy:  -903.31222979480242

   => Energetics <=

    Nuclear Repulsion Energy =            254.9881192547522915
    One-Electron Energy =               -1743.9452095663518776
    Two-Electron Energy =                 585.6448605167971664
    Total Energy =                       -903.3122297948024197
 Dipole X            :         17.1180617          -17.6441177           -0.5260560
 Dipole Y            :          2.0812535           -2.7987146           -0.7174611
 Dipole Z            :        -56.2818798           57.0477137            0.7658339
 Magnitude           :                                                    1.1738769
  Basis Set: (AUG-CC-PVTZ AUX)
    Blend: AUG-CC-PVTZ-RI + DEF2-QZVPP-RI
	 Reference Energy          =    -903.3122297948024197 [Eh]
	 Singles Energy            =      -0.0000000000000000 [Eh]
	 Same-Spin Energy          =      -0.3126894505108701 [Eh]
	 Opposite-Spin Energy      =      -0.9486707065531330 [Eh]
	 Correlation Energy        =      -1.2613601570640032 [Eh]
	 Total Energy              =    -904.5735899518664382 [Eh]

	 ================> DF-SCS-MP2 Energies <==================
	-----------------------------------------------------------
	 SCS Same-Spin Scale       =       0.3333333333333333 [-]
	 SCS Opposite-Spin Scale   =       1.2000000000000000 [-]
	 SCS Same-Spin Energy      =      -0.1042298168369567 [Eh]
	 SCS Opposite-Spin Energy  =      -1.1384048478637596 [Eh]
	 SCS Correlation Energy    =      -1.2426346647007163 [Eh]
	 SCS Total Energy          =    -904.5548644595031647 [Eh]
	-----------------------------------------------------------

*** Psi4 exiting successfully. Buy a developer a beer!
