                               Psi4 1.9 release

  ==> Input File <==

--------------------------------------------------------------------------
MEMORY 60 GB

molecule dimer {
1 1
K          0.000000     0.000000     0.000000
O         -1.153594    -0.720309    -2.614003
H         -0.939565    -1.499011    -3.168115
H         -1.428502    -0.069507    -3.340308
O          0.490839     2.044895    -1.779473
H          0.093009     2.075515    -2.632645
H          1.033118     2.817953    -1.735977
O          0.208785    -2.782335    -0.500750
H          0.323043    -3.505662     0.135402
H         -0.529939    -3.016266    -1.123982
O          2.316956    -0.886052     1.337491
H          2.440257    -0.662489     2.291396
H          3.000342    -0.491984     0.781631
O         -2.584382     0.759511     0.285931
H         -3.046319     0.066787    -0.119632
H         -2.689115     0.611750     1.240907
O         -0.643833    -1.535240     2.409017
H         -0.768431    -2.498004     2.659473
H          0.031223    -1.193681     2.975804

units ang
no_reorient
no_com
symmetry c1
}

set {
basis        aug-cc-pVTZ
scf_type     df
}

energy("mp2")
--------------------------------------------------------------------------

    Molecular point group: c1

    Geometry (in Angstrom), charge = 1, multiplicity = 1:

       Center              X                  Y                   Z               Mass
    ------------   -----------------  -----------------  -----------------  -----------------
         K            0.000000000000     0.000000000000     0.000000000000    38.963706486400
         O           -1.153594000000    -0.720309000000    -2.614003000000    15.994914619570
         H           -0.939565000000    -1.499011000000    -3.168115000000     1.007825032230
         H           -1.428502000000    -0.069507000000    -3.340308000000     1.007825032230
         O            0.490839000000     2.044895000000    -1.779473000000    15.994914619570
         H            0.093009000000     2.075515000000    -2.632645000000     1.007825032230
         H            1.033118000000     2.817953000000    -1.735977000000     1.007825032230
         O            0.208785000000    -2.782335000000    -0.500750000000    15.994914619570
         H            0.323043000000    -3.505662000000     0.135402000000     1.007825032230
         H           -0.529939000000    -3.016266000000    -1.123982000000     1.007825032230
         O            2.316956000000    -0.886052000000     1.337491000000    15.994914619570
         H            2.440257000000    -0.662489000000     2.291396000000     1.007825032230
         H            3.000342000000    -0.491984000000     0.781631000000     1.007825032230
         O           -2.584382000000     0.759511000000     0.285931000000    15.994914619570
         H           -3.046319000000     0.066787000000    -0.119632000000     1.007825032230
         H           -2.689115000000     0.611750000000     1.240907000000     1.007825032230
         O           -0.643833000000    -1.535240000000     2.409017000000    15.994914619570
         H           -0.768431000000    -2.498004000000     2.659473000000     1.007825032230
         H            0.031223000000    -1.193681000000     2.975804000000     1.007825032230

  Charge       = 1
  Multiplicity = 1
  Basis Set: AUG-CC-PVTZ
    Blend: AUG-CC-PVTZ
  Basis Set: (AUG-CC-PVTZ AUX)
    Blend: AUG-CC-PVTZ-JKFIT + DEF2-UNIVERSAL-JKFIT

    Orbital Energies [Eh]
    ---------------------

    Doubly Occupied:

       1A   -133.583457     2A    -20.713607     3A    -20.704806
       4A    -20.701449     5A    -20.698246     6A    -20.693797
       7A    -20.689044     8A    -14.541162     9A    -11.571094
      10A    -11.571036    11A    -11.570872    12A     -1.803677
      13A     -1.496657    14A     -1.485572    15A     -1.481379
      16A     -1.478565    17A     -1.478257    18A     -1.465140
      19A     -1.014750    20A     -1.014322    21A     -1.011349
      22A     -0.862569    23A     -0.862212    24A     -0.849906
      25A     -0.846956    26A     -0.840882    27A     -0.824475
      28A     -0.734556    29A     -0.729530    30A     -0.718728
      31A     -0.714342    32A     -0.711471    33A     -0.700214
      34A     -0.651726    35A     -0.650223    36A     -0.647172
      37A     -0.646900    38A     -0.640202    39A     -0.630994

  @DF-RHF Final Energy: -1055.45683473523172

   => Energetics <=

    Nuclear Repulsion Energy =            451.5691439066478097
    One-Electron Energy =               -2345.9893564030671769
    Two-Electron Energy =                 838.9633777611876440
    Total Energy =                      -1055.4568347352319506
 Dipole X            :         25.4719363          -25.3274531            0.1444832
 Dipole Y            :         60.1497916          -61.0775339           -0.9277423
 Dipole Z            :         16.5849416          -16.8759006           -0.2909590
 Magnitude           :                                                    0.9829742
  Basis Set: (AUG-CC-PVTZ AUX)
    Blend: AUG-CC-PVTZ-RI + DEF2-QZVPP-RI
	 Reference Energy          =   -1055.4568347352317232 [Eh]
	 Singles Energy            =      -0.0000000000000000 [Eh]
	 Same-Spin Energy          =      -0.4556064478508084 [Eh]
	 Opposite-Spin Energy      =      -1.3928160633993534 [Eh]
	 Correlation Energy        =      -1.8484225112501618 [Eh]
	 Total Energy              =   -1057.3052572464819150 [Eh]

	 ================> DF-SCS-MP2 Energies <==================
	-----------------------------------------------------------
	 SCS Same-Spin Scale       =       0.3333333333333333 [-]
	 SCS Opposite-Spin Scale   =       1.2000000000000000 [-]
	 SCS Same-Spin Energy      =      -0.1518688159502695 [Eh]
	 SCS Opposite-Spin Energy  =      -1.6713792760792241 [Eh]
	 SCS Correlation Energy    =      -1.8232480920294936 [Eh]
	 SCS Total Energy          =   -1057.2800828272611398 [Eh]
	-----------------------------------------------------------

*** Psi4 exiting successfully. Buy a developer a beer!
