                               Psi4 1.9 release

  ==> Input File <==

--------------------------------------------------------------------------
MEMORY 60 GB

molecule dimer {
1 1
K          0.000000     0.000000     0.000000
O          1.288020     2.048155    -1.363242
H          2.289687     1.970546    -1.403737
H          1.067139     2.374250    -2.284171
O          1.081330    -2.084572    -0.974603
H          1.681074    -1.891306    -1.699856
H          0.899362    -3.081487    -1.002484
O          1.484184     1.194304     2.136076
H          1.433747     1.868088     2.889056
H          1.422654     0.344614     2.575615
O         -2.340818    -0.324700    -1.276031
H         -3.288057    -0.073244    -1.237822
H         -2.441854    -1.272455    -1.265717
O         -1.588027    -0.288334     1.906629
H         -1.962376     0.465498     2.313524
H         -1.373894    -0.914990     2.624297

units ang
no_reorient
no_com
symmetry c1
}

set {
basis        aug-cc-pVTZ
scf_type     df
}

energy("mp2")
--------------------------------------------------------------------------

    Molecular point group: c1

    Geometry (in Angstrom), charge = 1, multiplicity = 1:

       Center              X                  Y                   Z               Mass
    ------------   -----------------  -----------------  -----------------  -----------------
         K            0.000000000000     0.000000000000     0.000000000000    38.963706486400
         O            1.288020000000     2.048155000000    -1.363242000000    15.994914619570
         H            2.289687000000     1.970546000000    -1.403737000000     1.007825032230
         H            1.067139000000     2.374250000000    -2.284171000000     1.007825032230
         O            1.081330000000    -2.084572000000    -0.974603000000    15.994914619570
         H            1.681074000000    -1.891306000000    -1.699856000000     1.007825032230
         H            0.899362000000    -3.081487000000    -1.002484000000     1.007825032230
         O            1.484184000000     1.194304000000     2.136076000000    15.994914619570
         H            1.433747000000     1.868088000000     2.889056000000     1.007825032230
         H            1.422654000000     0.344614000000     2.575615000000     1.007825032230
         O           -2.340818000000    -0.324700000000    -1.276031000000    15.994914619570
         H           -3.288057000000    -0.073244000000    -1.237822000000     1.007825032230
         H           -2.441854000000    -1.272455000000    -1.265717000000     1.007825032230
         O           -1.588027000000    -0.288334000000     1.906629000000    15.994914619570
         H           -1.962376000000     0.465498000000     2.313524000000     1.007825032230
         H           -1.373894000000    -0.914990000000     2.624297000000     1.007825032230

  Charge       = 1
  Multiplicity = 1
  Basis Set: AUG-CC-PVTZ
    Blend: AUG-CC-PVTZ
  Basis Set: (AUG-CC-PVTZ AUX)
    Blend: AUG-CC-PVTZ-JKFIT + DEF2-UNIVERSAL-JKFIT

    Orbital Energies [Eh]
    ---------------------

    Doubly Occupied:

       1A   -133.580055     2A    -20.722022     3A    -20.715446
       4A    -20.704846     5A    -20.704142     6A    -20.703069
       7A    -14.538851     8A    -11.568645     9A    -11.568563
      10A    -11.568530    11A     -1.805087    12A     -1.509647
      13A     -1.494568    14A     -1.488833    15A     -1.475606
      16A     -1.464472    17A     -1.018555    18A     -1.016869
      19A     -1.015311    20A     -0.876928    21A     -0.860803
      22A     -0.836945    23A     -0.835850    24A     -0.818949
      25A     -0.743863    26A     -0.736561    27A     -0.735575
      28A     -0.720088    29A     -0.715018    30A     -0.670257
      31A     -0.664603    32A     -0.647489    33A     -0.641710
      34A     -0.640513

  @DF-RHF Final Energy:  -979.38480558990489

   => Energetics <=

    Nuclear Repulsion Energy =            351.6549907115925180
    One-Electron Energy =               -2042.4630485870532084
    Two-Electron Energy =                 711.4232522855558045
    Total Energy =                       -979.3848055899048859
 Dipole X            :          1.5044163           -1.6535217           -0.1491054
 Dipole Y            :         -8.6692186            7.8392227           -0.8299959
 Dipole Z            :         -8.8697004            9.3339942            0.4642937
 Magnitude           :                                                    0.9626497
  Basis Set: (AUG-CC-PVTZ AUX)
    Blend: AUG-CC-PVTZ-RI + DEF2-QZVPP-RI
	 Reference Energy          =    -979.3848055899048859 [Eh]
	 Singles Energy            =      -0.0000000000000000 [Eh]
	 Same-Spin Energy          =      -0.3873965043635981 [Eh]
	 Opposite-Spin Energy      =      -1.1784175622566755 [Eh]
	 Correlation Energy        =      -1.5658140666202736 [Eh]
	 Total Energy              =    -980.9506196565251912 [Eh]

	 ================> DF-SCS-MP2 Energies <==================
	-----------------------------------------------------------
	 SCS Same-Spin Scale       =       0.3333333333333333 [-]
	 SCS Opposite-Spin Scale   =       1.2000000000000000 [-]
	 SCS Same-Spin Energy      =      -0.1291321681211994 [Eh]
	 SCS Opposite-Spin Energy  =      -1.4141010747080105 [Eh]
	 SCS Correlation Energy    =      -1.5432332428292099 [Eh]
	 SCS Total Energy          =    -980.9280388327340461 [Eh]
	-----------------------------------------------------------

*** Psi4 exiting successfully. Buy a developer a beer!
