                               Psi4 1.9 release

  ==> Input File <==

--------------------------------------------------------------------------
MEMORY 60 GB

molecule dimer {
0 1
Gh(K)      0.000000     0.000000     0.000000
Gh(O)     -0.765719     1.087653     2.167467
Gh(H)     -0.366710     0.618826     2.934654
Gh(H)     -0.375078     1.956726     2.261313
Gh(O)      0.783235     0.249805    -2.652016
Gh(H)      0.810836     1.128177    -3.198673
Gh(H)      1.673506    -0.176047    -2.638363
O          1.949027     1.313741     0.855188
H          2.577772     1.693311     0.164076
H          1.560359     2.078643     1.367190
Gh(O)     -1.376289    -2.236190     1.521680
Gh(H)     -1.917950    -2.202670     2.374185
Gh(H)     -1.844766    -2.998636     1.080903
Gh(O)     -1.599232     1.945142    -1.540209
Gh(H)     -0.917197     2.521554    -1.161089
Gh(H)     -1.775862     2.352459    -2.354892

units ang
no_reorient
no_com
symmetry c1
}

set {
basis        aug-cc-pVTZ
scf_type     df
}

energy("mp2")
--------------------------------------------------------------------------

    Molecular point group: c1

    Geometry (in Angstrom), charge = 0, multiplicity = 1:

       Center              X                  Y                   Z               Mass
    ------------   -----------------  -----------------  -----------------  -----------------
      Gh(K)           0.000000000000     0.000000000000     0.000000000000    38.963706486400
      Gh(O)          -0.765719000000     1.087653000000     2.167467000000    15.994914619570
      Gh(H)          -0.366710000000     0.618826000000     2.934654000000     1.007825032230
      Gh(H)          -0.375078000000     1.956726000000     2.261313000000     1.007825032230
      Gh(O)           0.783235000000     0.249805000000    -2.652016000000    15.994914619570
      Gh(H)           0.810836000000     1.128177000000    -3.198673000000     1.007825032230
      Gh(H)           1.673506000000    -0.176047000000    -2.638363000000     1.007825032230
         O            1.949027000000     1.313741000000     0.855188000000    15.994914619570
         H            2.577772000000     1.693311000000     0.164076000000     1.007825032230
         H            1.560359000000     2.078643000000     1.367190000000     1.007825032230
      Gh(O)          -1.376289000000    -2.236190000000     1.521680000000    15.994914619570
      Gh(H)          -1.917950000000    -2.202670000000     2.374185000000     1.007825032230
      Gh(H)          -1.844766000000    -2.998636000000     1.080903000000     1.007825032230
      Gh(O)          -1.599232000000     1.945142000000    -1.540209000000    15.994914619570
      Gh(H)          -0.917197000000     2.521554000000    -1.161089000000     1.007825032230
      Gh(H)          -1.775862000000     2.352459000000    -2.354892000000     1.007825032230

  Charge       = 0
  Multiplicity = 1
  Basis Set: AUG-CC-PVTZ
    Blend: AUG-CC-PVTZ
  Basis Set: (AUG-CC-PVTZ AUX)
    Blend: AUG-CC-PVTZ-JKFIT + DEF2-UNIVERSAL-JKFIT

    Orbital Energies [Eh]
    ---------------------

    Doubly Occupied:

       1A    -20.573412     2A     -1.328675     3A     -0.698655
       4A     -0.569692     5A     -0.505657

  @DF-RHF Final Energy:   -76.05342897367869

   => Energetics <=

    Nuclear Repulsion Energy =              8.7611168659627321
    One-Electron Energy =                -122.2769068371281236
    Two-Electron Energy =                  37.4623609974866980
    Total Energy =                        -76.0534289736786917
 Dipole X            :        -37.1289517           37.2849522            0.1560005
 Dipole Y            :        -26.2416909           26.9888455            0.7471547
 Dipole Z            :        -15.9378602           15.8222422           -0.1156180
 Magnitude           :                                                    0.7719740
  Basis Set: (AUG-CC-PVTZ AUX)
    Blend: AUG-CC-PVTZ-RI + DEF2-QZVPP-RI
	 Reference Energy          =     -76.0534289736786917 [Eh]
	 Singles Energy            =      -0.0000000000000000 [Eh]
	 Same-Spin Energy          =      -0.0691514571116766 [Eh]
	 Opposite-Spin Energy      =      -0.2180839658367585 [Eh]
	 Correlation Energy        =      -0.2872354229484351 [Eh]
	 Total Energy              =     -76.3406643966271332 [Eh]

	 ================> DF-SCS-MP2 Energies <==================
	-----------------------------------------------------------
	 SCS Same-Spin Scale       =       0.3333333333333333 [-]
	 SCS Opposite-Spin Scale   =       1.2000000000000000 [-]
	 SCS Same-Spin Energy      =      -0.0230504857038922 [Eh]
	 SCS Opposite-Spin Energy  =      -0.2617007590041102 [Eh]
	 SCS Correlation Energy    =      -0.2847512447080024 [Eh]
	 SCS Total Energy          =     -76.3381802183866967 [Eh]
	-----------------------------------------------------------

*** Psi4 exiting successfully. Buy a developer a beer!
