                               Psi4 1.9 release

  ==> Input File <==

--------------------------------------------------------------------------
MEMORY 60 GB

molecule dimer {
0 1
Gh(K)      0.000000     0.000000     0.000000
Gh(O)     -1.457044    -2.550395     0.407014
Gh(H)     -0.947257    -2.879841     1.151043
Gh(H)     -2.328321    -2.243661     0.699340
Gh(O)      2.038414    -1.767961     0.341126
Gh(H)      2.837008    -1.255039     0.326724
Gh(H)      1.966681    -2.473380    -0.315675
Gh(O)     -1.661440     0.175056     1.991238
Gh(H)     -0.975522     0.765504     2.308795
Gh(H)     -2.384597     0.634620     1.603907
Gh(O)      1.704232     1.691653    -1.239466
Gh(H)      1.159358     2.227433    -1.799160
Gh(H)      1.823795     2.247273    -0.485218
O         -1.743882     0.339578    -1.736908
H         -2.201474    -0.503521    -1.987939
H         -2.102341     0.953944    -2.383414

units ang
no_reorient
no_com
symmetry c1
}

set {
basis        aug-cc-pVTZ
scf_type     df
}

energy("mp2")
--------------------------------------------------------------------------

    Molecular point group: c1

    Geometry (in Angstrom), charge = 0, multiplicity = 1:

       Center              X                  Y                   Z               Mass
    ------------   -----------------  -----------------  -----------------  -----------------
      Gh(K)           0.000000000000     0.000000000000     0.000000000000    38.963706486400
      Gh(O)          -1.457044000000    -2.550395000000     0.407014000000    15.994914619570
      Gh(H)          -0.947257000000    -2.879841000000     1.151043000000     1.007825032230
      Gh(H)          -2.328321000000    -2.243661000000     0.699340000000     1.007825032230
      Gh(O)           2.038414000000    -1.767961000000     0.341126000000    15.994914619570
      Gh(H)           2.837008000000    -1.255039000000     0.326724000000     1.007825032230
      Gh(H)           1.966681000000    -2.473380000000    -0.315675000000     1.007825032230
      Gh(O)          -1.661440000000     0.175056000000     1.991238000000    15.994914619570
      Gh(H)          -0.975522000000     0.765504000000     2.308795000000     1.007825032230
      Gh(H)          -2.384597000000     0.634620000000     1.603907000000     1.007825032230
      Gh(O)           1.704232000000     1.691653000000    -1.239466000000    15.994914619570
      Gh(H)           1.159358000000     2.227433000000    -1.799160000000     1.007825032230
      Gh(H)           1.823795000000     2.247273000000    -0.485218000000     1.007825032230
         O           -1.743882000000     0.339578000000    -1.736908000000    15.994914619570
         H           -2.201474000000    -0.503521000000    -1.987939000000     1.007825032230
         H           -2.102341000000     0.953944000000    -2.383414000000     1.007825032230

  Charge       = 0
  Multiplicity = 1
  Basis Set: AUG-CC-PVTZ
    Blend: AUG-CC-PVTZ
  Basis Set: (AUG-CC-PVTZ AUX)
    Blend: AUG-CC-PVTZ-JKFIT + DEF2-UNIVERSAL-JKFIT

    Orbital Energies [Eh]
    ---------------------

    Doubly Occupied:

       1A    -20.571654     2A     -1.346097     3A     -0.701926
       4A     -0.586782     5A     -0.509672

  @DF-RHF Final Energy:   -76.05802968430764

   => Energetics <=

    Nuclear Repulsion Energy =              9.0233377579615812
    One-Electron Energy =                -122.7304711523035365
    Two-Electron Energy =                  37.6491037100343107
    Total Energy =                        -76.0580296843076411
 Dipole X            :         33.9650792          -34.4967066           -0.5316275
 Dipole Y            :         -6.1283808            5.9848515           -0.1435294
 Dipole Z            :         33.9323076          -34.5189034           -0.5865958
 Magnitude           :                                                    0.8045639
  Basis Set: (AUG-CC-PVTZ AUX)
    Blend: AUG-CC-PVTZ-RI + DEF2-QZVPP-RI
	 Reference Energy          =     -76.0580296843076411 [Eh]
	 Singles Energy            =      -0.0000000000000000 [Eh]
	 Same-Spin Energy          =      -0.0687815237739027 [Eh]
	 Opposite-Spin Energy      =      -0.2167566794306708 [Eh]
	 Correlation Energy        =      -0.2855382032045736 [Eh]
	 Total Energy              =     -76.3435678875122079 [Eh]

	 ================> DF-SCS-MP2 Energies <==================
	-----------------------------------------------------------
	 SCS Same-Spin Scale       =       0.3333333333333333 [-]
	 SCS Opposite-Spin Scale   =       1.2000000000000000 [-]
	 SCS Same-Spin Energy      =      -0.0229271745913009 [Eh]
	 SCS Opposite-Spin Energy  =      -0.2601080153168050 [Eh]
	 SCS Correlation Energy    =      -0.2830351899081059 [Eh]
	 SCS Total Energy          =     -76.3410648742157463 [Eh]
	-----------------------------------------------------------

*** Psi4 exiting successfully. Buy a developer a beer!
