                               Psi4 1.9 release

  ==> Input File <==

--------------------------------------------------------------------------
MEMORY 60 GB

molecule dimer {
1 1
K          0.000000     0.000000     0.000000
O          2.508782    -0.141844     0.410377
H          2.562458     0.762794     0.130963
H          3.441425    -0.376554     0.562283
O          1.412786    -1.432695    -1.957736
H          2.326943    -1.625764    -2.277906
H          0.935548    -2.250073    -1.821873
O         -1.020538     1.606119     1.754091
H         -1.273693     2.198824     1.035375
H         -0.603547     2.090252     2.409861
O         -1.392791    -1.909610     1.353410
H         -1.147644    -2.832730     1.686886
H         -2.369302    -1.909809     0.980002
O         -1.194174    -0.015023    -2.323203
H         -1.115379    -0.877981    -2.766013
H         -2.152801     0.190925    -2.210689

units ang
no_reorient
no_com
symmetry c1
}

set {
basis        aug-cc-pVTZ
scf_type     df
}

energy("mp2")
--------------------------------------------------------------------------

    Molecular point group: c1

    Geometry (in Angstrom), charge = 1, multiplicity = 1:

       Center              X                  Y                   Z               Mass
    ------------   -----------------  -----------------  -----------------  -----------------
         K            0.000000000000     0.000000000000     0.000000000000    38.963706486400
         O            2.508782000000    -0.141844000000     0.410377000000    15.994914619570
         H            2.562458000000     0.762794000000     0.130963000000     1.007825032230
         H            3.441425000000    -0.376554000000     0.562283000000     1.007825032230
         O            1.412786000000    -1.432695000000    -1.957736000000    15.994914619570
         H            2.326943000000    -1.625764000000    -2.277906000000     1.007825032230
         H            0.935548000000    -2.250073000000    -1.821873000000     1.007825032230
         O           -1.020538000000     1.606119000000     1.754091000000    15.994914619570
         H           -1.273693000000     2.198824000000     1.035375000000     1.007825032230
         H           -0.603547000000     2.090252000000     2.409861000000     1.007825032230
         O           -1.392791000000    -1.909610000000     1.353410000000    15.994914619570
         H           -1.147644000000    -2.832730000000     1.686886000000     1.007825032230
         H           -2.369302000000    -1.909809000000     0.980002000000     1.007825032230
         O           -1.194174000000    -0.015023000000    -2.323203000000    15.994914619570
         H           -1.115379000000    -0.877981000000    -2.766013000000     1.007825032230
         H           -2.152801000000     0.190925000000    -2.210689000000     1.007825032230

  Charge       = 1
  Multiplicity = 1
  Basis Set: AUG-CC-PVTZ
    Blend: AUG-CC-PVTZ
  Basis Set: (AUG-CC-PVTZ AUX)
    Blend: AUG-CC-PVTZ-JKFIT + DEF2-UNIVERSAL-JKFIT

    Orbital Energies [Eh]
    ---------------------

    Doubly Occupied:

       1A   -133.591491     2A    -20.716090     3A    -20.714724
       4A    -20.710246     5A    -20.709864     6A    -20.699611
       7A    -14.550261     8A    -11.580113     9A    -11.580006
      10A    -11.579848    11A     -1.816495    12A     -1.512190
      13A     -1.501533    14A     -1.490444    15A     -1.479164
      16A     -1.460637    17A     -1.030409    18A     -1.029258
      19A     -1.024865    20A     -0.886850    21A     -0.864144
      22A     -0.858880    23A     -0.853156    24A     -0.832169
      25A     -0.741816    26A     -0.733704    27A     -0.727711
      28A     -0.710869    29A     -0.709418    30A     -0.665734
      31A     -0.664404    32A     -0.658609    33A     -0.647561
      34A     -0.636036

  @DF-RHF Final Energy:  -979.36762709194852

   => Energetics <=

    Nuclear Repulsion Energy =            357.9610051024752124
    One-Electron Energy =               -2054.7206361264793486
    Two-Electron Energy =                 717.3920039320556725
    Total Energy =                       -979.3676270919485205
 Dipole X            :         -5.7893420            5.8893844            0.1000424
 Dipole Y            :         36.6498164          -37.3684649           -0.7186484
 Dipole Z            :         15.3717498          -15.8275882           -0.4558385
 Magnitude           :                                                    0.8568855
  Basis Set: (AUG-CC-PVTZ AUX)
    Blend: AUG-CC-PVTZ-RI + DEF2-QZVPP-RI
	 Reference Energy          =    -979.3676270919485205 [Eh]
	 Singles Energy            =      -0.0000000000000000 [Eh]
	 Same-Spin Energy          =      -0.3882199525931456 [Eh]
	 Opposite-Spin Energy      =      -1.1795506358610346 [Eh]
	 Correlation Energy        =      -1.5677705884541802 [Eh]
	 Total Energy              =    -980.9353976804027297 [Eh]

	 ================> DF-SCS-MP2 Energies <==================
	-----------------------------------------------------------
	 SCS Same-Spin Scale       =       0.3333333333333333 [-]
	 SCS Opposite-Spin Scale   =       1.2000000000000000 [-]
	 SCS Same-Spin Energy      =      -0.1294066508643819 [Eh]
	 SCS Opposite-Spin Energy  =      -1.4154607630332414 [Eh]
	 SCS Correlation Energy    =      -1.5448674138976233 [Eh]
	 SCS Total Energy          =    -980.9124945058460980 [Eh]
	-----------------------------------------------------------

*** Psi4 exiting successfully. Buy a developer a beer!
