                               Psi4 1.9 release

  ==> Input File <==

--------------------------------------------------------------------------
MEMORY 60 GB

molecule dimer {
1 1
K          0.000000     0.000000     0.000000
O         -2.086159     0.979793     1.589776
H         -3.028814     0.766582     1.420076
H         -2.127653     1.886064     2.042990
O          0.522655     2.710535    -1.289778
H          0.985976     3.405292    -0.819517
H          1.081618     2.477180    -2.000586
O          2.168619     1.148467     1.439584
H          3.065140     0.771014     1.316407
H          2.175125     2.118851     1.463488
O         -0.693986    -0.163464    -2.667068
H         -1.335091    -0.843039    -2.905198
H         -0.999391     0.564417    -3.233427
O         -1.675477    -1.828136     0.355903
H         -2.093235    -2.067337    -0.492620
H         -1.684285    -2.549478     0.982289

units ang
no_reorient
no_com
symmetry c1
}

set {
basis        aug-cc-pVTZ
scf_type     df
}

energy("mp2")
--------------------------------------------------------------------------

    Molecular point group: c1

    Geometry (in Angstrom), charge = 1, multiplicity = 1:

       Center              X                  Y                   Z               Mass
    ------------   -----------------  -----------------  -----------------  -----------------
         K            0.000000000000     0.000000000000     0.000000000000    38.963706486400
         O           -2.086159000000     0.979793000000     1.589776000000    15.994914619570
         H           -3.028814000000     0.766582000000     1.420076000000     1.007825032230
         H           -2.127653000000     1.886064000000     2.042990000000     1.007825032230
         O            0.522655000000     2.710535000000    -1.289778000000    15.994914619570
         H            0.985976000000     3.405292000000    -0.819517000000     1.007825032230
         H            1.081618000000     2.477180000000    -2.000586000000     1.007825032230
         O            2.168619000000     1.148467000000     1.439584000000    15.994914619570
         H            3.065140000000     0.771014000000     1.316407000000     1.007825032230
         H            2.175125000000     2.118851000000     1.463488000000     1.007825032230
         O           -0.693986000000    -0.163464000000    -2.667068000000    15.994914619570
         H           -1.335091000000    -0.843039000000    -2.905198000000     1.007825032230
         H           -0.999391000000     0.564417000000    -3.233427000000     1.007825032230
         O           -1.675477000000    -1.828136000000     0.355903000000    15.994914619570
         H           -2.093235000000    -2.067337000000    -0.492620000000     1.007825032230
         H           -1.684285000000    -2.549478000000     0.982289000000     1.007825032230

  Charge       = 1
  Multiplicity = 1
  Basis Set: AUG-CC-PVTZ
    Blend: AUG-CC-PVTZ
  Basis Set: (AUG-CC-PVTZ AUX)
    Blend: AUG-CC-PVTZ-JKFIT + DEF2-UNIVERSAL-JKFIT

    Orbital Energies [Eh]
    ---------------------

    Doubly Occupied:

       1A   -133.592360     2A    -20.716906     3A    -20.714118
       4A    -20.704635     5A    -20.700013     6A    -20.699063
       7A    -14.550340     8A    -11.580230     9A    -11.580135
      10A    -11.580091    11A     -1.813707    12A     -1.500718
      13A     -1.499556    14A     -1.494572    15A     -1.479510
      16A     -1.463011    17A     -1.024901    18A     -1.023806
      19A     -1.023180    20A     -0.881013    21A     -0.863175
      22A     -0.859889    23A     -0.850634    24A     -0.821870
      25A     -0.747110    26A     -0.731164    27A     -0.723749
      28A     -0.712060    29A     -0.711599    30A     -0.663301
      31A     -0.661295    32A     -0.654035    33A     -0.642602
      34A     -0.637083

  @DF-RHF Final Energy:  -979.39419023258461

   => Energetics <=

    Nuclear Repulsion Energy =            345.0957344031921252
    One-Electron Energy =               -2029.1769807844593743
    Two-Electron Energy =                 704.6870561486825864
    Total Energy =                       -979.3941902325846058
 Dipole X            :         33.7005296          -34.1575443           -0.4570147
 Dipole Y            :        -54.7337666           55.3824039            0.6486373
 Dipole Z            :         12.1255740          -12.8477982           -0.7222242
 Magnitude           :                                                    1.0729401
  Basis Set: (AUG-CC-PVTZ AUX)
    Blend: AUG-CC-PVTZ-RI + DEF2-QZVPP-RI
	 Reference Energy          =    -979.3941902325846058 [Eh]
	 Singles Energy            =      -0.0000000000000000 [Eh]
	 Same-Spin Energy          =      -0.3843217067157134 [Eh]
	 Opposite-Spin Energy      =      -1.1711996910558127 [Eh]
	 Correlation Energy        =      -1.5555213977715261 [Eh]
	 Total Energy              =    -980.9497116303560915 [Eh]

	 ================> DF-SCS-MP2 Energies <==================
	-----------------------------------------------------------
	 SCS Same-Spin Scale       =       0.3333333333333333 [-]
	 SCS Opposite-Spin Scale   =       1.2000000000000000 [-]
	 SCS Same-Spin Energy      =      -0.1281072355719045 [Eh]
	 SCS Opposite-Spin Energy  =      -1.4054396292669751 [Eh]
	 SCS Correlation Energy    =      -1.5335468648388795 [Eh]
	 SCS Total Energy          =    -980.9277370974234600 [Eh]
	-----------------------------------------------------------

*** Psi4 exiting successfully. Buy a developer a beer!
