                               Psi4 1.9 release

  ==> Input File <==

--------------------------------------------------------------------------
MEMORY 60 GB

molecule dimer {
1 1
K      0.000000     0.000000     0.000000
--
0 1
O      1.478006     0.717897    -1.948128
H      1.494997     0.601610    -2.908738
H      2.334047     1.201082    -1.842671
O     -2.661762     0.783294    -0.605565
H     -3.465178     1.092006    -0.190818
H     -2.885772     0.543165    -1.519228
O     -0.002906     2.840525    -0.171305
H     -0.856087     3.028844    -0.630236
H      0.477889     3.665808    -0.151625

units ang
no_reorient
no_com
symmetry c1
}

set {
basis        aug-cc-pVTZ
scf_type     df
}

energy("mp2", bsse_type="cp")
--------------------------------------------------------------------------

                               Psi4 1.9 release
    Molecular point group: c1
  Charge       = 0
  Multiplicity = 1
  Basis Set: AUG-CC-PVTZ
    Blend: AUG-CC-PVTZ
  Basis Set: (AUG-CC-PVTZ AUX)
    Blend: AUG-CC-PVTZ-JKFIT + DEF2-UNIVERSAL-JKFIT
  @DF-RHF Final Energy:  -228.16989914186266
    Total Energy =                       -228.1698991418626576
 Dipole X            :         23.0208745          -23.4201318           -0.3992572
 Dipole Y            :        -83.9048779           84.7849115            0.8800337
 Dipole Z            :         53.7489875          -54.8838828           -1.1348953
 Magnitude           :                                                    1.4905881
  Basis Set: (AUG-CC-PVTZ AUX)
    Blend: AUG-CC-PVTZ-RI + DEF2-QZVPP-RI
	 Reference Energy          =    -228.1698991418626576 [Eh]
	 Singles Energy            =      -0.0000000000000000 [Eh]
	 Same-Spin Energy          =      -0.2069888543844932 [Eh]
	 Opposite-Spin Energy      =      -0.6501940328892866 [Eh]
	 Correlation Energy        =      -0.8571828872737798 [Eh]
	 Total Energy              =    -229.0270820291364373 [Eh]
	 SCS Total Energy          =    -229.0191282661246248 [Eh]
                               Psi4 1.9 release
    Molecular point group: c1
  Multiplicity = 1
  Basis Set: AUG-CC-PVTZ
    Blend: AUG-CC-PVTZ
  Basis Set: (AUG-CC-PVTZ AUX)
    Blend: AUG-CC-PVTZ-JKFIT + DEF2-UNIVERSAL-JKFIT
  @DF-RHF Final Energy:  -599.01751298432418
    Total Energy =                       -599.0175129843241848
  Basis Set: (AUG-CC-PVTZ AUX)
	 Singles Energy            =      -0.0000000000000000 [Eh]
	 Same-Spin Energy          =      -0.0330916373962808 [Eh]
	 Opposite-Spin Energy      =      -0.0793545693974034 [Eh]
	 Correlation Energy        =      -0.1124462067936842 [Eh]
	 Total Energy              =    -599.1299591911179050 [Eh]
	 SCS Total Energy          =    -599.1237690133998512 [Eh]
                               Psi4 1.9 release
    Molecular point group: c1

    Geometry (in Bohr), charge = 1, multiplicity = 1:

       Center              X                  Y                   Z               Mass
    ------------   -----------------  -----------------  -----------------  -----------------
         K            0.000000000000     0.000000000000     0.000000000000    38.963706486400
         O            2.793026551783     1.356628716288    -3.681428377336    15.994914619570
         H            2.825134888381     1.136878134337    -5.496718190712     1.007825032230
         H            4.410709593946     2.269716034217    -3.482143529324     1.007825032230
         O           -5.030001191151     1.480211135714    -1.144352001163    15.994914619570
         H           -6.548237395962     2.063592267357    -0.360593759808     1.007825032230
         H           -5.453318740515     1.026433090934    -2.870924842127     1.007825032230
         O           -0.005491544121     5.367814302516    -0.323719533922    15.994914619570
         H           -1.617769969565     5.723685636736    -1.190973434404     1.007825032230
         H            0.903079328369     6.927373148512    -0.286529723773     1.007825032230

  Charge       = 1
  Multiplicity = 1
  Basis Set: AUG-CC-PVTZ
    Blend: AUG-CC-PVTZ
  Basis Set: (AUG-CC-PVTZ AUX)
    Blend: AUG-CC-PVTZ-JKFIT + DEF2-UNIVERSAL-JKFIT

    Orbital Energies [Eh]
    ---------------------

    Doubly Occupied:

       1A   -133.647726     2A    -20.730675     3A    -20.726042
       4A    -20.707555     5A    -14.604817     6A    -11.634814
       7A    -11.634699     8A    -11.634659     9A     -1.865235
      10A     -1.510688    11A     -1.510115    12A     -1.487170
      13A     -1.075320    14A     -1.073882    15A     -1.072998
      16A     -0.879813    17A     -0.857161    18A     -0.854743
      19A     -0.765732    20A     -0.748343    21A     -0.728467
      22A     -0.677430    23A     -0.672261    24A     -0.648416

  @DF-RHF Final Energy:  -827.25665298023875

   => Energetics <=

    Nuclear Repulsion Energy =            176.0739018157696023
    One-Electron Energy =               -1483.1635881136471653
    Two-Electron Energy =                 479.8330333176387512
    Total Energy =                       -827.2566529802387549
 Dipole X            :         22.9637174          -23.4201318           -0.4564143
 Dipole Y            :        -83.4442628           84.7849115            1.3406488
 Dipole Z            :         53.4032672          -54.8838828           -1.4806156
 Magnitude           :                                                    2.0488718
  Basis Set: (AUG-CC-PVTZ AUX)
    Blend: AUG-CC-PVTZ-RI + DEF2-QZVPP-RI
	 Reference Energy          =    -827.2566529802387549 [Eh]
	 Singles Energy            =      -0.0000000000000000 [Eh]
	 Same-Spin Energy          =      -0.2417981511216380 [Eh]
	 Opposite-Spin Energy      =      -0.7284757023607690 [Eh]
	 Correlation Energy        =      -0.9702738534824069 [Eh]
	 Total Energy              =    -828.2269268337211088 [Eh]

	 ================> DF-SCS-MP2 Energies <==================
	-----------------------------------------------------------
	 SCS Same-Spin Scale       =       0.3333333333333333 [-]
	 SCS Opposite-Spin Scale   =       1.2000000000000000 [-]
	 SCS Same-Spin Energy      =      -0.0805993837072126 [Eh]
	 SCS Opposite-Spin Energy  =      -0.8741708428329228 [Eh]
	 SCS Correlation Energy    =      -0.9547702265401354 [Eh]
	 SCS Total Energy          =    -828.2114232067789317 [Eh]
	-----------------------------------------------------------

*** Psi4 exiting successfully. Buy a developer a beer!
