                               Psi4 1.9 release

  ==> Input File <==

--------------------------------------------------------------------------
MEMORY 60 GB

molecule dimer {
1 1
K      0.000000     0.000000     0.000000
--
0 1
O     -1.265699    -2.742015    -0.100037
H     -2.179241    -2.698658     0.327361
H     -1.419350    -2.792292    -1.054146
O      1.272599    -1.329958     1.835236
H      1.045544    -2.218621     1.644981
H      1.990525    -1.335279     2.504667
O     -2.112318     0.381367     2.020921
H     -3.046245     0.751485     2.160738
H     -1.624816     1.165296     2.260813
O      0.975616     1.537608    -2.344587
H      1.718704     1.125633    -2.807348
H      1.478579     2.238025    -1.771565
O     -2.703279     0.101022    -1.389176
H     -3.313767     0.118266    -0.654596
H     -2.877541     0.906785    -1.885854
O      1.701775    -1.458525    -1.511955
H      1.521016    -2.311011    -1.145006
H      1.247312    -1.424578    -2.334159

units ang
no_reorient
no_com
symmetry c1
}

set {
basis        aug-cc-pVTZ
scf_type     df
}

energy("mp2", bsse_type="cp")
--------------------------------------------------------------------------

                               Psi4 1.9 release
    Molecular point group: c1
  Charge       = 0
  Multiplicity = 1
  Basis Set: AUG-CC-PVTZ
    Blend: AUG-CC-PVTZ
  Basis Set: (AUG-CC-PVTZ AUX)
    Blend: AUG-CC-PVTZ-JKFIT + DEF2-UNIVERSAL-JKFIT
  @DF-RHF Final Energy:  -456.33592562322019
    Total Energy =                       -456.3359256232201915
 Dipole X            :         41.7493101          -42.5372211           -0.7879109
 Dipole Y            :         65.7000316          -65.3069639            0.3930677
 Dipole Z            :         27.9232488          -27.7239792            0.1992696
 Magnitude           :                                                    0.9027814
  Basis Set: (AUG-CC-PVTZ AUX)
    Blend: AUG-CC-PVTZ-RI + DEF2-QZVPP-RI
	 Reference Energy          =    -456.3359256232201915 [Eh]
	 Singles Energy            =      -0.0000000000000000 [Eh]
	 Same-Spin Energy          =      -0.4146635443135988 [Eh]
	 Opposite-Spin Energy      =      -1.3019493745874398 [Eh]
	 Correlation Energy        =      -1.7166129189010384 [Eh]
	 Total Energy              =    -458.0525385421212263 [Eh]
	 SCS Total Energy          =    -458.0364860541629923 [Eh]
                               Psi4 1.9 release
    Molecular point group: c1
  Multiplicity = 1
  Basis Set: AUG-CC-PVTZ
    Blend: AUG-CC-PVTZ
  Basis Set: (AUG-CC-PVTZ AUX)
    Blend: AUG-CC-PVTZ-JKFIT + DEF2-UNIVERSAL-JKFIT
  @DF-RHF Final Energy:  -599.01751687718343
    Total Energy =                       -599.0175168771834251
  Basis Set: (AUG-CC-PVTZ AUX)
	 Singles Energy            =      -0.0000000000000000 [Eh]
	 Same-Spin Energy          =      -0.0379449973755484 [Eh]
	 Opposite-Spin Energy      =      -0.0928201327400487 [Eh]
	 Correlation Energy        =      -0.1307651301155971 [Eh]
	 Total Energy              =    -599.1482820072990307 [Eh]
	 SCS Total Energy          =    -599.1415493689299865 [Eh]
                               Psi4 1.9 release
    Molecular point group: c1

    Geometry (in Bohr), charge = 1, multiplicity = 1:

       Center              X                  Y                   Z               Mass
    ------------   -----------------  -----------------  -----------------  -----------------
         K            0.000000000000     0.000000000000     0.000000000000    38.963706486400
         O           -2.391824467266    -5.181657381897    -0.189042532412    15.994914619570
         H           -4.118168651369    -5.099724526276     0.618622634156     1.007825032230
         H           -2.682182776169    -5.276667142307    -1.992047236247     1.007825032230
         O            2.404863577532    -2.513256378362     3.468093415581    15.994914619570
         H            1.975791812116    -4.192586066189     3.108563571582     1.007825032230
         H            3.761547095877    -2.523311611075     4.733134665472     1.007825032230
         O           -3.991702509875     0.720679183287     3.818987211186    15.994914619570
         H           -5.756568761045     1.420100837390     4.083203048869     1.007825032230
         H           -3.070457244262     2.202090295092     4.272317390875     1.007825032230
         O            1.843647043615     2.905658008313    -4.430627307309    15.994914619570
         H            3.247879850729     2.127138087777    -5.305118858852     1.007825032230
         H            2.794109364853     4.229254311928    -3.347772663447     1.007825032230
         O           -5.108456950702     0.190903912646    -2.625162180059    15.994914619570
         H           -6.262112073580     0.223490349953    -1.237007162820     1.007825032230
         H           -5.437764404776     1.713575304673    -3.563747572599     1.007825032230
         O            3.215888677151    -2.756212797133    -2.857180864017    15.994914619570
         H            2.874303672439    -4.367177862920    -2.163747752006     1.007825032230
         H            2.357078072997    -2.692062264352    -4.410921243273     1.007825032230

  Charge       = 1
  Multiplicity = 1
  Basis Set: AUG-CC-PVTZ
    Blend: AUG-CC-PVTZ
  Basis Set: (AUG-CC-PVTZ AUX)
    Blend: AUG-CC-PVTZ-JKFIT + DEF2-UNIVERSAL-JKFIT

    Orbital Energies [Eh]
    ---------------------

    Doubly Occupied:

       1A   -133.604089     2A    -20.717701     3A    -20.710475
       4A    -20.705906     5A    -20.703905     6A    -20.703344
       7A    -20.700814     8A    -14.561679     9A    -11.591649
      10A    -11.591459    11A    -11.591453    12A     -1.823947
      13A     -1.504493    14A     -1.492848    15A     -1.491636
      16A     -1.487342    17A     -1.473808    18A     -1.472352
      19A     -1.035703    20A     -1.033000    21A     -1.031844
      22A     -0.873025    23A     -0.863657    24A     -0.853434
      25A     -0.839479    26A     -0.836244    27A     -0.823281
      28A     -0.741014    29A     -0.730803    30A     -0.727729
      31A     -0.723356    32A     -0.722198    33A     -0.715310
      34A     -0.661559    35A     -0.657702    36A     -0.651554
      37A     -0.645485    38A     -0.645330    39A     -0.644726

  @DF-RHF Final Energy: -1055.44769897469268

   => Energetics <=

    Nuclear Repulsion Energy =            449.2753835299088223
    One-Electron Energy =               -2340.6754891338086964
    Two-Electron Energy =                 835.9524066292070756
    Total Energy =                      -1055.4476989746926847
 Dipole X            :         41.6580200          -42.5372211           -0.8792011
 Dipole Y            :         65.3808370          -65.3069639            0.0738731
 Dipole Z            :         27.8541105          -27.7239792            0.1301312
 Magnitude           :                                                    0.8918441
  Basis Set: (AUG-CC-PVTZ AUX)
    Blend: AUG-CC-PVTZ-RI + DEF2-QZVPP-RI
	 Reference Energy          =   -1055.4476989746926847 [Eh]
	 Singles Energy            =      -0.0000000000000000 [Eh]
	 Same-Spin Energy          =      -0.4562406363747771 [Eh]
	 Opposite-Spin Energy      =      -1.3949471904628121 [Eh]
	 Correlation Energy        =      -1.8511878268375892 [Eh]
	 Total Energy              =   -1057.2988868015302160 [Eh]

	 ================> DF-SCS-MP2 Energies <==================
	-----------------------------------------------------------
	 SCS Same-Spin Scale       =       0.3333333333333333 [-]
	 SCS Opposite-Spin Scale   =       1.2000000000000000 [-]
	 SCS Same-Spin Energy      =      -0.1520802121249257 [Eh]
	 SCS Opposite-Spin Energy  =      -1.6739366285553745 [Eh]
	 SCS Correlation Energy    =      -1.8260168406803001 [Eh]
	 SCS Total Energy          =   -1057.2737158153729524 [Eh]
	-----------------------------------------------------------

*** Psi4 exiting successfully. Buy a developer a beer!
