                               Psi4 1.9 release

  ==> Input File <==

--------------------------------------------------------------------------
MEMORY 60 GB

molecule dimer {
1 1
K          0.000000     0.000000     0.000000
O         -1.997620    -2.162061    -0.813178
H         -2.773802    -1.606737    -0.549995
H         -1.592061    -2.558739    -0.032556
O          0.414858    -0.225799    -2.631086
H          1.352700    -0.013745    -2.767381
H          0.050193    -0.688976    -3.401864
O         -2.631714     0.983286    -0.637732
H         -3.404075     1.007670    -0.141584
H         -2.832941     1.458279    -1.450706
O          1.202232    -0.677975     2.440207
H          2.075392    -1.063868     2.278000
H          0.927402    -1.109896     3.256085
O         -0.234521    -2.746344     1.303637
H         -0.487511    -2.096140     1.982125
H          0.699833    -2.781795     1.295536
O          0.306745     2.542586     1.554188
H          0.463644     2.471048     2.452764
H         -0.325900     3.267043     1.361577

units ang
no_reorient
no_com
symmetry c1
}

set {
basis        aug-cc-pVTZ
scf_type     df
}

energy("mp2")
--------------------------------------------------------------------------

    Molecular point group: c1

    Geometry (in Angstrom), charge = 1, multiplicity = 1:

       Center              X                  Y                   Z               Mass
    ------------   -----------------  -----------------  -----------------  -----------------
         K            0.000000000000     0.000000000000     0.000000000000    38.963706486400
         O           -1.997620000000    -2.162061000000    -0.813178000000    15.994914619570
         H           -2.773802000000    -1.606737000000    -0.549995000000     1.007825032230
         H           -1.592061000000    -2.558739000000    -0.032556000000     1.007825032230
         O            0.414858000000    -0.225799000000    -2.631086000000    15.994914619570
         H            1.352700000000    -0.013745000000    -2.767381000000     1.007825032230
         H            0.050193000000    -0.688976000000    -3.401864000000     1.007825032230
         O           -2.631714000000     0.983286000000    -0.637732000000    15.994914619570
         H           -3.404075000000     1.007670000000    -0.141584000000     1.007825032230
         H           -2.832941000000     1.458279000000    -1.450706000000     1.007825032230
         O            1.202232000000    -0.677975000000     2.440207000000    15.994914619570
         H            2.075392000000    -1.063868000000     2.278000000000     1.007825032230
         H            0.927402000000    -1.109896000000     3.256085000000     1.007825032230
         O           -0.234521000000    -2.746344000000     1.303637000000    15.994914619570
         H           -0.487511000000    -2.096140000000     1.982125000000     1.007825032230
         H            0.699833000000    -2.781795000000     1.295536000000     1.007825032230
         O            0.306745000000     2.542586000000     1.554188000000    15.994914619570
         H            0.463644000000     2.471048000000     2.452764000000     1.007825032230
         H           -0.325900000000     3.267043000000     1.361577000000     1.007825032230

  Charge       = 1
  Multiplicity = 1
  Basis Set: AUG-CC-PVTZ
    Blend: AUG-CC-PVTZ
  Basis Set: (AUG-CC-PVTZ AUX)
    Blend: AUG-CC-PVTZ-JKFIT + DEF2-UNIVERSAL-JKFIT

    Orbital Energies [Eh]
    ---------------------

    Doubly Occupied:

       1A   -133.612870     2A    -20.739654     3A    -20.712652
       4A    -20.704816     5A    -20.702964     6A    -20.694284
       7A    -20.659355     8A    -14.570151     9A    -11.600150
      10A    -11.600057    11A    -11.599892    12A     -1.831313
      13A     -1.529725    14A     -1.506145    15A     -1.505706
      16A     -1.487841    17A     -1.482479    18A     -1.436241
      19A     -1.042916    20A     -1.041274    21A     -1.037400
      22A     -0.890548    23A     -0.872621    24A     -0.871802
      25A     -0.867885    26A     -0.860334    27A     -0.822351
      28A     -0.768424    29A     -0.746088    30A     -0.737079
      31A     -0.717397    32A     -0.712212    33A     -0.684081
      34A     -0.665718    35A     -0.657032    36A     -0.656139
      37A     -0.648046    38A     -0.643840    39A     -0.602726

  @DF-RHF Final Energy: -1055.45044152364926

   => Energetics <=

    Nuclear Repulsion Energy =            448.9167160264132690
    One-Electron Energy =               -2339.6898838220513426
    Two-Electron Energy =                 835.3227262719888131
    Total Energy =                      -1055.4504415236492605
 Dipole X            :         55.5238653          -55.4961276            0.0277377
 Dipole Y            :         42.1510703          -41.5859027            0.5651676
 Dipole Z            :        -25.1465194           26.4756091            1.3290898
 Magnitude           :                                                    1.4445288
  Basis Set: (AUG-CC-PVTZ AUX)
    Blend: AUG-CC-PVTZ-RI + DEF2-QZVPP-RI
	 Reference Energy          =   -1055.4504415236492605 [Eh]
	 Singles Energy            =      -0.0000000000000000 [Eh]
	 Same-Spin Energy          =      -0.4553594900975995 [Eh]
	 Opposite-Spin Energy      =      -1.3894725630200855 [Eh]
	 Correlation Energy        =      -1.8448320531176849 [Eh]
	 Total Energy              =   -1057.2952735767669310 [Eh]

	 ================> DF-SCS-MP2 Energies <==================
	-----------------------------------------------------------
	 SCS Same-Spin Scale       =       0.3333333333333333 [-]
	 SCS Opposite-Spin Scale   =       1.2000000000000000 [-]
	 SCS Same-Spin Energy      =      -0.1517864966991998 [Eh]
	 SCS Opposite-Spin Energy  =      -1.6673670756241026 [Eh]
	 SCS Correlation Energy    =      -1.8191535723233023 [Eh]
	 SCS Total Energy          =   -1057.2695950959725906 [Eh]
	-----------------------------------------------------------

*** Psi4 exiting successfully. Buy a developer a beer!
