                               Psi4 1.9 release

  ==> Input File <==

--------------------------------------------------------------------------
MEMORY 60 GB

molecule dimer {
1 1
K          0.000000     0.000000     0.000000
Gh(O)      1.994248    -0.017398     1.891531
Gh(H)      1.707381    -0.444684     2.688689
Gh(H)      2.464755     0.808222     2.122342
Gh(O)     -0.735496     2.189679     1.691371
Gh(H)     -0.954476     2.443049     2.639599
Gh(H)     -0.466618     3.047346     1.358724
Gh(O)      1.549750     2.058046    -0.852344
Gh(H)      1.913323     2.259444    -1.747396
Gh(H)      2.335189     2.116884    -0.306564
Gh(O)     -1.132510     0.224565    -2.466410
Gh(H)     -0.537321     0.540552    -3.138504
Gh(H)     -1.916525     0.761111    -2.341546
Gh(O)      1.250518    -2.229136    -0.395405
Gh(H)      1.391367    -3.033811    -0.861489
Gh(H)      1.939666    -2.169610     0.267770

units ang
no_reorient
no_com
symmetry c1
}

set {
basis        aug-cc-pVTZ
scf_type     df
}

energy("mp2")
--------------------------------------------------------------------------

    Molecular point group: c1

    Geometry (in Angstrom), charge = 1, multiplicity = 1:

       Center              X                  Y                   Z               Mass
    ------------   -----------------  -----------------  -----------------  -----------------
         K            0.000000000000     0.000000000000     0.000000000000    38.963706486400
      Gh(O)           1.994248000000    -0.017398000000     1.891531000000    15.994914619570
      Gh(H)           1.707381000000    -0.444684000000     2.688689000000     1.007825032230
      Gh(H)           2.464755000000     0.808222000000     2.122342000000     1.007825032230
      Gh(O)          -0.735496000000     2.189679000000     1.691371000000    15.994914619570
      Gh(H)          -0.954476000000     2.443049000000     2.639599000000     1.007825032230
      Gh(H)          -0.466618000000     3.047346000000     1.358724000000     1.007825032230
      Gh(O)           1.549750000000     2.058046000000    -0.852344000000    15.994914619570
      Gh(H)           1.913323000000     2.259444000000    -1.747396000000     1.007825032230
      Gh(H)           2.335189000000     2.116884000000    -0.306564000000     1.007825032230
      Gh(O)          -1.132510000000     0.224565000000    -2.466410000000    15.994914619570
      Gh(H)          -0.537321000000     0.540552000000    -3.138504000000     1.007825032230
      Gh(H)          -1.916525000000     0.761111000000    -2.341546000000     1.007825032230
      Gh(O)           1.250518000000    -2.229136000000    -0.395405000000    15.994914619570
      Gh(H)           1.391367000000    -3.033811000000    -0.861489000000     1.007825032230
      Gh(H)           1.939666000000    -2.169610000000     0.267770000000     1.007825032230

  Charge       = 1
  Multiplicity = 1
  Basis Set: AUG-CC-PVTZ
    Blend: AUG-CC-PVTZ
  Basis Set: (AUG-CC-PVTZ AUX)
    Blend: AUG-CC-PVTZ-JKFIT + DEF2-UNIVERSAL-JKFIT

    Orbital Energies [Eh]
    ---------------------

    Doubly Occupied:

       1A   -133.752572     2A    -14.708257     3A    -11.738318
       4A    -11.738318     5A    -11.738316     6A     -1.963910
       7A     -1.170621     8A     -1.170614     9A     -1.170587

  @DF-RHF Final Energy:  -599.01751619049128

   => Energetics <=

    Nuclear Repulsion Energy =              0.0000000000000000
    One-Electron Energy =                -819.7320076824219086
    Two-Electron Energy =                 220.7144914919306018
    Total Energy =                       -599.0175161904912784
 Dipole X            :          0.0002511            0.0000000            0.0002511
 Dipole Y            :          0.0001506            0.0000000            0.0001506
 Dipole Z            :         -0.0000367            0.0000000           -0.0000367
 Magnitude           :                                                    0.0002951
  Basis Set: (AUG-CC-PVTZ AUX)
    Blend: AUG-CC-PVTZ-RI + DEF2-QZVPP-RI
	 Reference Energy          =    -599.0175161904912784 [Eh]
	 Singles Energy            =      -0.0000000000000000 [Eh]
	 Same-Spin Energy          =      -0.0372644101186713 [Eh]
	 Opposite-Spin Energy      =      -0.0909343150423976 [Eh]
	 Correlation Energy        =      -0.1281987251610688 [Eh]
	 Total Energy              =    -599.1457149156523201 [Eh]

	 ================> DF-SCS-MP2 Energies <==================
	-----------------------------------------------------------
	 SCS Same-Spin Scale       =       0.3333333333333333 [-]
	 SCS Opposite-Spin Scale   =       1.2000000000000000 [-]
	 SCS Same-Spin Energy      =      -0.0124214700395571 [Eh]
	 SCS Opposite-Spin Energy  =      -0.1091211780508771 [Eh]
	 SCS Correlation Energy    =      -0.1215426480904342 [Eh]
	 SCS Total Energy          =    -599.1390588385817182 [Eh]
	-----------------------------------------------------------

*** Psi4 exiting successfully. Buy a developer a beer!
