                               Psi4 1.9 release

  ==> Input File <==

--------------------------------------------------------------------------
MEMORY 60 GB

molecule dimer {
0 1
Gh(K)      0.000000     0.000000     0.000000
O         -1.578613    -2.113716     0.218354
H         -0.981947    -2.793452    -0.097712
H         -2.324957    -2.073157    -0.378677
Gh(O)      1.295700    -2.515411    -0.325869
Gh(H)      0.949642    -3.369730    -0.036852
Gh(H)      2.279970    -2.442741    -0.095265
Gh(O)      2.568601     0.147719    -0.427268
Gh(H)      2.727281    -0.077392    -1.363704
Gh(H)      3.370881     0.599596    -0.084938
Gh(O)     -0.362166     2.669565     0.838638
Gh(H)     -1.033657     3.293462     0.421097
Gh(H)      0.445519     2.915189     0.370285

units ang
no_reorient
no_com
symmetry c1
}

set {
basis        aug-cc-pVTZ
scf_type     df
}

energy("mp2")
--------------------------------------------------------------------------

    Molecular point group: c1

    Geometry (in Angstrom), charge = 0, multiplicity = 1:

       Center              X                  Y                   Z               Mass
    ------------   -----------------  -----------------  -----------------  -----------------
      Gh(K)           0.000000000000     0.000000000000     0.000000000000    38.963706486400
         O           -1.578613000000    -2.113716000000     0.218354000000    15.994914619570
         H           -0.981947000000    -2.793452000000    -0.097712000000     1.007825032230
         H           -2.324957000000    -2.073157000000    -0.378677000000     1.007825032230
      Gh(O)           1.295700000000    -2.515411000000    -0.325869000000    15.994914619570
      Gh(H)           0.949642000000    -3.369730000000    -0.036852000000     1.007825032230
      Gh(H)           2.279970000000    -2.442741000000    -0.095265000000     1.007825032230
      Gh(O)           2.568601000000     0.147719000000    -0.427268000000    15.994914619570
      Gh(H)           2.727281000000    -0.077392000000    -1.363704000000     1.007825032230
      Gh(H)           3.370881000000     0.599596000000    -0.084938000000     1.007825032230
      Gh(O)          -0.362166000000     2.669565000000     0.838638000000    15.994914619570
      Gh(H)          -1.033657000000     3.293462000000     0.421097000000     1.007825032230
      Gh(H)           0.445519000000     2.915189000000     0.370285000000     1.007825032230

  Charge       = 0
  Multiplicity = 1
  Basis Set: AUG-CC-PVTZ
    Blend: AUG-CC-PVTZ
  Basis Set: (AUG-CC-PVTZ AUX)
    Blend: AUG-CC-PVTZ-JKFIT + DEF2-UNIVERSAL-JKFIT

    Orbital Energies [Eh]
    ---------------------

    Doubly Occupied:

       1A    -20.565525     2A     -1.350954     3A     -0.724453
       4A     -0.577937     5A     -0.509274

  @DF-RHF Final Energy:   -76.06056906811173

   => Energetics <=

    Nuclear Repulsion Energy =              9.1854453149839106
    One-Electron Energy =                -123.0357390483651159
    Two-Electron Energy =                  37.7897246652694747
    Total Energy =                        -76.0605690681117323
 Dipole X            :         30.0133347          -30.1143127           -0.1009780
 Dipole Y            :         40.7213510          -41.1513129           -0.4299619
 Dipole Z            :         -3.0148585            2.4007893           -0.6140692
 Magnitude           :                                                    0.7564025
  Basis Set: (AUG-CC-PVTZ AUX)
    Blend: AUG-CC-PVTZ-RI + DEF2-QZVPP-RI
	 Reference Energy          =     -76.0605690681117323 [Eh]
	 Singles Energy            =      -0.0000000000000000 [Eh]
	 Same-Spin Energy          =      -0.0683451440057095 [Eh]
	 Opposite-Spin Energy      =      -0.2155599910722532 [Eh]
	 Correlation Energy        =      -0.2839051350779627 [Eh]
	 Total Energy              =     -76.3444742031896908 [Eh]

	 ================> DF-SCS-MP2 Energies <==================
	-----------------------------------------------------------
	 SCS Same-Spin Scale       =       0.3333333333333333 [-]
	 SCS Opposite-Spin Scale   =       1.2000000000000000 [-]
	 SCS Same-Spin Energy      =      -0.0227817146685698 [Eh]
	 SCS Opposite-Spin Energy  =      -0.2586719892867038 [Eh]
	 SCS Correlation Energy    =      -0.2814537039552736 [Eh]
	 SCS Total Energy          =     -76.3420227720670113 [Eh]
	-----------------------------------------------------------

*** Psi4 exiting successfully. Buy a developer a beer!
