                               Psi4 1.9 release

  ==> Input File <==

--------------------------------------------------------------------------
MEMORY 60 GB

molecule dimer {
0 1
Gh(K)      0.000000     0.000000     0.000000
Gh(O)      2.447443     0.085993    -0.685068
Gh(H)      2.680985    -0.837747    -0.449500
Gh(H)      2.829525     0.251364    -1.547070
Gh(O)     -0.233139     0.163157    -2.500787
Gh(H)     -0.170321     1.052496    -2.894868
Gh(H)     -0.081279    -0.518299    -3.176040
O          0.572340    -2.370612     0.170271
H          1.401491    -2.685494    -0.138462
H          0.365707    -2.920483     0.932021
Gh(O)     -1.422337    -0.715469     2.174589
Gh(H)     -1.861433     0.134559     2.211240
Gh(H)     -0.761789    -0.679178     2.924485
Gh(O)     -0.712298     2.966230    -0.259699
Gh(H)     -1.087339     3.581553    -0.884928
Gh(H)      0.231785     2.928736    -0.444753

units ang
no_reorient
no_com
symmetry c1
}

set {
basis        aug-cc-pVTZ
scf_type     df
}

energy("mp2")
--------------------------------------------------------------------------

    Molecular point group: c1

    Geometry (in Angstrom), charge = 0, multiplicity = 1:

       Center              X                  Y                   Z               Mass
    ------------   -----------------  -----------------  -----------------  -----------------
      Gh(K)           0.000000000000     0.000000000000     0.000000000000    38.963706486400
      Gh(O)           2.447443000000     0.085993000000    -0.685068000000    15.994914619570
      Gh(H)           2.680985000000    -0.837747000000    -0.449500000000     1.007825032230
      Gh(H)           2.829525000000     0.251364000000    -1.547070000000     1.007825032230
      Gh(O)          -0.233139000000     0.163157000000    -2.500787000000    15.994914619570
      Gh(H)          -0.170321000000     1.052496000000    -2.894868000000     1.007825032230
      Gh(H)          -0.081279000000    -0.518299000000    -3.176040000000     1.007825032230
         O            0.572340000000    -2.370612000000     0.170271000000    15.994914619570
         H            1.401491000000    -2.685494000000    -0.138462000000     1.007825032230
         H            0.365707000000    -2.920483000000     0.932021000000     1.007825032230
      Gh(O)          -1.422337000000    -0.715469000000     2.174589000000    15.994914619570
      Gh(H)          -1.861433000000     0.134559000000     2.211240000000     1.007825032230
      Gh(H)          -0.761789000000    -0.679178000000     2.924485000000     1.007825032230
      Gh(O)          -0.712298000000     2.966230000000    -0.259699000000    15.994914619570
      Gh(H)          -1.087339000000     3.581553000000    -0.884928000000     1.007825032230
      Gh(H)           0.231785000000     2.928736000000    -0.444753000000     1.007825032230

  Charge       = 0
  Multiplicity = 1
  Basis Set: AUG-CC-PVTZ
    Blend: AUG-CC-PVTZ
  Basis Set: (AUG-CC-PVTZ AUX)
    Blend: AUG-CC-PVTZ-JKFIT + DEF2-UNIVERSAL-JKFIT

    Orbital Energies [Eh]
    ---------------------

    Doubly Occupied:

       1A    -20.565646     2A     -1.356825     3A     -0.722417
       4A     -0.585228     5A     -0.510769

  @DF-RHF Final Energy:   -76.06078564612378

   => Energetics <=

    Nuclear Repulsion Energy =              9.2596847755292462
    One-Electron Energy =                -123.1591677058744239
    Two-Electron Energy =                  37.8386972842213893
    Total Energy =                        -76.0607856461237759
 Dipole X            :        -11.5729271           11.9920470            0.4191200
 Dipole Y            :         45.8541643          -46.4322206           -0.5780563
 Dipole Z            :         -3.7734808            4.0737336            0.3002529
 Magnitude           :                                                    0.7745724
  Basis Set: (AUG-CC-PVTZ AUX)
    Blend: AUG-CC-PVTZ-RI + DEF2-QZVPP-RI
	 Reference Energy          =     -76.0607856461237759 [Eh]
	 Singles Energy            =      -0.0000000000000000 [Eh]
	 Same-Spin Energy          =      -0.0682658190937883 [Eh]
	 Opposite-Spin Energy      =      -0.2152513857214197 [Eh]
	 Correlation Energy        =      -0.2835172048152080 [Eh]
	 Total Energy              =     -76.3443028509389876 [Eh]

	 ================> DF-SCS-MP2 Energies <==================
	-----------------------------------------------------------
	 SCS Same-Spin Scale       =       0.3333333333333333 [-]
	 SCS Opposite-Spin Scale   =       1.2000000000000000 [-]
	 SCS Same-Spin Energy      =      -0.0227552730312628 [Eh]
	 SCS Opposite-Spin Energy  =      -0.2583016628657036 [Eh]
	 SCS Correlation Energy    =      -0.2810569358969664 [Eh]
	 SCS Total Energy          =     -76.3418425820207460 [Eh]
	-----------------------------------------------------------

*** Psi4 exiting successfully. Buy a developer a beer!
