                               Psi4 1.9 release

  ==> Input File <==

--------------------------------------------------------------------------
MEMORY 60 GB

molecule dimer {
1 1
K          0.000000     0.000000     0.000000
O         -2.635555    -0.276395     1.367629
H         -2.296026    -0.337391     2.286535
H         -3.490352    -0.708308     1.251761
O          2.756429    -0.515741    -0.495604
H          3.405562    -0.731420     0.158018
H          2.773624     0.411513    -0.812172
O          0.329265     0.299331    -2.532931
H          0.307016    -0.242145    -3.289589
H          0.466834     1.212367    -2.850108
O          0.201952     1.346168     2.493417
H         -0.355586     2.214469     2.733889
H         -0.029793     0.631912     3.061578
O         -1.125899    -2.279212    -1.110246
H         -1.831871    -2.461089    -1.782069
H         -0.507812    -3.042224    -1.253317

units ang
no_reorient
no_com
symmetry c1
}

set {
basis        aug-cc-pVTZ
scf_type     df
}

energy("mp2")
--------------------------------------------------------------------------

    Molecular point group: c1

    Geometry (in Angstrom), charge = 1, multiplicity = 1:

       Center              X                  Y                   Z               Mass
    ------------   -----------------  -----------------  -----------------  -----------------
         K            0.000000000000     0.000000000000     0.000000000000    38.963706486400
         O           -2.635555000000    -0.276395000000     1.367629000000    15.994914619570
         H           -2.296026000000    -0.337391000000     2.286535000000     1.007825032230
         H           -3.490352000000    -0.708308000000     1.251761000000     1.007825032230
         O            2.756429000000    -0.515741000000    -0.495604000000    15.994914619570
         H            3.405562000000    -0.731420000000     0.158018000000     1.007825032230
         H            2.773624000000     0.411513000000    -0.812172000000     1.007825032230
         O            0.329265000000     0.299331000000    -2.532931000000    15.994914619570
         H            0.307016000000    -0.242145000000    -3.289589000000     1.007825032230
         H            0.466834000000     1.212367000000    -2.850108000000     1.007825032230
         O            0.201952000000     1.346168000000     2.493417000000    15.994914619570
         H           -0.355586000000     2.214469000000     2.733889000000     1.007825032230
         H           -0.029793000000     0.631912000000     3.061578000000     1.007825032230
         O           -1.125899000000    -2.279212000000    -1.110246000000    15.994914619570
         H           -1.831871000000    -2.461089000000    -1.782069000000     1.007825032230
         H           -0.507812000000    -3.042224000000    -1.253317000000     1.007825032230

  Charge       = 1
  Multiplicity = 1
  Basis Set: AUG-CC-PVTZ
    Blend: AUG-CC-PVTZ
  Basis Set: (AUG-CC-PVTZ AUX)
    Blend: AUG-CC-PVTZ-JKFIT + DEF2-UNIVERSAL-JKFIT

    Orbital Energies [Eh]
    ---------------------

    Doubly Occupied:

       1A   -133.603078     2A    -20.716370     3A    -20.711930
       4A    -20.707379     5A    -20.698601     6A    -20.697074
       7A    -14.560756     8A    -11.590739     9A    -11.590565
      10A    -11.590498    11A     -1.823155    12A     -1.505836
      13A     -1.480593    14A     -1.479698    15A     -1.474989
      16A     -1.473929    17A     -1.035788    18A     -1.031669
      19A     -1.031481    20A     -0.873907    21A     -0.868660
      22A     -0.859645    23A     -0.853015    24A     -0.829803
      25A     -0.741192    26A     -0.726768    27A     -0.716017
      28A     -0.704833    29A     -0.701434    30A     -0.662563
      31A     -0.655390    32A     -0.646747    33A     -0.644502
      34A     -0.639953

  @DF-RHF Final Energy:  -979.37881271523634

   => Energetics <=

    Nuclear Repulsion Energy =            342.4243576225338188
    One-Electron Energy =               -2023.7492190296773060
    Two-Electron Energy =                 701.9460486919072082
    Total Energy =                       -979.3788127152363359
 Dipole X            :          9.6599422          -10.1078956           -0.4479534
 Dipole Y            :         27.0783849          -27.3237541           -0.2453693
 Dipole Z            :          5.0468789           -5.1350548           -0.0881759
 Magnitude           :                                                    0.5183081
  Basis Set: (AUG-CC-PVTZ AUX)
    Blend: AUG-CC-PVTZ-RI + DEF2-QZVPP-RI
	 Reference Energy          =    -979.3788127152363359 [Eh]
	 Singles Energy            =      -0.0000000000000000 [Eh]
	 Same-Spin Energy          =      -0.3849922640496517 [Eh]
	 Opposite-Spin Energy      =      -1.1736628383012842 [Eh]
	 Correlation Energy        =      -1.5586551023509359 [Eh]
	 Total Energy              =    -980.9374678175872759 [Eh]

	 ================> DF-SCS-MP2 Energies <==================
	-----------------------------------------------------------
	 SCS Same-Spin Scale       =       0.3333333333333333 [-]
	 SCS Opposite-Spin Scale   =       1.2000000000000000 [-]
	 SCS Same-Spin Energy      =      -0.1283307546832172 [Eh]
	 SCS Opposite-Spin Energy  =      -1.4083954059615409 [Eh]
	 SCS Correlation Energy    =      -1.5367261606447582 [Eh]
	 SCS Total Energy          =    -980.9155388758811114 [Eh]
	-----------------------------------------------------------

*** Psi4 exiting successfully. Buy a developer a beer!
