                               Psi4 1.9 release

  ==> Input File <==

--------------------------------------------------------------------------
MEMORY 60 GB

molecule dimer {
0 1
Gh(K)      0.000000     0.000000     0.000000
Gh(O)      2.102428     1.386670    -1.029358
Gh(H)      1.785708     1.982325    -1.735266
Gh(H)      3.054769     1.229330    -1.149632
Gh(O)     -1.387566    -2.526538    -0.245913
Gh(H)     -2.303481    -2.162204    -0.161558
Gh(H)     -1.339001    -3.413108     0.108756
O         -2.609996    -0.019873     0.813235
H         -2.825722     0.803265     1.321763
H         -3.412621    -0.373229     0.472192
Gh(O)      0.543936     1.404111     2.215947
Gh(H)      1.365283     1.832211     2.534358
Gh(H)     -0.163281     1.564772     2.878369
Gh(O)      1.928879    -2.013912    -0.830288
Gh(H)      1.588446    -2.627051    -1.468844
Gh(H)      2.543503    -1.446099    -1.325233
Gh(O)     -1.015672     1.980366    -1.649540
Gh(H)     -0.491249     2.318255    -2.396721
Gh(H)     -1.304712     2.818630    -1.072400

units ang
no_reorient
no_com
symmetry c1
}

set {
basis        aug-cc-pVTZ
scf_type     df
}

energy("mp2")
--------------------------------------------------------------------------

    Molecular point group: c1

    Geometry (in Angstrom), charge = 0, multiplicity = 1:

       Center              X                  Y                   Z               Mass
    ------------   -----------------  -----------------  -----------------  -----------------
      Gh(K)           0.000000000000     0.000000000000     0.000000000000    38.963706486400
      Gh(O)           2.102428000000     1.386670000000    -1.029358000000    15.994914619570
      Gh(H)           1.785708000000     1.982325000000    -1.735266000000     1.007825032230
      Gh(H)           3.054769000000     1.229330000000    -1.149632000000     1.007825032230
      Gh(O)          -1.387566000000    -2.526538000000    -0.245913000000    15.994914619570
      Gh(H)          -2.303481000000    -2.162204000000    -0.161558000000     1.007825032230
      Gh(H)          -1.339001000000    -3.413108000000     0.108756000000     1.007825032230
         O           -2.609996000000    -0.019873000000     0.813235000000    15.994914619570
         H           -2.825722000000     0.803265000000     1.321763000000     1.007825032230
         H           -3.412621000000    -0.373229000000     0.472192000000     1.007825032230
      Gh(O)           0.543936000000     1.404111000000     2.215947000000    15.994914619570
      Gh(H)           1.365283000000     1.832211000000     2.534358000000     1.007825032230
      Gh(H)          -0.163281000000     1.564772000000     2.878369000000     1.007825032230
      Gh(O)           1.928879000000    -2.013912000000    -0.830288000000    15.994914619570
      Gh(H)           1.588446000000    -2.627051000000    -1.468844000000     1.007825032230
      Gh(H)           2.543503000000    -1.446099000000    -1.325233000000     1.007825032230
      Gh(O)          -1.015672000000     1.980366000000    -1.649540000000    15.994914619570
      Gh(H)          -0.491249000000     2.318255000000    -2.396721000000     1.007825032230
      Gh(H)          -1.304712000000     2.818630000000    -1.072400000000     1.007825032230

  Charge       = 0
  Multiplicity = 1
  Basis Set: AUG-CC-PVTZ
    Blend: AUG-CC-PVTZ
  Basis Set: (AUG-CC-PVTZ AUX)
    Blend: AUG-CC-PVTZ-JKFIT + DEF2-UNIVERSAL-JKFIT

    Orbital Energies [Eh]
    ---------------------

    Doubly Occupied:

       1A    -20.566815     2A     -1.347018     3A     -0.719942
       4A     -0.575867     5A     -0.508518

  @DF-RHF Final Energy:   -76.05858830412151

   => Energetics <=

    Nuclear Repulsion Energy =              9.1076970011133973
    One-Electron Energy =                -122.8962481432093483
    Two-Electron Energy =                  37.7299628379744263
    Total Energy =                        -76.0585883041215283
 Dipole X            :         50.5618349          -51.2461808           -0.6843458
 Dipole Y            :         -0.2039223            0.5122140            0.3082917
 Dipole Z            :        -15.5763410           15.6844150            0.1080740
 Magnitude           :                                                    0.7583225
  Basis Set: (AUG-CC-PVTZ AUX)
    Blend: AUG-CC-PVTZ-RI + DEF2-QZVPP-RI
	 Reference Energy          =     -76.0585883041215141 [Eh]
	 Singles Energy            =      -0.0000000000000000 [Eh]
	 Same-Spin Energy          =      -0.0684874882478606 [Eh]
	 Opposite-Spin Energy      =      -0.2159833023298926 [Eh]
	 Correlation Energy        =      -0.2844707905777532 [Eh]
	 Total Energy              =     -76.3430590946992709 [Eh]

	 ================> DF-SCS-MP2 Energies <==================
	-----------------------------------------------------------
	 SCS Same-Spin Scale       =       0.3333333333333333 [-]
	 SCS Opposite-Spin Scale   =       1.2000000000000000 [-]
	 SCS Same-Spin Energy      =      -0.0228291627492869 [Eh]
	 SCS Opposite-Spin Energy  =      -0.2591799627958711 [Eh]
	 SCS Correlation Energy    =      -0.2820091255451580 [Eh]
	 SCS Total Energy          =     -76.3405974296666727 [Eh]
	-----------------------------------------------------------

*** Psi4 exiting successfully. Buy a developer a beer!
