                               Psi4 1.9 release

  ==> Input File <==

--------------------------------------------------------------------------
MEMORY 60 GB

molecule dimer {
0 1
Gh(K)      0.000000     0.000000     0.000000
Gh(O)      0.957190    -1.386757     2.254317
Gh(H)      0.346314    -1.538227     2.944648
Gh(H)      1.508477    -0.680100     2.530417
Gh(O)     -1.972321    -1.892141    -0.455348
Gh(H)     -2.386838    -1.108573    -0.921557
Gh(H)     -1.959596    -2.685029    -1.112345
O          2.214048     1.192468     0.500912
H          2.674099     0.872921     1.259207
H          2.802115     1.115706    -0.234481
Gh(O)     -1.570407     1.521695    -1.522003
Gh(H)     -2.540405     1.534752    -1.445713
Gh(H)     -1.376556     1.601288    -2.489818
Gh(O)      1.131955    -1.268921    -1.784459
Gh(H)      1.698719    -1.777535    -1.212553
Gh(H)      1.705790    -0.723363    -2.309643

units ang
no_reorient
no_com
symmetry c1
}

set {
basis        aug-cc-pVTZ
scf_type     df
}

energy("mp2")
--------------------------------------------------------------------------

    Molecular point group: c1

    Geometry (in Angstrom), charge = 0, multiplicity = 1:

       Center              X                  Y                   Z               Mass
    ------------   -----------------  -----------------  -----------------  -----------------
      Gh(K)           0.000000000000     0.000000000000     0.000000000000    38.963706486400
      Gh(O)           0.957190000000    -1.386757000000     2.254317000000    15.994914619570
      Gh(H)           0.346314000000    -1.538227000000     2.944648000000     1.007825032230
      Gh(H)           1.508477000000    -0.680100000000     2.530417000000     1.007825032230
      Gh(O)          -1.972321000000    -1.892141000000    -0.455348000000    15.994914619570
      Gh(H)          -2.386838000000    -1.108573000000    -0.921557000000     1.007825032230
      Gh(H)          -1.959596000000    -2.685029000000    -1.112345000000     1.007825032230
         O            2.214048000000     1.192468000000     0.500912000000    15.994914619570
         H            2.674099000000     0.872921000000     1.259207000000     1.007825032230
         H            2.802115000000     1.115706000000    -0.234481000000     1.007825032230
      Gh(O)          -1.570407000000     1.521695000000    -1.522003000000    15.994914619570
      Gh(H)          -2.540405000000     1.534752000000    -1.445713000000     1.007825032230
      Gh(H)          -1.376556000000     1.601288000000    -2.489818000000     1.007825032230
      Gh(O)           1.131955000000    -1.268921000000    -1.784459000000    15.994914619570
      Gh(H)           1.698719000000    -1.777535000000    -1.212553000000     1.007825032230
      Gh(H)           1.705790000000    -0.723363000000    -2.309643000000     1.007825032230

  Charge       = 0
  Multiplicity = 1
  Basis Set: AUG-CC-PVTZ
    Blend: AUG-CC-PVTZ
  Basis Set: (AUG-CC-PVTZ AUX)
    Blend: AUG-CC-PVTZ-JKFIT + DEF2-UNIVERSAL-JKFIT

    Orbital Energies [Eh]
    ---------------------

    Doubly Occupied:

       1A    -20.563474     2A     -1.358691     3A     -0.730424
       4A     -0.582272     5A     -0.510725

  @DF-RHF Final Energy:   -76.06125259401975

   => Energetics <=

    Nuclear Repulsion Energy =              9.3200426212288292
    One-Electron Energy =                -123.2714147032438206
    Two-Electron Energy =                  37.8901194879952357
    Total Energy =                        -76.0612525940197486
 Dipole X            :        -43.1111370           43.8200995            0.7089625
 Dipole Y            :        -22.0533281           21.7854639           -0.2678642
 Dipole Z            :         -9.4932257            9.5091434            0.0159177
 Magnitude           :                                                    0.7580451
  Basis Set: (AUG-CC-PVTZ AUX)
    Blend: AUG-CC-PVTZ-RI + DEF2-QZVPP-RI
	 Reference Energy          =     -76.0612525940197486 [Eh]
	 Singles Energy            =      -0.0000000000000000 [Eh]
	 Same-Spin Energy          =      -0.0681224039929992 [Eh]
	 Opposite-Spin Energy      =      -0.2148601357529426 [Eh]
	 Correlation Energy        =      -0.2829825397459419 [Eh]
	 Total Energy              =     -76.3442351337656930 [Eh]

	 ================> DF-SCS-MP2 Energies <==================
	-----------------------------------------------------------
	 SCS Same-Spin Scale       =       0.3333333333333333 [-]
	 SCS Opposite-Spin Scale   =       1.2000000000000000 [-]
	 SCS Same-Spin Energy      =      -0.0227074679976664 [Eh]
	 SCS Opposite-Spin Energy  =      -0.2578321629035312 [Eh]
	 SCS Correlation Energy    =      -0.2805396309011976 [Eh]
	 SCS Total Energy          =     -76.3417922249209511 [Eh]
	-----------------------------------------------------------

*** Psi4 exiting successfully. Buy a developer a beer!
