                               Psi4 1.9 release

  ==> Input File <==

--------------------------------------------------------------------------
MEMORY 60 GB

molecule dimer {
1 1
K          0.000000     0.000000     0.000000
Gh(O)     -1.333192     2.296700    -0.143276
Gh(H)     -1.880572     2.324349     0.647278
Gh(H)     -0.939747     3.150442    -0.123998
Gh(O)      1.513983    -2.323742    -0.943847
Gh(H)      2.366267    -2.226553    -1.343372
Gh(H)      0.936856    -2.841776    -1.569285
Gh(O)     -2.132906    -0.990787    -1.068623
Gh(H)     -2.264157    -1.131510    -1.972940
Gh(H)     -2.972426    -0.581761    -0.773426
Gh(O)     -1.301569    -1.185610     1.910969
Gh(H)     -1.209146    -1.149223     2.904024
Gh(H)     -2.251409    -1.284523     1.765089
Gh(O)     -0.090714     1.371623     2.527585
Gh(H)      0.344682     2.259132     2.564693
Gh(H)     -0.971008     1.365010     2.948526
Gh(O)      1.429543     1.188070    -2.089276
Gh(H)      2.048565     0.859537    -2.779898
Gh(H)      1.883227     1.964633    -1.731157

units ang
no_reorient
no_com
symmetry c1
}

set {
basis        aug-cc-pVTZ
scf_type     df
}

energy("mp2")
--------------------------------------------------------------------------

    Molecular point group: c1

    Geometry (in Angstrom), charge = 1, multiplicity = 1:

       Center              X                  Y                   Z               Mass
    ------------   -----------------  -----------------  -----------------  -----------------
         K            0.000000000000     0.000000000000     0.000000000000    38.963706486400
      Gh(O)          -1.333192000000     2.296700000000    -0.143276000000    15.994914619570
      Gh(H)          -1.880572000000     2.324349000000     0.647278000000     1.007825032230
      Gh(H)          -0.939747000000     3.150442000000    -0.123998000000     1.007825032230
      Gh(O)           1.513983000000    -2.323742000000    -0.943847000000    15.994914619570
      Gh(H)           2.366267000000    -2.226553000000    -1.343372000000     1.007825032230
      Gh(H)           0.936856000000    -2.841776000000    -1.569285000000     1.007825032230
      Gh(O)          -2.132906000000    -0.990787000000    -1.068623000000    15.994914619570
      Gh(H)          -2.264157000000    -1.131510000000    -1.972940000000     1.007825032230
      Gh(H)          -2.972426000000    -0.581761000000    -0.773426000000     1.007825032230
      Gh(O)          -1.301569000000    -1.185610000000     1.910969000000    15.994914619570
      Gh(H)          -1.209146000000    -1.149223000000     2.904024000000     1.007825032230
      Gh(H)          -2.251409000000    -1.284523000000     1.765089000000     1.007825032230
      Gh(O)          -0.090714000000     1.371623000000     2.527585000000    15.994914619570
      Gh(H)           0.344682000000     2.259132000000     2.564693000000     1.007825032230
      Gh(H)          -0.971008000000     1.365010000000     2.948526000000     1.007825032230
      Gh(O)           1.429543000000     1.188070000000    -2.089276000000    15.994914619570
      Gh(H)           2.048565000000     0.859537000000    -2.779898000000     1.007825032230
      Gh(H)           1.883227000000     1.964633000000    -1.731157000000     1.007825032230

  Charge       = 1
  Multiplicity = 1
  Basis Set: AUG-CC-PVTZ
    Blend: AUG-CC-PVTZ
  Basis Set: (AUG-CC-PVTZ AUX)
    Blend: AUG-CC-PVTZ-JKFIT + DEF2-UNIVERSAL-JKFIT

    Orbital Energies [Eh]
    ---------------------

    Doubly Occupied:

       1A   -133.752453     2A    -14.708162     3A    -11.738222
       4A    -11.738221     5A    -11.738220     6A     -1.963867
       7A     -1.170580     8A     -1.170576     9A     -1.170560

  @DF-RHF Final Energy:  -599.01751711313466

   => Energetics <=

    Nuclear Repulsion Energy =              0.0000000000000000
    One-Electron Energy =                -819.7333115136074184
    Two-Electron Energy =                 220.7157944004727881
    Total Energy =                       -599.0175171131346588
 Dipole X            :         -0.0002095            0.0000000           -0.0002095
 Dipole Y            :          0.0000497            0.0000000            0.0000497
 Dipole Z            :          0.0000012            0.0000000            0.0000012
 Magnitude           :                                                    0.0002154
  Basis Set: (AUG-CC-PVTZ AUX)
    Blend: AUG-CC-PVTZ-RI + DEF2-QZVPP-RI
	 Reference Energy          =    -599.0175171131346588 [Eh]
	 Singles Energy            =      -0.0000000000000000 [Eh]
	 Same-Spin Energy          =      -0.0388104797995620 [Eh]
	 Opposite-Spin Energy      =      -0.0952546526352308 [Eh]
	 Correlation Energy        =      -0.1340651324347928 [Eh]
	 Total Energy              =    -599.1515822455694433 [Eh]

	 ================> DF-SCS-MP2 Energies <==================
	-----------------------------------------------------------
	 SCS Same-Spin Scale       =       0.3333333333333333 [-]
	 SCS Opposite-Spin Scale   =       1.2000000000000000 [-]
	 SCS Same-Spin Energy      =      -0.0129368265998540 [Eh]
	 SCS Opposite-Spin Energy  =      -0.1143055831622770 [Eh]
	 SCS Correlation Energy    =      -0.1272424097621309 [Eh]
	 SCS Total Energy          =    -599.1447595228968339 [Eh]
	-----------------------------------------------------------

*** Psi4 exiting successfully. Buy a developer a beer!
