                               Psi4 1.9 release

  ==> Input File <==

--------------------------------------------------------------------------
MEMORY 60 GB

molecule dimer {
1 1
K      0.000000     0.000000     0.000000
--
0 1
O     -0.873977    -0.157326    -2.492460
H     -1.740116    -0.052883    -2.878562
H     -0.273500     0.375994    -3.026061
O      2.608119     0.315616     0.527310
H      3.312820    -0.307262     0.594493
H      2.932642     0.856303    -0.199126
O      0.725977    -2.654096    -0.373484
H      1.317561    -2.978209    -1.023598
H     -0.110315    -3.095978    -0.542861
O     -2.649027    -1.197370     0.324003
H     -2.756447    -1.934451    -0.241219
H     -2.755054    -1.440674     1.244298
O     -1.038712     2.794023    -0.587160
H     -1.259782     2.719630    -1.535356
H     -1.840414     2.377449    -0.164631

units ang
no_reorient
no_com
symmetry c1
}

set {
basis        aug-cc-pVTZ
scf_type     df
}

energy("mp2", bsse_type="cp")
--------------------------------------------------------------------------

                               Psi4 1.9 release
    Molecular point group: c1
  Charge       = 0
  Multiplicity = 1
  Basis Set: AUG-CC-PVTZ
    Blend: AUG-CC-PVTZ
  Basis Set: (AUG-CC-PVTZ AUX)
    Blend: AUG-CC-PVTZ-JKFIT + DEF2-UNIVERSAL-JKFIT
  @DF-RHF Final Energy:  -380.28805964955188
    Total Energy =                       -380.2880596495518830
 Dipole X            :         24.0956480          -24.5542792           -0.4586312
 Dipole Y            :         19.0391716          -20.1696233           -1.1304517
 Dipole Z            :         52.4141268          -54.0215082           -1.6073814
 Magnitude           :                                                    2.0179045
  Basis Set: (AUG-CC-PVTZ AUX)
    Blend: AUG-CC-PVTZ-RI + DEF2-QZVPP-RI
	 Reference Energy          =    -380.2880596495518830 [Eh]
	 Singles Energy            =      -0.0000000000000000 [Eh]
	 Same-Spin Energy          =      -0.3436107059126676 [Eh]
	 Opposite-Spin Energy      =      -1.0801654582963798 [Eh]
	 Correlation Energy        =      -1.4237761642090474 [Eh]
	 Total Energy              =    -381.7118358137609562 [Eh]
	 SCS Total Energy          =    -381.6987951014784244 [Eh]
                               Psi4 1.9 release
    Molecular point group: c1
  Multiplicity = 1
  Basis Set: AUG-CC-PVTZ
    Blend: AUG-CC-PVTZ
  Basis Set: (AUG-CC-PVTZ AUX)
    Blend: AUG-CC-PVTZ-JKFIT + DEF2-UNIVERSAL-JKFIT
  @DF-RHF Final Energy:  -599.01751615773640
    Total Energy =                       -599.0175161577363951
  Basis Set: (AUG-CC-PVTZ AUX)
	 Singles Energy            =      -0.0000000000000000 [Eh]
	 Same-Spin Energy          =      -0.0368174536564892 [Eh]
	 Opposite-Spin Energy      =      -0.0896211960377113 [Eh]
	 Correlation Energy        =      -0.1264386496942004 [Eh]
	 Total Energy              =    -599.1439548074306458 [Eh]
	 SCS Total Energy          =    -599.1373340775338647 [Eh]
                               Psi4 1.9 release
    Molecular point group: c1

    Geometry (in Bohr), charge = 1, multiplicity = 1:

       Center              X                  Y                   Z               Mass
    ------------   -----------------  -----------------  -----------------  -----------------
         K            0.000000000000     0.000000000000     0.000000000000    38.963706486400
         O           -1.651577169949    -0.297303052414    -4.710066778659    15.994914619570
         H           -3.288342666527    -0.099934386693    -5.439693815150     1.007825032230
         H           -0.516840095313     0.710525684815    -5.718426528929     1.007825032230
         O            4.928630612603     0.596427800812     0.996471483215    15.994914619570
         H            6.260322502939    -0.580641028760     1.123428953502     1.007825032230
         H            5.541890204015     1.618178150408    -0.376293604458     1.007825032230
         O            1.371897703381    -5.015514550673    -0.705782472240    15.994914619570
         H            2.489829443584    -5.627999354374    -1.934319882566     1.007825032230
         H           -0.208465137530    -5.850550510443    -1.025858614192     1.007825032230
         O           -5.005935528943    -2.262701370839     0.612276933827    15.994914619570
         H           -5.208929909340    -3.655582593118    -0.455837846257     1.007825032230
         H           -5.206297520847    -2.722479296068     2.351382438455     1.007825032230
         O           -1.962881203227     5.279938258230    -1.109571591824    15.994914619570
         H           -2.380642957782     5.139355862579    -2.901402345078     1.007825032230
         H           -3.477878417458     4.492727487244    -0.311107501760     1.007825032230

  Charge       = 1
  Multiplicity = 1
  Basis Set: AUG-CC-PVTZ
    Blend: AUG-CC-PVTZ
  Basis Set: (AUG-CC-PVTZ AUX)
    Blend: AUG-CC-PVTZ-JKFIT + DEF2-UNIVERSAL-JKFIT

    Orbital Energies [Eh]
    ---------------------

    Doubly Occupied:

       1A   -133.613062     2A    -20.729296     3A    -20.714460
       4A    -20.712513     5A    -20.711104     6A    -20.709620
       7A    -14.570794     8A    -11.600745     9A    -11.600603
      10A    -11.600531    11A     -1.833357    12A     -1.518453
      13A     -1.508496    14A     -1.507449    15A     -1.505834
      16A     -1.478520    17A     -1.045228    18A     -1.042316
      19A     -1.041848    20A     -0.890724    21A     -0.885141
      22A     -0.872355    23A     -0.857751    24A     -0.832733
      25A     -0.754570    26A     -0.747710    27A     -0.737954
      28A     -0.731377    29A     -0.722349    30A     -0.679325
      31A     -0.666305    32A     -0.661708    33A     -0.660144
      34A     -0.646712

  @DF-RHF Final Energy:  -979.39186340944855

   => Energetics <=

    Nuclear Repulsion Energy =            345.0215542441806633
    One-Electron Energy =               -2028.0446632925529684
    Two-Electron Energy =                 703.6312456389238150
    Total Energy =                       -979.3918634094485469
 Dipole X            :         24.0538010          -24.5542792           -0.5004783
 Dipole Y            :         18.8914982          -20.1696233           -1.2781251
 Dipole Z            :         52.1136686          -54.0215082           -1.9078396
 Magnitude           :                                                    2.3503051
  Basis Set: (AUG-CC-PVTZ AUX)
    Blend: AUG-CC-PVTZ-RI + DEF2-QZVPP-RI
	 Reference Energy          =    -979.3918634094485469 [Eh]
	 Singles Energy            =      -0.0000000000000000 [Eh]
	 Same-Spin Energy          =      -0.3836715715974869 [Eh]
	 Opposite-Spin Energy      =      -1.1700335229043157 [Eh]
	 Correlation Energy        =      -1.5537050945018027 [Eh]
	 Total Energy              =    -980.9455685039503123 [Eh]

	 ================> DF-SCS-MP2 Energies <==================
	-----------------------------------------------------------
	 SCS Same-Spin Scale       =       0.3333333333333333 [-]
	 SCS Opposite-Spin Scale   =       1.2000000000000000 [-]
	 SCS Same-Spin Energy      =      -0.1278905238658289 [Eh]
	 SCS Opposite-Spin Energy  =      -1.4040402274851789 [Eh]
	 SCS Correlation Energy    =      -1.5319307513510079 [Eh]
	 SCS Total Energy          =    -980.9237941607995026 [Eh]
	-----------------------------------------------------------

*** Psi4 exiting successfully. Buy a developer a beer!
