                               Psi4 1.9 release

  ==> Input File <==

--------------------------------------------------------------------------
MEMORY 60 GB

molecule dimer {
0 1
Gh(K)      0.000000     0.000000     0.000000
Gh(O)      2.160859     1.290133    -0.400753
Gh(H)      1.851863     2.165893    -0.347882
Gh(H)      2.858507     1.265871    -1.028996
O         -0.224116     2.890704    -0.587416
H          0.184621     3.724005    -0.298127
H         -0.628412     3.022379    -1.479339
Gh(O)     -0.596279     0.293745     2.645164
Gh(H)     -0.155475     0.327230     3.510654
Gh(H)     -0.745470     1.203896     2.319434
Gh(O)     -2.653038     0.116948    -0.474000
Gh(H)     -3.072390     0.994919    -0.656688
Gh(H)     -3.153251    -0.529245    -0.935285
Gh(O)      0.199903    -1.131038    -2.302949
Gh(H)      0.210418    -2.106909    -2.322390
Gh(H)      1.094372    -1.077689    -2.576535
Gh(O)      1.590735    -1.740659     0.686324
Gh(H)      2.345406    -1.342599     1.136997
Gh(H)      1.996290    -2.458499     0.178618

units ang
no_reorient
no_com
symmetry c1
}

set {
basis        aug-cc-pVTZ
scf_type     df
}

energy("mp2")
--------------------------------------------------------------------------

    Molecular point group: c1

    Geometry (in Angstrom), charge = 0, multiplicity = 1:

       Center              X                  Y                   Z               Mass
    ------------   -----------------  -----------------  -----------------  -----------------
      Gh(K)           0.000000000000     0.000000000000     0.000000000000    38.963706486400
      Gh(O)           2.160859000000     1.290133000000    -0.400753000000    15.994914619570
      Gh(H)           1.851863000000     2.165893000000    -0.347882000000     1.007825032230
      Gh(H)           2.858507000000     1.265871000000    -1.028996000000     1.007825032230
         O           -0.224116000000     2.890704000000    -0.587416000000    15.994914619570
         H            0.184621000000     3.724005000000    -0.298127000000     1.007825032230
         H           -0.628412000000     3.022379000000    -1.479339000000     1.007825032230
      Gh(O)          -0.596279000000     0.293745000000     2.645164000000    15.994914619570
      Gh(H)          -0.155475000000     0.327230000000     3.510654000000     1.007825032230
      Gh(H)          -0.745470000000     1.203896000000     2.319434000000     1.007825032230
      Gh(O)          -2.653038000000     0.116948000000    -0.474000000000    15.994914619570
      Gh(H)          -3.072390000000     0.994919000000    -0.656688000000     1.007825032230
      Gh(H)          -3.153251000000    -0.529245000000    -0.935285000000     1.007825032230
      Gh(O)           0.199903000000    -1.131038000000    -2.302949000000    15.994914619570
      Gh(H)           0.210418000000    -2.106909000000    -2.322390000000     1.007825032230
      Gh(H)           1.094372000000    -1.077689000000    -2.576535000000     1.007825032230
      Gh(O)           1.590735000000    -1.740659000000     0.686324000000    15.994914619570
      Gh(H)           2.345406000000    -1.342599000000     1.136997000000     1.007825032230
      Gh(H)           1.996290000000    -2.458499000000     0.178618000000     1.007825032230

  Charge       = 0
  Multiplicity = 1
  Basis Set: AUG-CC-PVTZ
    Blend: AUG-CC-PVTZ
  Basis Set: (AUG-CC-PVTZ AUX)
    Blend: AUG-CC-PVTZ-JKFIT + DEF2-UNIVERSAL-JKFIT

    Orbital Energies [Eh]
    ---------------------

    Doubly Occupied:

       1A    -20.568825     2A     -1.338965     3A     -0.713516
       4A     -0.571720     5A     -0.507068

  @DF-RHF Final Energy:   -76.05771310218722

   => Energetics <=

    Nuclear Repulsion Energy =              8.9704630723285081
    One-Electron Energy =                -122.6561616356588473
    Two-Electron Energy =                  37.6279854611431048
    Total Energy =                        -76.0577131021872219
 Dipole X            :          4.2306705           -4.2267863            0.0038842
 Dipole Y            :        -55.8074823           56.4499291            0.6424467
 Dipole Z            :         11.8406943          -12.2393668           -0.3986726
 Magnitude           :                                                    0.7561036
  Basis Set: (AUG-CC-PVTZ AUX)
    Blend: AUG-CC-PVTZ-RI + DEF2-QZVPP-RI
	 Reference Energy          =     -76.0577131021872219 [Eh]
	 Singles Energy            =      -0.0000000000000000 [Eh]
	 Same-Spin Energy          =      -0.0687501358515450 [Eh]
	 Opposite-Spin Energy      =      -0.2168169157702896 [Eh]
	 Correlation Energy        =      -0.2855670516218346 [Eh]
	 Total Energy              =     -76.3432801538090615 [Eh]

	 ================> DF-SCS-MP2 Energies <==================
	-----------------------------------------------------------
	 SCS Same-Spin Scale       =       0.3333333333333333 [-]
	 SCS Opposite-Spin Scale   =       1.2000000000000000 [-]
	 SCS Same-Spin Energy      =      -0.0229167119505150 [Eh]
	 SCS Opposite-Spin Energy  =      -0.2601802989243475 [Eh]
	 SCS Correlation Energy    =      -0.2830970108748625 [Eh]
	 SCS Total Energy          =     -76.3408101130620906 [Eh]
	-----------------------------------------------------------

*** Psi4 exiting successfully. Buy a developer a beer!
