                               Psi4 1.9 release

  ==> Input File <==

--------------------------------------------------------------------------
MEMORY 60 GB

molecule dimer {
1 1
K      0.000000     0.000000     0.000000
--
0 1
O      1.803653    -1.847112     0.206100
H      1.708783    -2.680683    -0.284385
H      2.119183    -2.134639     1.088298
O     -2.728888     0.492668     0.134493
H     -3.517786     0.992519    -0.173322
H     -3.011923    -0.394222     0.363049
O      1.771017     1.498733     1.768874
H      2.165305     0.873233     2.367554
H      2.327225     2.217179     1.679509
O     -1.232019    -2.027642    -1.142992
H     -0.978584    -2.636571    -1.824547
H     -1.720507    -2.476302    -0.401567
O      0.256748     1.390877    -2.161874
H     -0.134506     2.251599    -2.418476
H      1.075887     1.688448    -1.702877

units ang
no_reorient
no_com
symmetry c1
}

set {
basis        aug-cc-pVTZ
scf_type     df
}

energy("mp2", bsse_type="cp")
--------------------------------------------------------------------------

                               Psi4 1.9 release
    Molecular point group: c1
  Charge       = 0
  Multiplicity = 1
  Basis Set: AUG-CC-PVTZ
    Blend: AUG-CC-PVTZ
  Basis Set: (AUG-CC-PVTZ AUX)
    Blend: AUG-CC-PVTZ-JKFIT + DEF2-UNIVERSAL-JKFIT
  @DF-RHF Final Energy:  -380.27573197915262
    Total Energy =                       -380.2757319791526243
 Dipole X            :          2.1139516           -1.8950835            0.2188681
 Dipole Y            :         10.9477224          -11.7904681           -0.8427457
 Dipole Z            :         21.2172020          -20.5412398            0.6759621
 Magnitude           :                                                    1.1022923
  Basis Set: (AUG-CC-PVTZ AUX)
    Blend: AUG-CC-PVTZ-RI + DEF2-QZVPP-RI
	 Reference Energy          =    -380.2757319791526243 [Eh]
	 Singles Energy            =      -0.0000000000000000 [Eh]
	 Same-Spin Energy          =      -0.3444582192812412 [Eh]
	 Opposite-Spin Energy      =      -1.0825868765807185 [Eh]
	 Correlation Energy        =      -1.4270450958619596 [Eh]
	 Total Energy              =    -381.7027770750145805 [Eh]
	 SCS Total Energy          =    -381.6896556374765623 [Eh]
                               Psi4 1.9 release
    Molecular point group: c1
  Multiplicity = 1
  Basis Set: AUG-CC-PVTZ
    Blend: AUG-CC-PVTZ
  Basis Set: (AUG-CC-PVTZ AUX)
    Blend: AUG-CC-PVTZ-JKFIT + DEF2-UNIVERSAL-JKFIT
  @DF-RHF Final Energy:  -599.01751629846717
    Total Energy =                       -599.0175162984672852
  Basis Set: (AUG-CC-PVTZ AUX)
	 Singles Energy            =      -0.0000000000000000 [Eh]
	 Same-Spin Energy          =      -0.0377309387525339 [Eh]
	 Opposite-Spin Energy      =      -0.0921097214782690 [Eh]
	 Correlation Energy        =      -0.1298406602308028 [Eh]
	 Total Energy              =    -599.1473569586979693 [Eh]
	 SCS Total Energy          =    -599.1406249438252871 [Eh]
                               Psi4 1.9 release
    Molecular point group: c1

    Geometry (in Bohr), charge = 1, multiplicity = 1:

       Center              X                  Y                   Z               Mass
    ------------   -----------------  -----------------  -----------------  -----------------
         K            0.000000000000     0.000000000000     0.000000000000    38.963706486400
         O            3.408410195360    -3.490535803047     0.389472554457    15.994914619570
         H            3.229131877838    -5.065756699171    -0.537409764188     1.007825032230
         H            4.004675479726    -4.033883086721     2.056585162884     1.007825032230
         O           -5.156850947048     0.931007590777     0.254154935791    15.994914619570
         H           -6.647652107970     1.875589084313    -0.327531111517     1.007825032230
         H           -5.691709580967    -0.744971612630     0.686063180121     1.007825032230
         O            3.346737093530     2.832194905186     3.342687410443    15.994914619570
         H            4.091833428084     1.650171213712     4.474028647232     1.007825032230
         H            4.397817882319     4.189861081116     3.173812035242     1.007825032230
         O           -2.328178491360    -3.831688060476    -2.159941843589    15.994914619570
         H           -1.849255750755    -4.982397100324    -3.447894133026     1.007825032230
         H           -3.251287026933    -4.679532583923    -0.758851651022     1.007825032230
         O            0.485183403259     2.628376604198    -4.085349777748    15.994914619570
         H           -0.254179502231     4.254905454355    -4.570257280993     1.007825032230
         H            2.033131771940     3.190704297077    -3.217971155341     1.007825032230

  Charge       = 1
  Multiplicity = 1
  Basis Set: AUG-CC-PVTZ
    Blend: AUG-CC-PVTZ
  Basis Set: (AUG-CC-PVTZ AUX)
    Blend: AUG-CC-PVTZ-JKFIT + DEF2-UNIVERSAL-JKFIT

    Orbital Energies [Eh]
    ---------------------

    Doubly Occupied:

       1A   -133.591309     2A    -20.721525     3A    -20.715412
       4A    -20.711180     5A    -20.702280     6A    -20.701785
       7A    -14.549809     8A    -11.579710     9A    -11.579525
      10A    -11.579461    11A     -1.815032    12A     -1.506922
      13A     -1.500875    14A     -1.495813    15A     -1.487166
      16A     -1.481371    17A     -1.029352    18A     -1.024973
      19A     -1.024194    20A     -0.883703    21A     -0.878037
      22A     -0.860019    23A     -0.852544    24A     -0.838668
      25A     -0.745029    26A     -0.732083    27A     -0.731257
      28A     -0.724555    29A     -0.718143    30A     -0.671214
      31A     -0.658568    32A     -0.655779    33A     -0.653105
      34A     -0.643787

  @DF-RHF Final Energy:  -979.38622908162154

   => Energetics <=

    Nuclear Repulsion Energy =            351.8349992825187655
    One-Electron Energy =               -2042.3540770906693069
    Two-Electron Energy =                 711.1328487265290050
    Total Energy =                       -979.3862290816215364
 Dipole X            :          2.0671222           -1.8950835            0.1720387
 Dipole Y            :         10.8450547          -11.7904681           -0.9454134
 Dipole Z            :         21.0317961          -20.5412398            0.4905563
 Magnitude           :                                                    1.0789111
  Basis Set: (AUG-CC-PVTZ AUX)
    Blend: AUG-CC-PVTZ-RI + DEF2-QZVPP-RI
	 Reference Energy          =    -979.3862290816215364 [Eh]
	 Singles Energy            =      -0.0000000000000000 [Eh]
	 Same-Spin Energy          =      -0.3858076857180900 [Eh]
	 Opposite-Spin Energy      =      -1.1741499404658069 [Eh]
	 Correlation Energy        =      -1.5599576261838970 [Eh]
	 Total Energy              =    -980.9461867078053956 [Eh]

	 ================> DF-SCS-MP2 Energies <==================
	-----------------------------------------------------------
	 SCS Same-Spin Scale       =       0.3333333333333333 [-]
	 SCS Opposite-Spin Scale   =       1.2000000000000000 [-]
	 SCS Same-Spin Energy      =      -0.1286025619060300 [Eh]
	 SCS Opposite-Spin Energy  =      -1.4089799285589681 [Eh]
	 SCS Correlation Energy    =      -1.5375824904649982 [Eh]
	 SCS Total Energy          =    -980.9238115720864926 [Eh]
	-----------------------------------------------------------

*** Psi4 exiting successfully. Buy a developer a beer!
