                               Psi4 1.9 release

  ==> Input File <==

--------------------------------------------------------------------------
MEMORY 60 GB

molecule dimer {
1 1
K          0.000000     0.000000     0.000000
O          1.648898    -1.546006    -1.857996
H          2.092535    -1.100966    -2.598197
H          2.194052    -2.356053    -1.700477
O         -1.568301     2.383087    -1.001812
H         -1.802415     2.237050    -1.910497
H         -1.213233     3.238371    -0.886325
O          2.091592     1.900784     0.705839
H          2.615292     1.641900     1.402222
H          2.546075     1.586819    -0.079299
O          0.683124    -2.379385     1.323810
H          1.575264    -2.320863     1.667866
H          0.490384    -3.085364     0.686686
O         -1.338183    -0.586736    -2.404592
H         -2.281260    -0.401331    -2.486804
H         -1.244841    -1.567581    -2.320192
O         -2.060914     0.053466     1.559508
H         -2.771129     0.606849     1.759945
H         -2.154751    -0.845782     1.906871

units ang
no_reorient
no_com
symmetry c1
}

set {
basis        aug-cc-pVTZ
scf_type     df
}

energy("mp2")
--------------------------------------------------------------------------

    Molecular point group: c1

    Geometry (in Angstrom), charge = 1, multiplicity = 1:

       Center              X                  Y                   Z               Mass
    ------------   -----------------  -----------------  -----------------  -----------------
         K            0.000000000000     0.000000000000     0.000000000000    38.963706486400
         O            1.648898000000    -1.546006000000    -1.857996000000    15.994914619570
         H            2.092535000000    -1.100966000000    -2.598197000000     1.007825032230
         H            2.194052000000    -2.356053000000    -1.700477000000     1.007825032230
         O           -1.568301000000     2.383087000000    -1.001812000000    15.994914619570
         H           -1.802415000000     2.237050000000    -1.910497000000     1.007825032230
         H           -1.213233000000     3.238371000000    -0.886325000000     1.007825032230
         O            2.091592000000     1.900784000000     0.705839000000    15.994914619570
         H            2.615292000000     1.641900000000     1.402222000000     1.007825032230
         H            2.546075000000     1.586819000000    -0.079299000000     1.007825032230
         O            0.683124000000    -2.379385000000     1.323810000000    15.994914619570
         H            1.575264000000    -2.320863000000     1.667866000000     1.007825032230
         H            0.490384000000    -3.085364000000     0.686686000000     1.007825032230
         O           -1.338183000000    -0.586736000000    -2.404592000000    15.994914619570
         H           -2.281260000000    -0.401331000000    -2.486804000000     1.007825032230
         H           -1.244841000000    -1.567581000000    -2.320192000000     1.007825032230
         O           -2.060914000000     0.053466000000     1.559508000000    15.994914619570
         H           -2.771129000000     0.606849000000     1.759945000000     1.007825032230
         H           -2.154751000000    -0.845782000000     1.906871000000     1.007825032230

  Charge       = 1
  Multiplicity = 1
  Basis Set: AUG-CC-PVTZ
    Blend: AUG-CC-PVTZ
  Basis Set: (AUG-CC-PVTZ AUX)
    Blend: AUG-CC-PVTZ-JKFIT + DEF2-UNIVERSAL-JKFIT

    Orbital Energies [Eh]
    ---------------------

    Doubly Occupied:

       1A   -133.587603     2A    -20.717986     3A    -20.710017
       4A    -20.702956     5A    -20.697715     6A    -20.691345
       7A    -20.679558     8A    -14.545398     9A    -11.575291
      10A    -11.575210    11A    -11.575163    12A     -1.808274
      13A     -1.502505    14A     -1.492654    15A     -1.491108
      16A     -1.488321    17A     -1.479195    18A     -1.476304
      19A     -1.020391    20A     -1.017858    21A     -1.016734
      22A     -0.886521    23A     -0.874538    24A     -0.867479
      25A     -0.858578    26A     -0.853326    27A     -0.845617
      28A     -0.737349    29A     -0.725352    30A     -0.715811
      31A     -0.713047    32A     -0.711002    33A     -0.698158
      34A     -0.661438    35A     -0.656008    36A     -0.651019
      37A     -0.646624    38A     -0.643652    39A     -0.630688

  @DF-RHF Final Energy: -1055.46234452488898

   => Energetics <=

    Nuclear Repulsion Energy =            446.5771092681399068
    One-Electron Energy =               -2335.6233046286847639
    Two-Electron Energy =                 833.5838508356561078
    Total Energy =                      -1055.4623445248889766
 Dipole X            :          8.8400126           -8.1339463            0.7060663
 Dipole Y            :          5.7505035           -7.1153310           -1.3648275
 Dipole Z            :         33.0852598          -33.9397552           -0.8544954
 Magnitude           :                                                    1.7582509
  Basis Set: (AUG-CC-PVTZ AUX)
    Blend: AUG-CC-PVTZ-RI + DEF2-QZVPP-RI
	 Reference Energy          =   -1055.4623445248889766 [Eh]
	 Singles Energy            =      -0.0000000000000000 [Eh]
	 Same-Spin Energy          =      -0.4538353637757073 [Eh]
	 Opposite-Spin Energy      =      -1.3878981534317016 [Eh]
	 Correlation Energy        =      -1.8417335172074090 [Eh]
	 Total Energy              =   -1057.3040780420963074 [Eh]

	 ================> DF-SCS-MP2 Energies <==================
	-----------------------------------------------------------
	 SCS Same-Spin Scale       =       0.3333333333333333 [-]
	 SCS Opposite-Spin Scale   =       1.2000000000000000 [-]
	 SCS Same-Spin Energy      =      -0.1512784545919024 [Eh]
	 SCS Opposite-Spin Energy  =      -1.6654777841180419 [Eh]
	 SCS Correlation Energy    =      -1.8167562387099443 [Eh]
	 SCS Total Energy          =   -1057.2791007635989899 [Eh]
	-----------------------------------------------------------

*** Psi4 exiting successfully. Buy a developer a beer!
