                               Psi4 1.9 release

  ==> Input File <==

--------------------------------------------------------------------------
MEMORY 60 GB

molecule dimer {
0 1
Gh(K)      0.000000     0.000000     0.000000
Gh(O)      1.288020     2.048155    -1.363242
Gh(H)      2.289687     1.970546    -1.403737
Gh(H)      1.067139     2.374250    -2.284171
Gh(O)      1.081330    -2.084572    -0.974603
Gh(H)      1.681074    -1.891306    -1.699856
Gh(H)      0.899362    -3.081487    -1.002484
O          1.484184     1.194304     2.136076
H          1.433747     1.868088     2.889056
H          1.422654     0.344614     2.575615
Gh(O)     -2.340818    -0.324700    -1.276031
Gh(H)     -3.288057    -0.073244    -1.237822
Gh(H)     -2.441854    -1.272455    -1.265717
Gh(O)     -1.588027    -0.288334     1.906629
Gh(H)     -1.962376     0.465498     2.313524
Gh(H)     -1.373894    -0.914990     2.624297

units ang
no_reorient
no_com
symmetry c1
}

set {
basis        aug-cc-pVTZ
scf_type     df
}

energy("mp2")
--------------------------------------------------------------------------

    Molecular point group: c1

    Geometry (in Angstrom), charge = 0, multiplicity = 1:

       Center              X                  Y                   Z               Mass
    ------------   -----------------  -----------------  -----------------  -----------------
      Gh(K)           0.000000000000     0.000000000000     0.000000000000    38.963706486400
      Gh(O)           1.288020000000     2.048155000000    -1.363242000000    15.994914619570
      Gh(H)           2.289687000000     1.970546000000    -1.403737000000     1.007825032230
      Gh(H)           1.067139000000     2.374250000000    -2.284171000000     1.007825032230
      Gh(O)           1.081330000000    -2.084572000000    -0.974603000000    15.994914619570
      Gh(H)           1.681074000000    -1.891306000000    -1.699856000000     1.007825032230
      Gh(H)           0.899362000000    -3.081487000000    -1.002484000000     1.007825032230
         O            1.484184000000     1.194304000000     2.136076000000    15.994914619570
         H            1.433747000000     1.868088000000     2.889056000000     1.007825032230
         H            1.422654000000     0.344614000000     2.575615000000     1.007825032230
      Gh(O)          -2.340818000000    -0.324700000000    -1.276031000000    15.994914619570
      Gh(H)          -3.288057000000    -0.073244000000    -1.237822000000     1.007825032230
      Gh(H)          -2.441854000000    -1.272455000000    -1.265717000000     1.007825032230
      Gh(O)          -1.588027000000    -0.288334000000     1.906629000000    15.994914619570
      Gh(H)          -1.962376000000     0.465498000000     2.313524000000     1.007825032230
      Gh(H)          -1.373894000000    -0.914990000000     2.624297000000     1.007825032230

  Charge       = 0
  Multiplicity = 1
  Basis Set: AUG-CC-PVTZ
    Blend: AUG-CC-PVTZ
  Basis Set: (AUG-CC-PVTZ AUX)
    Blend: AUG-CC-PVTZ-JKFIT + DEF2-UNIVERSAL-JKFIT

    Orbital Energies [Eh]
    ---------------------

    Doubly Occupied:

       1A    -20.571917     2A     -1.340410     3A     -0.702505
       4A     -0.579808     5A     -0.508253

  @DF-RHF Final Energy:   -76.05622981316696

   => Energetics <=

    Nuclear Repulsion Energy =              8.9408888531693123
    One-Electron Energy =                -122.5884461325833428
    Two-Electron Energy =                  37.5913274662470798
    Total Energy =                        -76.0562298131669507
 Dipole X            :        -27.9085431           27.8354258           -0.0731172
 Dipole Y            :        -22.3606454           22.2366605           -0.1239848
 Dipole Z            :        -41.8421300           42.6195205            0.7773906
 Magnitude           :                                                    0.7906039
  Basis Set: (AUG-CC-PVTZ AUX)
    Blend: AUG-CC-PVTZ-RI + DEF2-QZVPP-RI
	 Reference Energy          =     -76.0562298131669650 [Eh]
	 Singles Energy            =      -0.0000000000000000 [Eh]
	 Same-Spin Energy          =      -0.0688602022562289 [Eh]
	 Opposite-Spin Energy      =      -0.2170680666086752 [Eh]
	 Correlation Energy        =      -0.2859282688649040 [Eh]
	 Total Energy              =     -76.3421580820318724 [Eh]

	 ================> DF-SCS-MP2 Energies <==================
	-----------------------------------------------------------
	 SCS Same-Spin Scale       =       0.3333333333333333 [-]
	 SCS Opposite-Spin Scale   =       1.2000000000000000 [-]
	 SCS Same-Spin Energy      =      -0.0229534007520763 [Eh]
	 SCS Opposite-Spin Energy  =      -0.2604816799304102 [Eh]
	 SCS Correlation Energy    =      -0.2834350806824865 [Eh]
	 SCS Total Energy          =     -76.3396648938494451 [Eh]
	-----------------------------------------------------------

*** Psi4 exiting successfully. Buy a developer a beer!
