                               Psi4 1.9 release

  ==> Input File <==

--------------------------------------------------------------------------
MEMORY 60 GB

molecule dimer {
1 1
K          0.000000     0.000000     0.000000
O          1.649798    -2.297513     0.068375
H          0.966347    -3.009432     0.268920
H          2.415982    -2.455505     0.666808
O         -1.651512     1.316542     1.618952
H         -2.531349     1.240121     2.010840
H         -1.216179     2.096571     2.037483
O         -2.184128    -0.807746    -0.773576
H         -2.827219    -1.529499    -0.681704
H         -2.210682    -0.412574    -1.661052
O          1.487946     1.247924     2.225563
H          1.142883     1.150397     3.114392
H          2.490161     1.303890     2.274317

units ang
no_reorient
no_com
symmetry c1
}

set {
basis        aug-cc-pVTZ
scf_type     df
}

energy("mp2")
--------------------------------------------------------------------------

    Molecular point group: c1

    Geometry (in Angstrom), charge = 1, multiplicity = 1:

       Center              X                  Y                   Z               Mass
    ------------   -----------------  -----------------  -----------------  -----------------
         K            0.000000000000     0.000000000000     0.000000000000    38.963706486400
         O            1.649798000000    -2.297513000000     0.068375000000    15.994914619570
         H            0.966347000000    -3.009432000000     0.268920000000     1.007825032230
         H            2.415982000000    -2.455505000000     0.666808000000     1.007825032230
         O           -1.651512000000     1.316542000000     1.618952000000    15.994914619570
         H           -2.531349000000     1.240121000000     2.010840000000     1.007825032230
         H           -1.216179000000     2.096571000000     2.037483000000     1.007825032230
         O           -2.184128000000    -0.807746000000    -0.773576000000    15.994914619570
         H           -2.827219000000    -1.529499000000    -0.681704000000     1.007825032230
         H           -2.210682000000    -0.412574000000    -1.661052000000     1.007825032230
         O            1.487946000000     1.247924000000     2.225563000000    15.994914619570
         H            1.142883000000     1.150397000000     3.114392000000     1.007825032230
         H            2.490161000000     1.303890000000     2.274317000000     1.007825032230

  Charge       = 1
  Multiplicity = 1
  Basis Set: AUG-CC-PVTZ
    Blend: AUG-CC-PVTZ
  Basis Set: (AUG-CC-PVTZ AUX)
    Blend: AUG-CC-PVTZ-JKFIT + DEF2-UNIVERSAL-JKFIT

    Orbital Energies [Eh]
    ---------------------

    Doubly Occupied:

       1A   -133.613604     2A    -20.724582     3A    -20.716275
       4A    -20.713066     5A    -20.711162     6A    -14.571665
       7A    -11.601617     8A    -11.601442     9A    -11.601364
      10A     -1.835306    11A     -1.507379    12A     -1.488617
      13A     -1.484416    14A     -1.479398    15A     -1.046775
      16A     -1.046454    17A     -1.043438    18A     -0.885996
      19A     -0.860893    20A     -0.852648    21A     -0.846962
      22A     -0.741649    23A     -0.728793    24A     -0.723900
      25A     -0.723051    26A     -0.672743    27A     -0.656239
      28A     -0.654645    29A     -0.652861

  @DF-RHF Final Energy:  -903.31970309407848

   => Energetics <=

    Nuclear Repulsion Energy =            254.8814109251088951
    One-Electron Energy =               -1744.8283379158501702
    Two-Electron Energy =                 586.6272238966628265
    Total Energy =                       -903.3197030940784771
 Dipole X            :         13.4723307          -13.8955795           -0.4232488
 Dipole Y            :         10.7834387          -11.2294613           -0.4460226
 Dipole Z            :        -61.2372600           62.6340578            1.3967978
 Magnitude           :                                                    1.5261454
  Basis Set: (AUG-CC-PVTZ AUX)
    Blend: AUG-CC-PVTZ-RI + DEF2-QZVPP-RI
	 Reference Energy          =    -903.3197030940784771 [Eh]
	 Singles Energy            =      -0.0000000000000000 [Eh]
	 Same-Spin Energy          =      -0.3144015212921424 [Eh]
	 Opposite-Spin Energy      =      -0.9530067258235385 [Eh]
	 Correlation Energy        =      -1.2674082471156809 [Eh]
	 Total Energy              =    -904.5871113411941451 [Eh]

	 ================> DF-SCS-MP2 Energies <==================
	-----------------------------------------------------------
	 SCS Same-Spin Scale       =       0.3333333333333333 [-]
	 SCS Opposite-Spin Scale   =       1.2000000000000000 [-]
	 SCS Same-Spin Energy      =      -0.1048005070973808 [Eh]
	 SCS Opposite-Spin Energy  =      -1.1436080709882461 [Eh]
	 SCS Correlation Energy    =      -1.2484085780856269 [Eh]
	 SCS Total Energy          =    -904.5681116721641501 [Eh]
	-----------------------------------------------------------

*** Psi4 exiting successfully. Buy a developer a beer!
