                               Psi4 1.9 release

  ==> Input File <==

--------------------------------------------------------------------------
MEMORY 60 GB

molecule dimer {
0 1
Gh(K)      0.000000     0.000000     0.000000
Gh(O)      2.210706     1.169674     1.148820
Gh(H)      2.542276     0.564502     1.883025
Gh(H)      2.469189     2.058712     1.390268
Gh(O)     -0.157161     0.568570    -2.648263
Gh(H)      0.654664     1.115551    -2.877620
Gh(H)     -0.061308    -0.316781    -3.128151
Gh(O)      1.720062    -1.820533    -1.495334
Gh(H)      1.720440    -2.330188    -2.342644
Gh(H)      2.311599    -2.331956    -0.890084
O         -1.760100     1.823148     0.416399
H         -1.645011     2.388567     1.190595
H         -1.171767     2.247211    -0.232701
Gh(O)      0.101240    -2.179944     1.333505
Gh(H)     -0.422830    -2.543391     0.610743
Gh(H)      1.012164    -2.546319     1.146336

units ang
no_reorient
no_com
symmetry c1
}

set {
basis        aug-cc-pVTZ
scf_type     df
}

energy("mp2")
--------------------------------------------------------------------------

    Molecular point group: c1

    Geometry (in Angstrom), charge = 0, multiplicity = 1:

       Center              X                  Y                   Z               Mass
    ------------   -----------------  -----------------  -----------------  -----------------
      Gh(K)           0.000000000000     0.000000000000     0.000000000000    38.963706486400
      Gh(O)           2.210706000000     1.169674000000     1.148820000000    15.994914619570
      Gh(H)           2.542276000000     0.564502000000     1.883025000000     1.007825032230
      Gh(H)           2.469189000000     2.058712000000     1.390268000000     1.007825032230
      Gh(O)          -0.157161000000     0.568570000000    -2.648263000000    15.994914619570
      Gh(H)           0.654664000000     1.115551000000    -2.877620000000     1.007825032230
      Gh(H)          -0.061308000000    -0.316781000000    -3.128151000000     1.007825032230
      Gh(O)           1.720062000000    -1.820533000000    -1.495334000000    15.994914619570
      Gh(H)           1.720440000000    -2.330188000000    -2.342644000000     1.007825032230
      Gh(H)           2.311599000000    -2.331956000000    -0.890084000000     1.007825032230
         O           -1.760100000000     1.823148000000     0.416399000000    15.994914619570
         H           -1.645011000000     2.388567000000     1.190595000000     1.007825032230
         H           -1.171767000000     2.247211000000    -0.232701000000     1.007825032230
      Gh(O)           0.101240000000    -2.179944000000     1.333505000000    15.994914619570
      Gh(H)          -0.422830000000    -2.543391000000     0.610743000000     1.007825032230
      Gh(H)           1.012164000000    -2.546319000000     1.146336000000     1.007825032230

  Charge       = 0
  Multiplicity = 1
  Basis Set: AUG-CC-PVTZ
    Blend: AUG-CC-PVTZ
  Basis Set: (AUG-CC-PVTZ AUX)
    Blend: AUG-CC-PVTZ-JKFIT + DEF2-UNIVERSAL-JKFIT

    Orbital Energies [Eh]
    ---------------------

    Doubly Occupied:

       1A    -20.570326     2A     -1.349123     3A     -0.706240
       4A     -0.587481     5A     -0.510094

  @DF-RHF Final Energy:   -76.05929563873887

   => Energetics <=

    Nuclear Repulsion Energy =              9.0852149876376007
    One-Electron Energy =                -122.8424893802066151
    Two-Electron Energy =                  37.6979787538301352
    Total Energy =                        -76.0592956387388881
 Dipole X            :         32.3921924          -31.9317946            0.4603978
 Dipole Y            :        -35.6735610           36.3223540            0.6487931
 Dipole Z            :         -8.0218596            8.1051979            0.0833382
 Magnitude           :                                                    0.7999024
  Basis Set: (AUG-CC-PVTZ AUX)
    Blend: AUG-CC-PVTZ-RI + DEF2-QZVPP-RI
	 Reference Energy          =     -76.0592956387388739 [Eh]
	 Singles Energy            =      -0.0000000000000000 [Eh]
	 Same-Spin Energy          =      -0.0686514902723939 [Eh]
	 Opposite-Spin Energy      =      -0.2163787003114126 [Eh]
	 Correlation Energy        =      -0.2850301905838066 [Eh]
	 Total Energy              =     -76.3443258293226847 [Eh]

	 ================> DF-SCS-MP2 Energies <==================
	-----------------------------------------------------------
	 SCS Same-Spin Scale       =       0.3333333333333333 [-]
	 SCS Opposite-Spin Scale   =       1.2000000000000000 [-]
	 SCS Same-Spin Energy      =      -0.0228838300907980 [Eh]
	 SCS Opposite-Spin Energy  =      -0.2596544403736951 [Eh]
	 SCS Correlation Energy    =      -0.2825382704644931 [Eh]
	 SCS Total Energy          =     -76.3418339092033733 [Eh]
	-----------------------------------------------------------

*** Psi4 exiting successfully. Buy a developer a beer!
