                               Psi4 1.9 release

  ==> Input File <==

--------------------------------------------------------------------------
MEMORY 60 GB

molecule dimer {
1 1
K          0.000000     0.000000     0.000000
Gh(O)      0.075155    -1.723621    -2.222691
Gh(H)      0.160553    -2.664415    -2.167190
Gh(H)      0.364851    -1.484375    -3.131935
Gh(O)      1.231668    -2.456321     1.234605
Gh(H)      1.127068    -3.384287     0.950491
Gh(H)      0.887056    -2.271199     2.158531
Gh(O)     -2.591511    -1.086420     0.720781
Gh(H)     -3.095590    -1.651979     1.265500
Gh(H)     -3.189225    -0.757403     0.067002
Gh(O)      0.999639     2.617895     0.271985
Gh(H)      0.388983     3.122801     0.770979
Gh(H)      1.638461     2.439843     1.007245
Gh(O)      1.255850     0.564449     2.393699
Gh(H)      1.293308     0.072444     3.193687
Gh(H)      1.888924     1.216741     2.629633

units ang
no_reorient
no_com
symmetry c1
}

set {
basis        aug-cc-pVTZ
scf_type     df
}

energy("mp2")
--------------------------------------------------------------------------

    Molecular point group: c1

    Geometry (in Angstrom), charge = 1, multiplicity = 1:

       Center              X                  Y                   Z               Mass
    ------------   -----------------  -----------------  -----------------  -----------------
         K            0.000000000000     0.000000000000     0.000000000000    38.963706486400
      Gh(O)           0.075155000000    -1.723621000000    -2.222691000000    15.994914619570
      Gh(H)           0.160553000000    -2.664415000000    -2.167190000000     1.007825032230
      Gh(H)           0.364851000000    -1.484375000000    -3.131935000000     1.007825032230
      Gh(O)           1.231668000000    -2.456321000000     1.234605000000    15.994914619570
      Gh(H)           1.127068000000    -3.384287000000     0.950491000000     1.007825032230
      Gh(H)           0.887056000000    -2.271199000000     2.158531000000     1.007825032230
      Gh(O)          -2.591511000000    -1.086420000000     0.720781000000    15.994914619570
      Gh(H)          -3.095590000000    -1.651979000000     1.265500000000     1.007825032230
      Gh(H)          -3.189225000000    -0.757403000000     0.067002000000     1.007825032230
      Gh(O)           0.999639000000     2.617895000000     0.271985000000    15.994914619570
      Gh(H)           0.388983000000     3.122801000000     0.770979000000     1.007825032230
      Gh(H)           1.638461000000     2.439843000000     1.007245000000     1.007825032230
      Gh(O)           1.255850000000     0.564449000000     2.393699000000    15.994914619570
      Gh(H)           1.293308000000     0.072444000000     3.193687000000     1.007825032230
      Gh(H)           1.888924000000     1.216741000000     2.629633000000     1.007825032230

  Charge       = 1
  Multiplicity = 1
  Basis Set: AUG-CC-PVTZ
    Blend: AUG-CC-PVTZ
  Basis Set: (AUG-CC-PVTZ AUX)
    Blend: AUG-CC-PVTZ-JKFIT + DEF2-UNIVERSAL-JKFIT

    Orbital Energies [Eh]
    ---------------------

    Doubly Occupied:

       1A   -133.752733     2A    -14.708379     3A    -11.738441
       4A    -11.738440     5A    -11.738439     6A     -1.963961
       7A     -1.170662     8A     -1.170639     9A     -1.170633

  @DF-RHF Final Energy:  -599.01751547344907

   => Energetics <=

    Nuclear Repulsion Energy =              0.0000000000000000
    One-Electron Energy =                -819.7303798251250555
    Two-Electron Energy =                 220.7128643516760746
    Total Energy =                       -599.0175154734489524
 Dipole X            :          0.0000512            0.0000000            0.0000512
 Dipole Y            :         -0.0000863            0.0000000           -0.0000863
 Dipole Z            :          0.0001328            0.0000000            0.0001328
 Magnitude           :                                                    0.0001664
  Basis Set: (AUG-CC-PVTZ AUX)
    Blend: AUG-CC-PVTZ-RI + DEF2-QZVPP-RI
	 Reference Energy          =    -599.0175154734490661 [Eh]
	 Singles Energy            =      -0.0000000000000000 [Eh]
	 Same-Spin Energy          =      -0.0355649395600734 [Eh]
	 Opposite-Spin Energy      =      -0.0859204161346094 [Eh]
	 Correlation Energy        =      -0.1214853556946829 [Eh]
	 Total Energy              =    -599.1390008291436970 [Eh]

	 ================> DF-SCS-MP2 Energies <==================
	-----------------------------------------------------------
	 SCS Same-Spin Scale       =       0.3333333333333333 [-]
	 SCS Opposite-Spin Scale   =       1.2000000000000000 [-]
	 SCS Same-Spin Energy      =      -0.0118549798533578 [Eh]
	 SCS Opposite-Spin Energy  =      -0.1031044993615313 [Eh]
	 SCS Correlation Energy    =      -0.1149594792148891 [Eh]
	 SCS Total Energy          =    -599.1324749526639835 [Eh]
	-----------------------------------------------------------

*** Psi4 exiting successfully. Buy a developer a beer!
