                               Psi4 1.9 release

  ==> Input File <==

--------------------------------------------------------------------------
MEMORY 60 GB

molecule dimer {
1 1
K          0.000000     0.000000     0.000000
O          2.014013    -0.279703    -1.888881
H          3.005208    -0.295363    -1.835973
H          1.699269     0.613752    -2.030273
O          0.082691    -2.431143     0.831079
H         -0.605822    -3.008170     1.093025
H          0.806277    -2.617354     1.392155
O          0.852450     2.369236    -1.112997
H          0.649638     2.424980    -2.052198
H          1.809668     2.651018    -1.046812
O         -1.193213     1.995766     1.576577
H         -2.103942     1.982930     1.219885
H         -1.169090     2.215535     2.486101
O          2.364288     0.103389     1.226266
H          2.966756    -0.556210     0.863653
H          2.914997     0.928049     1.020854
O         -1.864427    -0.250800    -2.008152
H         -1.879585     0.539119    -2.581299
H         -2.686209    -0.323600    -1.550985
O         -2.311800    -0.876132     1.478322
H         -2.741898    -0.025471     1.369603
H         -2.307840    -0.999897     2.401276

units ang
no_reorient
no_com
symmetry c1
}

set {
basis        aug-cc-pVTZ
scf_type     df
}

energy("mp2")
--------------------------------------------------------------------------

    Molecular point group: c1

    Geometry (in Angstrom), charge = 1, multiplicity = 1:

       Center              X                  Y                   Z               Mass
    ------------   -----------------  -----------------  -----------------  -----------------
         K            0.000000000000     0.000000000000     0.000000000000    38.963706486400
         O            2.014013000000    -0.279703000000    -1.888881000000    15.994914619570
         H            3.005208000000    -0.295363000000    -1.835973000000     1.007825032230
         H            1.699269000000     0.613752000000    -2.030273000000     1.007825032230
         O            0.082691000000    -2.431143000000     0.831079000000    15.994914619570
         H           -0.605822000000    -3.008170000000     1.093025000000     1.007825032230
         H            0.806277000000    -2.617354000000     1.392155000000     1.007825032230
         O            0.852450000000     2.369236000000    -1.112997000000    15.994914619570
         H            0.649638000000     2.424980000000    -2.052198000000     1.007825032230
         H            1.809668000000     2.651018000000    -1.046812000000     1.007825032230
         O           -1.193213000000     1.995766000000     1.576577000000    15.994914619570
         H           -2.103942000000     1.982930000000     1.219885000000     1.007825032230
         H           -1.169090000000     2.215535000000     2.486101000000     1.007825032230
         O            2.364288000000     0.103389000000     1.226266000000    15.994914619570
         H            2.966756000000    -0.556210000000     0.863653000000     1.007825032230
         H            2.914997000000     0.928049000000     1.020854000000     1.007825032230
         O           -1.864427000000    -0.250800000000    -2.008152000000    15.994914619570
         H           -1.879585000000     0.539119000000    -2.581299000000     1.007825032230
         H           -2.686209000000    -0.323600000000    -1.550985000000     1.007825032230
         O           -2.311800000000    -0.876132000000     1.478322000000    15.994914619570
         H           -2.741898000000    -0.025471000000     1.369603000000     1.007825032230
         H           -2.307840000000    -0.999897000000     2.401276000000     1.007825032230

  Charge       = 1
  Multiplicity = 1
  Basis Set: AUG-CC-PVTZ
    Blend: AUG-CC-PVTZ
  Basis Set: (AUG-CC-PVTZ AUX)
    Blend: AUG-CC-PVTZ-JKFIT + DEF2-UNIVERSAL-JKFIT

    Orbital Energies [Eh]
    ---------------------

    Doubly Occupied:

       1A   -133.556490     2A    -20.727487     3A    -20.710768
       4A    -20.702794     5A    -20.698852     6A    -20.695986
       7A    -20.694619     8A    -20.680253     9A    -14.515306
      10A    -11.545066    11A    -11.545051    12A    -11.544969
      13A     -1.781827    14A     -1.504622    15A     -1.497054
      16A     -1.490224    17A     -1.486673    18A     -1.485658
      19A     -1.483821    20A     -1.472741    21A     -0.995400
      22A     -0.994711    23A     -0.992050    24A     -0.877397
      25A     -0.865661    26A     -0.861301    27A     -0.857309
      28A     -0.853381    29A     -0.851877    30A     -0.827867
      31A     -0.744907    32A     -0.734930    33A     -0.728204
      34A     -0.714169    35A     -0.712898    36A     -0.712140
      37A     -0.706589    38A     -0.670284    39A     -0.661178
      40A     -0.656123    41A     -0.646330    42A     -0.639809
      43A     -0.631548    44A     -0.630404

  @DF-RHF Final Energy: -1131.50468659942862

   => Energetics <=

    Nuclear Repulsion Energy =            588.0548226091490278
    One-Electron Energy =               -2722.3455478503647100
    Two-Electron Energy =                1002.7860386417868312
    Total Energy =                      -1131.5046865994286236
 Dipole X            :          0.4544085           -0.1711279            0.2832806
 Dipole Y            :        -14.6705981           16.2029313            1.5323333
 Dipole Z            :         -2.4497728            2.9606793            0.5109064
 Magnitude           :                                                    1.6399142
  Basis Set: (AUG-CC-PVTZ AUX)
    Blend: AUG-CC-PVTZ-RI + DEF2-QZVPP-RI
	 Reference Energy          =   -1131.5046865994286236 [Eh]
	 Singles Energy            =      -0.0000000000000000 [Eh]
	 Same-Spin Energy          =      -0.5309031724421998 [Eh]
	 Opposite-Spin Energy      =      -1.6211266488375076 [Eh]
	 Correlation Energy        =      -2.1520298212797071 [Eh]
	 Total Energy              =   -1133.6567164207083351 [Eh]

	 ================> DF-SCS-MP2 Energies <==================
	-----------------------------------------------------------
	 SCS Same-Spin Scale       =       0.3333333333333333 [-]
	 SCS Opposite-Spin Scale   =       1.2000000000000000 [-]
	 SCS Same-Spin Energy      =      -0.1769677241473999 [Eh]
	 SCS Opposite-Spin Energy  =      -1.9453519786050091 [Eh]
	 SCS Correlation Energy    =      -2.1223197027524092 [Eh]
	 SCS Total Energy          =   -1133.6270063021811438 [Eh]
	-----------------------------------------------------------

*** Psi4 exiting successfully. Buy a developer a beer!
