                               Psi4 1.9 release

  ==> Input File <==

--------------------------------------------------------------------------
MEMORY 60 GB

molecule dimer {
0 1
Gh(K)      0.000000     0.000000     0.000000
Gh(O)     -0.173319    -2.840391     0.867645
Gh(H)      0.361358    -3.018681     0.103750
Gh(H)      0.418315    -2.846524     1.610566
O          2.897650    -0.409254     0.514190
H          3.425469    -0.973584     1.091300
H          3.301664     0.485390     0.727381
Gh(O)      0.932781     1.909151    -1.488458
Gh(H)      0.748588     2.219972    -2.358054
Gh(H)      1.394457     2.688798    -1.067496
Gh(O)      0.561714     0.650297     2.488368
Gh(H)      1.438825     0.343526     2.322741
Gh(H)     -0.011650    -0.078291     2.840390
Gh(O)     -1.989521     1.668299     0.915195
Gh(H)     -1.899444     2.314467     1.611632
Gh(H)     -2.406715     2.104578     0.181580
Gh(O)     -0.629671    -1.110605    -2.391014
Gh(H)     -0.994888    -2.016476    -2.229954
Gh(H)      0.034334    -1.219319    -3.116133

units ang
no_reorient
no_com
symmetry c1
}

set {
basis        aug-cc-pVTZ
scf_type     df
}

energy("mp2")
--------------------------------------------------------------------------

    Molecular point group: c1

    Geometry (in Angstrom), charge = 0, multiplicity = 1:

       Center              X                  Y                   Z               Mass
    ------------   -----------------  -----------------  -----------------  -----------------
      Gh(K)           0.000000000000     0.000000000000     0.000000000000    38.963706486400
      Gh(O)          -0.173319000000    -2.840391000000     0.867645000000    15.994914619570
      Gh(H)           0.361358000000    -3.018681000000     0.103750000000     1.007825032230
      Gh(H)           0.418315000000    -2.846524000000     1.610566000000     1.007825032230
         O            2.897650000000    -0.409254000000     0.514190000000    15.994914619570
         H            3.425469000000    -0.973584000000     1.091300000000     1.007825032230
         H            3.301664000000     0.485390000000     0.727381000000     1.007825032230
      Gh(O)           0.932781000000     1.909151000000    -1.488458000000    15.994914619570
      Gh(H)           0.748588000000     2.219972000000    -2.358054000000     1.007825032230
      Gh(H)           1.394457000000     2.688798000000    -1.067496000000     1.007825032230
      Gh(O)           0.561714000000     0.650297000000     2.488368000000    15.994914619570
      Gh(H)           1.438825000000     0.343526000000     2.322741000000     1.007825032230
      Gh(H)          -0.011650000000    -0.078291000000     2.840390000000     1.007825032230
      Gh(O)          -1.989521000000     1.668299000000     0.915195000000    15.994914619570
      Gh(H)          -1.899444000000     2.314467000000     1.611632000000     1.007825032230
      Gh(H)          -2.406715000000     2.104578000000     0.181580000000     1.007825032230
      Gh(O)          -0.629671000000    -1.110605000000    -2.391014000000    15.994914619570
      Gh(H)          -0.994888000000    -2.016476000000    -2.229954000000     1.007825032230
      Gh(H)           0.034334000000    -1.219319000000    -3.116133000000     1.007825032230

  Charge       = 0
  Multiplicity = 1
  Basis Set: AUG-CC-PVTZ
    Blend: AUG-CC-PVTZ
  Basis Set: (AUG-CC-PVTZ AUX)
    Blend: AUG-CC-PVTZ-JKFIT + DEF2-UNIVERSAL-JKFIT

    Orbital Energies [Eh]
    ---------------------

    Doubly Occupied:

       1A    -20.573644     2A     -1.343349     3A     -0.694737
       4A     -0.588157     5A     -0.509552

  @DF-RHF Final Energy:   -76.05629993275204

   => Energetics <=

    Nuclear Repulsion Energy =              8.9546665031073420
    One-Electron Energy =                -122.6030512081000836
    Two-Electron Energy =                  37.5920847722406961
    Total Energy =                        -76.0562999327520401
 Dipole X            :        -55.9159316           56.5185582            0.6026266
 Dipole Y            :          7.3153239           -7.1095768            0.2057472
 Dipole Z            :        -10.6981483           11.2102352            0.5120869
 Magnitude           :                                                    0.8171436
  Basis Set: (AUG-CC-PVTZ AUX)
    Blend: AUG-CC-PVTZ-RI + DEF2-QZVPP-RI
	 Reference Energy          =     -76.0562999327520401 [Eh]
	 Singles Energy            =      -0.0000000000000000 [Eh]
	 Same-Spin Energy          =      -0.0689916532166380 [Eh]
	 Opposite-Spin Energy      =      -0.2175089421762917 [Eh]
	 Correlation Energy        =      -0.2865005953929297 [Eh]
	 Total Energy              =     -76.3428005281449629 [Eh]

	 ================> DF-SCS-MP2 Energies <==================
	-----------------------------------------------------------
	 SCS Same-Spin Scale       =       0.3333333333333333 [-]
	 SCS Opposite-Spin Scale   =       1.2000000000000000 [-]
	 SCS Same-Spin Energy      =      -0.0229972177388793 [Eh]
	 SCS Opposite-Spin Energy  =      -0.2610107306115501 [Eh]
	 SCS Correlation Energy    =      -0.2840079483504294 [Eh]
	 SCS Total Energy          =     -76.3403078811024756 [Eh]
	-----------------------------------------------------------

*** Psi4 exiting successfully. Buy a developer a beer!
