                               Psi4 1.9 release

  ==> Input File <==

--------------------------------------------------------------------------
MEMORY 60 GB

molecule dimer {
1 1
K          0.000000     0.000000     0.000000
Gh(O)     -1.653313    -1.051616     1.936869
Gh(H)     -2.526557    -0.873487     1.449054
Gh(H)     -1.779450    -0.761161     2.807517
Gh(O)     -2.044736    -1.095313    -1.390693
Gh(H)     -2.246528    -2.079962    -1.231368
Gh(H)     -2.476560    -0.777780    -2.210273
Gh(O)     -0.390290     2.428068    -1.109074
Gh(H)     -0.638411     2.714222    -0.228935
Gh(H)     -0.928560     2.744767    -1.830555
Gh(O)      2.661841    -0.753804    -0.332134
Gh(H)      2.712180    -1.521938    -0.975578
Gh(H)      3.496474    -0.827065     0.075169
Gh(O)      0.849537     0.318983     2.782234
Gh(H)      0.338813    -0.012639     3.567669
Gh(H)      0.431354     1.159593     2.522927
Gh(O)      0.745160    -1.502289    -2.481552
Gh(H)      1.369940    -1.936199    -3.034574
Gh(H)      0.164672    -2.234902    -2.237506

units ang
no_reorient
no_com
symmetry c1
}

set {
basis        aug-cc-pVTZ
scf_type     df
}

energy("mp2")
--------------------------------------------------------------------------

    Molecular point group: c1

    Geometry (in Angstrom), charge = 1, multiplicity = 1:

       Center              X                  Y                   Z               Mass
    ------------   -----------------  -----------------  -----------------  -----------------
         K            0.000000000000     0.000000000000     0.000000000000    38.963706486400
      Gh(O)          -1.653313000000    -1.051616000000     1.936869000000    15.994914619570
      Gh(H)          -2.526557000000    -0.873487000000     1.449054000000     1.007825032230
      Gh(H)          -1.779450000000    -0.761161000000     2.807517000000     1.007825032230
      Gh(O)          -2.044736000000    -1.095313000000    -1.390693000000    15.994914619570
      Gh(H)          -2.246528000000    -2.079962000000    -1.231368000000     1.007825032230
      Gh(H)          -2.476560000000    -0.777780000000    -2.210273000000     1.007825032230
      Gh(O)          -0.390290000000     2.428068000000    -1.109074000000    15.994914619570
      Gh(H)          -0.638411000000     2.714222000000    -0.228935000000     1.007825032230
      Gh(H)          -0.928560000000     2.744767000000    -1.830555000000     1.007825032230
      Gh(O)           2.661841000000    -0.753804000000    -0.332134000000    15.994914619570
      Gh(H)           2.712180000000    -1.521938000000    -0.975578000000     1.007825032230
      Gh(H)           3.496474000000    -0.827065000000     0.075169000000     1.007825032230
      Gh(O)           0.849537000000     0.318983000000     2.782234000000    15.994914619570
      Gh(H)           0.338813000000    -0.012639000000     3.567669000000     1.007825032230
      Gh(H)           0.431354000000     1.159593000000     2.522927000000     1.007825032230
      Gh(O)           0.745160000000    -1.502289000000    -2.481552000000    15.994914619570
      Gh(H)           1.369940000000    -1.936199000000    -3.034574000000     1.007825032230
      Gh(H)           0.164672000000    -2.234902000000    -2.237506000000     1.007825032230

  Charge       = 1
  Multiplicity = 1
  Basis Set: AUG-CC-PVTZ
    Blend: AUG-CC-PVTZ
  Basis Set: (AUG-CC-PVTZ AUX)
    Blend: AUG-CC-PVTZ-JKFIT + DEF2-UNIVERSAL-JKFIT

    Orbital Energies [Eh]
    ---------------------

    Doubly Occupied:

       1A   -133.752510     2A    -14.708206     3A    -11.738267
       4A    -11.738265     5A    -11.738264     6A     -1.963884
       7A     -1.170595     8A     -1.170586     9A     -1.170577

  @DF-RHF Final Energy:  -599.01751692969003

   => Energetics <=

    Nuclear Repulsion Energy =              0.0000000000000000
    One-Electron Energy =                -819.7327267466304193
    Two-Electron Energy =                 220.7152098169403587
    Total Energy =                       -599.0175169296900322
 Dipole X            :         -0.0000698            0.0000000           -0.0000698
 Dipole Y            :         -0.0000665            0.0000000           -0.0000665
 Dipole Z            :         -0.0000301            0.0000000           -0.0000301
 Magnitude           :                                                    0.0001010
  Basis Set: (AUG-CC-PVTZ AUX)
    Blend: AUG-CC-PVTZ-RI + DEF2-QZVPP-RI
	 Reference Energy          =    -599.0175169296900322 [Eh]
	 Singles Energy            =      -0.0000000000000000 [Eh]
	 Same-Spin Energy          =      -0.0383032792382533 [Eh]
	 Opposite-Spin Energy      =      -0.0936639059299729 [Eh]
	 Correlation Energy        =      -0.1319671851682263 [Eh]
	 Total Energy              =    -599.1494841148582964 [Eh]

	 ================> DF-SCS-MP2 Energies <==================
	-----------------------------------------------------------
	 SCS Same-Spin Scale       =       0.3333333333333333 [-]
	 SCS Opposite-Spin Scale   =       1.2000000000000000 [-]
	 SCS Same-Spin Energy      =      -0.0127677597460844 [Eh]
	 SCS Opposite-Spin Energy  =      -0.1123966871159675 [Eh]
	 SCS Correlation Energy    =      -0.1251644468620520 [Eh]
	 SCS Total Energy          =    -599.1426813765521047 [Eh]
	-----------------------------------------------------------

*** Psi4 exiting successfully. Buy a developer a beer!
