                               Psi4 1.9 release

  ==> Input File <==

--------------------------------------------------------------------------
MEMORY 60 GB

molecule dimer {
0 1
Gh(K)      0.000000     0.000000     0.000000
Gh(O)      1.994248    -0.017398     1.891531
Gh(H)      1.707381    -0.444684     2.688689
Gh(H)      2.464755     0.808222     2.122342
O         -0.735496     2.189679     1.691371
H         -0.954476     2.443049     2.639599
H         -0.466618     3.047346     1.358724
Gh(O)      1.549750     2.058046    -0.852344
Gh(H)      1.913323     2.259444    -1.747396
Gh(H)      2.335189     2.116884    -0.306564
Gh(O)     -1.132510     0.224565    -2.466410
Gh(H)     -0.537321     0.540552    -3.138504
Gh(H)     -1.916525     0.761111    -2.341546
Gh(O)      1.250518    -2.229136    -0.395405
Gh(H)      1.391367    -3.033811    -0.861489
Gh(H)      1.939666    -2.169610     0.267770

units ang
no_reorient
no_com
symmetry c1
}

set {
basis        aug-cc-pVTZ
scf_type     df
}

energy("mp2")
--------------------------------------------------------------------------

    Molecular point group: c1

    Geometry (in Angstrom), charge = 0, multiplicity = 1:

       Center              X                  Y                   Z               Mass
    ------------   -----------------  -----------------  -----------------  -----------------
      Gh(K)           0.000000000000     0.000000000000     0.000000000000    38.963706486400
      Gh(O)           1.994248000000    -0.017398000000     1.891531000000    15.994914619570
      Gh(H)           1.707381000000    -0.444684000000     2.688689000000     1.007825032230
      Gh(H)           2.464755000000     0.808222000000     2.122342000000     1.007825032230
         O           -0.735496000000     2.189679000000     1.691371000000    15.994914619570
         H           -0.954476000000     2.443049000000     2.639599000000     1.007825032230
         H           -0.466618000000     3.047346000000     1.358724000000     1.007825032230
      Gh(O)           1.549750000000     2.058046000000    -0.852344000000    15.994914619570
      Gh(H)           1.913323000000     2.259444000000    -1.747396000000     1.007825032230
      Gh(H)           2.335189000000     2.116884000000    -0.306564000000     1.007825032230
      Gh(O)          -1.132510000000     0.224565000000    -2.466410000000    15.994914619570
      Gh(H)          -0.537321000000     0.540552000000    -3.138504000000     1.007825032230
      Gh(H)          -1.916525000000     0.761111000000    -2.341546000000     1.007825032230
      Gh(O)           1.250518000000    -2.229136000000    -0.395405000000    15.994914619570
      Gh(H)           1.391367000000    -3.033811000000    -0.861489000000     1.007825032230
      Gh(H)           1.939666000000    -2.169610000000     0.267770000000     1.007825032230

  Charge       = 0
  Multiplicity = 1
  Basis Set: AUG-CC-PVTZ
    Blend: AUG-CC-PVTZ
  Basis Set: (AUG-CC-PVTZ AUX)
    Blend: AUG-CC-PVTZ-JKFIT + DEF2-UNIVERSAL-JKFIT

    Orbital Energies [Eh]
    ---------------------

    Doubly Occupied:

       1A    -20.573547     2A     -1.345214     3A     -0.694850
       4A     -0.589882     5A     -0.509938

  @DF-RHF Final Energy:   -76.05616534329044

   => Energetics <=

    Nuclear Repulsion Energy =              8.9801455861610133
    One-Electron Energy =                -122.6457573670346335
    Two-Electron Energy =                  37.6094464375831734
    Total Energy =                        -76.0561653432904450
 Dipole X            :         13.8396087          -13.8045665            0.0350422
 Dipole Y            :        -42.7569661           43.4784918            0.7215257
 Dipole Z            :        -32.7359624           33.1255592            0.3895968
 Magnitude           :                                                    0.8207393
  Basis Set: (AUG-CC-PVTZ AUX)
    Blend: AUG-CC-PVTZ-RI + DEF2-QZVPP-RI
	 Reference Energy          =     -76.0561653432904450 [Eh]
	 Singles Energy            =      -0.0000000000000000 [Eh]
	 Same-Spin Energy          =      -0.0689391566899421 [Eh]
	 Opposite-Spin Energy      =      -0.2172056848646703 [Eh]
	 Correlation Energy        =      -0.2861448415546123 [Eh]
	 Total Energy              =     -76.3423101848450614 [Eh]

	 ================> DF-SCS-MP2 Energies <==================
	-----------------------------------------------------------
	 SCS Same-Spin Scale       =       0.3333333333333333 [-]
	 SCS Opposite-Spin Scale   =       1.2000000000000000 [-]
	 SCS Same-Spin Energy      =      -0.0229797188966474 [Eh]
	 SCS Opposite-Spin Energy  =      -0.2606468218376043 [Eh]
	 SCS Correlation Energy    =      -0.2836265407342516 [Eh]
	 SCS Total Energy          =     -76.3397918840246916 [Eh]
	-----------------------------------------------------------

*** Psi4 exiting successfully. Buy a developer a beer!
