                               Psi4 1.9 release

  ==> Input File <==

--------------------------------------------------------------------------
MEMORY 60 GB

molecule dimer {
1 1
K      0.000000     0.000000     0.000000
--
0 1
O     -0.158022     2.608578     1.147004
H      0.778541     2.831193     1.130168
H     -0.228366     2.308447     2.057572
O     -1.767346    -2.230905    -0.785771
H     -2.087801    -2.169927    -1.696826
H     -2.527003    -2.096316    -0.221399
O      1.439540    -2.376480     1.228611
H      1.067889    -2.424152     2.106189
H      1.986049    -1.618527     1.188671
O     -1.986305     0.233870     1.438597
H     -1.622188     0.473677     2.306353
H     -2.457775    -0.572894     1.536495
O      2.680467     0.114131     1.167824
H      3.575436    -0.195890     1.157789
H      2.770527     1.065655     1.118983
O      1.234135    -0.006082    -2.458831
H      1.742476     0.690149    -2.804107
H      0.474861     0.027884    -3.034969

units ang
no_reorient
no_com
symmetry c1
}

set {
basis        aug-cc-pVTZ
scf_type     df
}

energy("mp2", bsse_type="cp")
--------------------------------------------------------------------------

                               Psi4 1.9 release
    Molecular point group: c1
  Charge       = 0
  Multiplicity = 1
  Basis Set: AUG-CC-PVTZ
    Blend: AUG-CC-PVTZ
  Basis Set: (AUG-CC-PVTZ AUX)
    Blend: AUG-CC-PVTZ-JKFIT + DEF2-UNIVERSAL-JKFIT
  @DF-RHF Final Energy:  -456.34100291127538
    Total Energy =                       -456.3410029112753818
 Dipole X            :        -27.9199998           28.3693207            0.4493209
 Dipole Y            :         29.4567006          -28.2245809            1.2321197
 Dipole Z            :        -34.6754820           35.4217654            0.7462834
 Magnitude           :                                                    1.5089557
  Basis Set: (AUG-CC-PVTZ AUX)
    Blend: AUG-CC-PVTZ-RI + DEF2-QZVPP-RI
	 Reference Energy          =    -456.3410029112753818 [Eh]
	 Singles Energy            =      -0.0000000000000000 [Eh]
	 Same-Spin Energy          =      -0.4136767642197713 [Eh]
	 Opposite-Spin Energy      =      -1.2976089876018242 [Eh]
	 Correlation Energy        =      -1.7112857518215956 [Eh]
	 Total Energy              =    -458.0522886630969879 [Eh]
	 SCS Total Energy          =    -458.0360259511375034 [Eh]
                               Psi4 1.9 release
    Molecular point group: c1
  Multiplicity = 1
  Basis Set: AUG-CC-PVTZ
    Blend: AUG-CC-PVTZ
  Basis Set: (AUG-CC-PVTZ AUX)
    Blend: AUG-CC-PVTZ-JKFIT + DEF2-UNIVERSAL-JKFIT
  @DF-RHF Final Energy:  -599.01751686448233
    Total Energy =                       -599.0175168644823316
  Basis Set: (AUG-CC-PVTZ AUX)
	 Singles Energy            =      -0.0000000000000000 [Eh]
	 Same-Spin Energy          =      -0.0383859334690232 [Eh]
	 Opposite-Spin Energy      =      -0.0939409567576282 [Eh]
	 Correlation Energy        =      -0.1323268902266514 [Eh]
	 Total Energy              =    -599.1498437547089679 [Eh]
	 SCS Total Energy          =    -599.1430413237478660 [Eh]
                               Psi4 1.9 release
    Molecular point group: c1

    Geometry (in Bohr), charge = 1, multiplicity = 1:

       Center              X                  Y                   Z               Mass
    ------------   -----------------  -----------------  -----------------  -----------------
         K            0.000000000000     0.000000000000     0.000000000000    38.963706486400
         O           -0.298618301797     4.929497996895     2.167523424805    15.994914619570
         H            1.471229267440     5.350179378313     2.135707995756     1.007825032230
         H           -0.431549196366     4.362332605135     3.888247563411     1.007825032230
         O           -3.339799908923    -4.215799461914    -1.484891987327    15.994914619570
         H           -3.945372094457    -4.100567742236    -3.206536422556     1.007825032230
         H           -4.775343588210    -3.961463112415    -0.418383474450     1.007825032230
         O            2.720336346642    -4.490896342628     2.321738304725    15.994914619570
         H            2.018017742389    -4.580983366481     3.980120378452     1.007825032230
         H            3.753088681739    -3.058572756659     2.246262643274     1.007825032230
         O           -3.753572451628     0.441950248961     2.718554334905    15.994914619570
         H           -3.065491044004     0.895119801928     4.358375518628     1.007825032230
         H           -4.644521627997    -1.082612758918     2.903554743135     1.007825032230
         O            5.065348518328     0.215676332425     2.206867522737    15.994914619570
         H            6.756594819102    -0.370178450716     2.187904121068     1.007825032230
         H            5.235537253186     2.013796094225     2.114571409043     1.007825032230
         O            2.332177151842    -0.011493314295    -4.646517178786    15.994914619570
         H            3.292802420183     1.304192595759    -5.298994256479     1.007825032230
         H            0.897357237661     0.052693123282    -5.735260209255     1.007825032230

  Charge       = 1
  Multiplicity = 1
  Basis Set: AUG-CC-PVTZ
    Blend: AUG-CC-PVTZ
  Basis Set: (AUG-CC-PVTZ AUX)
    Blend: AUG-CC-PVTZ-JKFIT + DEF2-UNIVERSAL-JKFIT

    Orbital Energies [Eh]
    ---------------------

    Doubly Occupied:

       1A   -133.603708     2A    -20.736863     3A    -20.729135
       4A    -20.727836     5A    -20.710372     6A    -20.703692
       7A    -20.670363     8A    -14.562029     9A    -11.591900
      10A    -11.591790    11A    -11.591695    12A     -1.826710
      13A     -1.533252    14A     -1.524849    15A     -1.514612
      16A     -1.512474    17A     -1.488206    18A     -1.468880
      19A     -1.039131    20A     -1.038081    21A     -1.034592
      22A     -0.899211    23A     -0.897957    24A     -0.865064
      25A     -0.861495    26A     -0.855731    27A     -0.847807
      28A     -0.768815    29A     -0.757246    30A     -0.748639
      31A     -0.744858    32A     -0.719995    33A     -0.689760
      34A     -0.683114    35A     -0.681694    36A     -0.672197
      37A     -0.661651    38A     -0.648945    39A     -0.622184

  @DF-RHF Final Energy: -1055.44036240885566

   => Energetics <=

    Nuclear Repulsion Energy =            455.2653645482321849
    One-Electron Energy =               -2351.7583765409399348
    Two-Electron Energy =                 841.0526495838522578
    Total Energy =                      -1055.4403624088554352
 Dipole X            :        -27.8968533           28.3693207            0.4724674
 Dipole Y            :         29.3565487          -28.2245809            1.1319678
 Dipole Z            :        -34.5256151           35.4217654            0.8961503
 Magnitude           :                                                    1.5190990
  Basis Set: (AUG-CC-PVTZ AUX)
    Blend: AUG-CC-PVTZ-RI + DEF2-QZVPP-RI
	 Reference Energy          =   -1055.4403624088556626 [Eh]
	 Singles Energy            =      -0.0000000000000000 [Eh]
	 Same-Spin Energy          =      -0.4563382106056793 [Eh]
	 Opposite-Spin Energy      =      -1.3925990911284676 [Eh]
	 Correlation Energy        =      -1.8489373017341468 [Eh]
	 Total Energy              =   -1057.2892997105898303 [Eh]

	 ================> DF-SCS-MP2 Energies <==================
	-----------------------------------------------------------
	 SCS Same-Spin Scale       =       0.3333333333333333 [-]
	 SCS Opposite-Spin Scale   =       1.2000000000000000 [-]
	 SCS Same-Spin Energy      =      -0.1521127368685598 [Eh]
	 SCS Opposite-Spin Energy  =      -1.6711189093541610 [Eh]
	 SCS Correlation Energy    =      -1.8232316462227207 [Eh]
	 SCS Total Energy          =   -1057.2635940550783289 [Eh]
	-----------------------------------------------------------

*** Psi4 exiting successfully. Buy a developer a beer!
