                               Psi4 1.9 release

  ==> Input File <==

--------------------------------------------------------------------------
MEMORY 60 GB

molecule dimer {
0 1
Gh(K)      0.000000     0.000000     0.000000
Gh(O)     -0.347802    -2.893565    -0.197304
Gh(H)     -0.264219    -2.627410    -1.107839
Gh(H)     -1.076793    -3.520369    -0.191568
Gh(O)      0.677953     2.028113    -2.098824
Gh(H)      1.086568     2.053260    -2.956022
Gh(H)     -0.287647     1.928353    -2.270876
Gh(O)      0.133021    -0.422807     2.580598
Gh(H)      0.877410    -0.317211     3.203899
Gh(H)     -0.629250     0.024130     3.083095
O         -2.438966     0.372415     0.851527
H         -2.595398     1.157685     1.350948
H         -3.271474     0.106554     0.425933
Gh(O)     -2.066921     1.281430    -1.668738
Gh(H)     -2.570671     0.992410    -2.390640
Gh(H)     -2.616813     1.957975    -1.327306
Gh(O)      0.369724    -1.327390    -2.368648
Gh(H)     -0.386802    -1.039991    -2.929204
Gh(H)      1.195348    -0.840736    -2.656566

units ang
no_reorient
no_com
symmetry c1
}

set {
basis        aug-cc-pVTZ
scf_type     df
}

energy("mp2")
--------------------------------------------------------------------------

    Molecular point group: c1

    Geometry (in Angstrom), charge = 0, multiplicity = 1:

       Center              X                  Y                   Z               Mass
    ------------   -----------------  -----------------  -----------------  -----------------
      Gh(K)           0.000000000000     0.000000000000     0.000000000000    38.963706486400
      Gh(O)          -0.347802000000    -2.893565000000    -0.197304000000    15.994914619570
      Gh(H)          -0.264219000000    -2.627410000000    -1.107839000000     1.007825032230
      Gh(H)          -1.076793000000    -3.520369000000    -0.191568000000     1.007825032230
      Gh(O)           0.677953000000     2.028113000000    -2.098824000000    15.994914619570
      Gh(H)           1.086568000000     2.053260000000    -2.956022000000     1.007825032230
      Gh(H)          -0.287647000000     1.928353000000    -2.270876000000     1.007825032230
      Gh(O)           0.133021000000    -0.422807000000     2.580598000000    15.994914619570
      Gh(H)           0.877410000000    -0.317211000000     3.203899000000     1.007825032230
      Gh(H)          -0.629250000000     0.024130000000     3.083095000000     1.007825032230
         O           -2.438966000000     0.372415000000     0.851527000000    15.994914619570
         H           -2.595398000000     1.157685000000     1.350948000000     1.007825032230
         H           -3.271474000000     0.106554000000     0.425933000000     1.007825032230
      Gh(O)          -2.066921000000     1.281430000000    -1.668738000000    15.994914619570
      Gh(H)          -2.570671000000     0.992410000000    -2.390640000000     1.007825032230
      Gh(H)          -2.616813000000     1.957975000000    -1.327306000000     1.007825032230
      Gh(O)           0.369724000000    -1.327390000000    -2.368648000000    15.994914619570
      Gh(H)          -0.386802000000    -1.039991000000    -2.929204000000     1.007825032230
      Gh(H)           1.195348000000    -0.840736000000    -2.656566000000     1.007825032230

  Charge       = 0
  Multiplicity = 1
  Basis Set: AUG-CC-PVTZ
    Blend: AUG-CC-PVTZ
  Basis Set: (AUG-CC-PVTZ AUX)
    Blend: AUG-CC-PVTZ-JKFIT + DEF2-UNIVERSAL-JKFIT

    Orbital Energies [Eh]
    ---------------------

    Doubly Occupied:

       1A    -20.565288     2A     -1.350551     3A     -0.724990
       4A     -0.576912     5A     -0.509111

  @DF-RHF Final Energy:   -76.06011595175687

   => Energetics <=

    Nuclear Repulsion Energy =              9.1815284280217284
    One-Electron Energy =                -123.0295822745935510
    Two-Electron Energy =                  37.7879378948149451
    Total Energy =                        -76.0601159517568703
 Dipole X            :         47.2947733          -47.9586034           -0.6638302
 Dipole Y            :         -7.6667684            8.0191643            0.3523959
 Dipole Z            :        -16.1785255           16.2310410            0.0525155
 Magnitude           :                                                    0.7533998
  Basis Set: (AUG-CC-PVTZ AUX)
    Blend: AUG-CC-PVTZ-RI + DEF2-QZVPP-RI
	 Reference Energy          =     -76.0601159517568703 [Eh]
	 Singles Energy            =      -0.0000000000000000 [Eh]
	 Same-Spin Energy          =      -0.0683638636557826 [Eh]
	 Opposite-Spin Energy      =      -0.2156217524669812 [Eh]
	 Correlation Energy        =      -0.2839856161227638 [Eh]
	 Total Energy              =     -76.3441015678796333 [Eh]

	 ================> DF-SCS-MP2 Energies <==================
	-----------------------------------------------------------
	 SCS Same-Spin Scale       =       0.3333333333333333 [-]
	 SCS Opposite-Spin Scale   =       1.2000000000000000 [-]
	 SCS Same-Spin Energy      =      -0.0227879545519275 [Eh]
	 SCS Opposite-Spin Energy  =      -0.2587461029603774 [Eh]
	 SCS Correlation Energy    =      -0.2815340575123050 [Eh]
	 SCS Total Energy          =     -76.3416500092691734 [Eh]
	-----------------------------------------------------------

*** Psi4 exiting successfully. Buy a developer a beer!
