                               Psi4 1.9 release

  ==> Input File <==

--------------------------------------------------------------------------
MEMORY 60 GB

molecule dimer {
1 1
K          0.000000     0.000000     0.000000
O          1.994248    -0.017398     1.891531
H          1.707381    -0.444684     2.688689
H          2.464755     0.808222     2.122342
O         -0.735496     2.189679     1.691371
H         -0.954476     2.443049     2.639599
H         -0.466618     3.047346     1.358724
O          1.549750     2.058046    -0.852344
H          1.913323     2.259444    -1.747396
H          2.335189     2.116884    -0.306564
O         -1.132510     0.224565    -2.466410
H         -0.537321     0.540552    -3.138504
H         -1.916525     0.761111    -2.341546
O          1.250518    -2.229136    -0.395405
H          1.391367    -3.033811    -0.861489
H          1.939666    -2.169610     0.267770

units ang
no_reorient
no_com
symmetry c1
}

set {
basis        aug-cc-pVTZ
scf_type     df
}

energy("mp2")
--------------------------------------------------------------------------

    Molecular point group: c1

    Geometry (in Angstrom), charge = 1, multiplicity = 1:

       Center              X                  Y                   Z               Mass
    ------------   -----------------  -----------------  -----------------  -----------------
         K            0.000000000000     0.000000000000     0.000000000000    38.963706486400
         O            1.994248000000    -0.017398000000     1.891531000000    15.994914619570
         H            1.707381000000    -0.444684000000     2.688689000000     1.007825032230
         H            2.464755000000     0.808222000000     2.122342000000     1.007825032230
         O           -0.735496000000     2.189679000000     1.691371000000    15.994914619570
         H           -0.954476000000     2.443049000000     2.639599000000     1.007825032230
         H           -0.466618000000     3.047346000000     1.358724000000     1.007825032230
         O            1.549750000000     2.058046000000    -0.852344000000    15.994914619570
         H            1.913323000000     2.259444000000    -1.747396000000     1.007825032230
         H            2.335189000000     2.116884000000    -0.306564000000     1.007825032230
         O           -1.132510000000     0.224565000000    -2.466410000000    15.994914619570
         H           -0.537321000000     0.540552000000    -3.138504000000     1.007825032230
         H           -1.916525000000     0.761111000000    -2.341546000000     1.007825032230
         O            1.250518000000    -2.229136000000    -0.395405000000    15.994914619570
         H            1.391367000000    -3.033811000000    -0.861489000000     1.007825032230
         H            1.939666000000    -2.169610000000     0.267770000000     1.007825032230

  Charge       = 1
  Multiplicity = 1
  Basis Set: AUG-CC-PVTZ
    Blend: AUG-CC-PVTZ
  Basis Set: (AUG-CC-PVTZ AUX)
    Blend: AUG-CC-PVTZ-JKFIT + DEF2-UNIVERSAL-JKFIT

    Orbital Energies [Eh]
    ---------------------

    Doubly Occupied:

       1A   -133.589815     2A    -20.719827     3A    -20.718339
       4A    -20.708984     5A    -20.700860     6A    -20.698367
       7A    -14.547936     8A    -11.577822     9A    -11.577731
      10A    -11.577648    11A     -1.811825    12A     -1.503703
      13A     -1.500385    14A     -1.496377    15A     -1.487391
      16A     -1.483263    17A     -1.023648    18A     -1.022989
      19A     -1.020734    20A     -0.879058    21A     -0.875628
      22A     -0.865094    23A     -0.854925    24A     -0.831997
      25A     -0.745652    26A     -0.736598    27A     -0.736001
      28A     -0.727918    29A     -0.709025    30A     -0.667854
      31A     -0.664124    32A     -0.651833    33A     -0.648646
      34A     -0.647370

  @DF-RHF Final Energy:  -979.40089506339268

   => Energetics <=

    Nuclear Repulsion Energy =            353.1391342422043635
    One-Electron Energy =               -2045.0613270373046362
    Two-Electron Energy =                 712.5212977317075911
    Total Energy =                       -979.4008950633926815
 Dipole X            :        -57.5401121           59.1273025            1.5871904
 Dipole Y            :        -44.2091917           45.6076916            1.3984999
 Dipole Z            :          1.2761319           -0.6962337            0.5798982
 Magnitude           :                                                    2.1934578
  Basis Set: (AUG-CC-PVTZ AUX)
    Blend: AUG-CC-PVTZ-RI + DEF2-QZVPP-RI
	 Reference Energy          =    -979.4008950633926815 [Eh]
	 Singles Energy            =      -0.0000000000000000 [Eh]
	 Same-Spin Energy          =      -0.3851387114061069 [Eh]
	 Opposite-Spin Energy      =      -1.1724665206330185 [Eh]
	 Correlation Energy        =      -1.5576052320391254 [Eh]
	 Total Energy              =    -980.9585002954318043 [Eh]

	 ================> DF-SCS-MP2 Energies <==================
	-----------------------------------------------------------
	 SCS Same-Spin Scale       =       0.3333333333333333 [-]
	 SCS Opposite-Spin Scale   =       1.2000000000000000 [-]
	 SCS Same-Spin Energy      =      -0.1283795704687023 [Eh]
	 SCS Opposite-Spin Energy  =      -1.4069598247596222 [Eh]
	 SCS Correlation Energy    =      -1.5353393952283245 [Eh]
	 SCS Total Energy          =    -980.9362344586210156 [Eh]
	-----------------------------------------------------------

*** Psi4 exiting successfully. Buy a developer a beer!
