                               Psi4 1.9 release

  ==> Input File <==

--------------------------------------------------------------------------
MEMORY 60 GB

molecule dimer {
1 1
K          0.000000     0.000000     0.000000
O          0.193604     2.456516    -0.745826
H          1.027191     2.951756    -0.793227
H         -0.562560     3.072946    -0.858144
O         -1.232242    -2.233013     0.683210
H         -1.372938    -2.937211    -0.025695
H         -1.366802    -2.615033     1.557785
O          2.594873     0.295506     0.744422
H          2.858332     1.115974     1.121168
H          3.402181    -0.102967     0.308189
O          0.305749    -1.494227    -2.346204
H         -0.487855    -1.900339    -2.732699
H          0.656706    -2.159673    -1.779934
O          0.354684     0.631866     2.696786
H          0.743905     1.438358     3.041235
H          0.890030    -0.053433     3.042617
O         -2.758490     0.097649    -0.258778
H         -3.113201     0.864523    -0.650413
H         -2.526952     0.402207     0.644990

units ang
no_reorient
no_com
symmetry c1
}

set {
basis        aug-cc-pVTZ
scf_type     df
}

energy("mp2")
--------------------------------------------------------------------------

    Molecular point group: c1

    Geometry (in Angstrom), charge = 1, multiplicity = 1:

       Center              X                  Y                   Z               Mass
    ------------   -----------------  -----------------  -----------------  -----------------
         K            0.000000000000     0.000000000000     0.000000000000    38.963706486400
         O            0.193604000000     2.456516000000    -0.745826000000    15.994914619570
         H            1.027191000000     2.951756000000    -0.793227000000     1.007825032230
         H           -0.562560000000     3.072946000000    -0.858144000000     1.007825032230
         O           -1.232242000000    -2.233013000000     0.683210000000    15.994914619570
         H           -1.372938000000    -2.937211000000    -0.025695000000     1.007825032230
         H           -1.366802000000    -2.615033000000     1.557785000000     1.007825032230
         O            2.594873000000     0.295506000000     0.744422000000    15.994914619570
         H            2.858332000000     1.115974000000     1.121168000000     1.007825032230
         H            3.402181000000    -0.102967000000     0.308189000000     1.007825032230
         O            0.305749000000    -1.494227000000    -2.346204000000    15.994914619570
         H           -0.487855000000    -1.900339000000    -2.732699000000     1.007825032230
         H            0.656706000000    -2.159673000000    -1.779934000000     1.007825032230
         O            0.354684000000     0.631866000000     2.696786000000    15.994914619570
         H            0.743905000000     1.438358000000     3.041235000000     1.007825032230
         H            0.890030000000    -0.053433000000     3.042617000000     1.007825032230
         O           -2.758490000000     0.097649000000    -0.258778000000    15.994914619570
         H           -3.113201000000     0.864523000000    -0.650413000000     1.007825032230
         H           -2.526952000000     0.402207000000     0.644990000000     1.007825032230

  Charge       = 1
  Multiplicity = 1
  Basis Set: AUG-CC-PVTZ
    Blend: AUG-CC-PVTZ
  Basis Set: (AUG-CC-PVTZ AUX)
    Blend: AUG-CC-PVTZ-JKFIT + DEF2-UNIVERSAL-JKFIT

    Orbital Energies [Eh]
    ---------------------

    Doubly Occupied:

       1A   -133.572348     2A    -20.712260     3A    -20.712052
       4A    -20.706582     5A    -20.701002     6A    -20.698895
       7A    -20.693334     8A    -14.531119     9A    -11.560968
      10A    -11.560828    11A    -11.560759    12A     -1.797318
      13A     -1.498731    14A     -1.493038    15A     -1.489541
      16A     -1.489207    17A     -1.485237    18A     -1.477538
      19A     -1.011167    20A     -1.009394    21A     -1.006778
      22A     -0.864911    23A     -0.862263    24A     -0.861046
      25A     -0.853292    26A     -0.850771    27A     -0.842633
      28A     -0.733412    29A     -0.731425    30A     -0.728196
      31A     -0.721532    32A     -0.720793    33A     -0.709673
      34A     -0.661297    35A     -0.656976    36A     -0.649551
      37A     -0.647122    38A     -0.644831    39A     -0.640547

  @DF-RHF Final Energy: -1055.45387266102784

   => Energetics <=

    Nuclear Repulsion Energy =            463.1481344523313624
    One-Electron Energy =               -2368.9072700038818766
    Two-Electron Energy =                 850.3052628905226129
    Total Energy =                      -1055.4538726610280719
 Dipole X            :          8.7192456           -7.9114121            0.8078334
 Dipole Y            :          3.9582299           -3.5687780            0.3894519
 Dipole Z            :        -16.2376315           17.1298987            0.8922672
 Magnitude           :                                                    1.2650725
  Basis Set: (AUG-CC-PVTZ AUX)
    Blend: AUG-CC-PVTZ-RI + DEF2-QZVPP-RI
	 Reference Energy          =   -1055.4538726610278445 [Eh]
	 Singles Energy            =      -0.0000000000000000 [Eh]
	 Same-Spin Energy          =      -0.4582204479479920 [Eh]
	 Opposite-Spin Energy      =      -1.3977796863346090 [Eh]
	 Correlation Energy        =      -1.8560001342826009 [Eh]
	 Total Energy              =   -1057.3098727953104117 [Eh]

	 ================> DF-SCS-MP2 Energies <==================
	-----------------------------------------------------------
	 SCS Same-Spin Scale       =       0.3333333333333333 [-]
	 SCS Opposite-Spin Scale   =       1.2000000000000000 [-]
	 SCS Same-Spin Energy      =      -0.1527401493159973 [Eh]
	 SCS Opposite-Spin Energy  =      -1.6773356236015309 [Eh]
	 SCS Correlation Energy    =      -1.8300757729175281 [Eh]
	 SCS Total Energy          =   -1057.2839484339453975 [Eh]
	-----------------------------------------------------------

*** Psi4 exiting successfully. Buy a developer a beer!
