                               Psi4 1.9 release

  ==> Input File <==

--------------------------------------------------------------------------
MEMORY 60 GB

molecule dimer {
0 1
Gh(K)      0.000000     0.000000     0.000000
Gh(O)     -0.410929    -0.700784    -2.509863
Gh(H)     -1.217513    -1.219559    -2.665649
Gh(H)     -0.164264    -0.548002    -3.391802
Gh(O)      0.364162     2.737792     0.615970
Gh(H)     -0.368150     3.382202     0.757426
Gh(H)      0.419133     2.301238     1.419304
Gh(O)     -1.302168    -1.379093     2.269078
Gh(H)     -1.734333    -1.173294     3.111865
Gh(H)     -1.340808    -2.327373     2.231571
O          2.554230    -0.782247     0.698580
H          2.890378    -1.647175     0.845380
H          3.241882    -0.204019     0.218312

units ang
no_reorient
no_com
symmetry c1
}

set {
basis        aug-cc-pVTZ
scf_type     df
}

energy("mp2")
--------------------------------------------------------------------------

    Molecular point group: c1

    Geometry (in Angstrom), charge = 0, multiplicity = 1:

       Center              X                  Y                   Z               Mass
    ------------   -----------------  -----------------  -----------------  -----------------
      Gh(K)           0.000000000000     0.000000000000     0.000000000000    38.963706486400
      Gh(O)          -0.410929000000    -0.700784000000    -2.509863000000    15.994914619570
      Gh(H)          -1.217513000000    -1.219559000000    -2.665649000000     1.007825032230
      Gh(H)          -0.164264000000    -0.548002000000    -3.391802000000     1.007825032230
      Gh(O)           0.364162000000     2.737792000000     0.615970000000    15.994914619570
      Gh(H)          -0.368150000000     3.382202000000     0.757426000000     1.007825032230
      Gh(H)           0.419133000000     2.301238000000     1.419304000000     1.007825032230
      Gh(O)          -1.302168000000    -1.379093000000     2.269078000000    15.994914619570
      Gh(H)          -1.734333000000    -1.173294000000     3.111865000000     1.007825032230
      Gh(H)          -1.340808000000    -2.327373000000     2.231571000000     1.007825032230
         O            2.554230000000    -0.782247000000     0.698580000000    15.994914619570
         H            2.890378000000    -1.647175000000     0.845380000000     1.007825032230
         H            3.241882000000    -0.204019000000     0.218312000000     1.007825032230

  Charge       = 0
  Multiplicity = 1
  Basis Set: AUG-CC-PVTZ
    Blend: AUG-CC-PVTZ
  Basis Set: (AUG-CC-PVTZ AUX)
    Blend: AUG-CC-PVTZ-JKFIT + DEF2-UNIVERSAL-JKFIT

    Orbital Energies [Eh]
    ---------------------

    Doubly Occupied:

       1A    -20.567618     2A     -1.339793     3A     -0.717532
       4A     -0.568276     5A     -0.506721

  @DF-RHF Final Energy:   -76.05472808173757

   => Energetics <=

    Nuclear Repulsion Energy =              8.9897485588206063
    One-Electron Energy =                -122.6890685106873491
    Two-Electron Energy =                  37.6445918701291831
    Total Energy =                        -76.0547280817375508
 Dipole X            :        -49.5195766           50.2026532            0.6830766
 Dipole Y            :         15.1223332          -15.3241104           -0.2017772
 Dipole Z            :        -12.7898921           12.5710856           -0.2188066
 Magnitude           :                                                    0.7451067
  Basis Set: (AUG-CC-PVTZ AUX)
    Blend: AUG-CC-PVTZ-RI + DEF2-QZVPP-RI
	 Reference Energy          =     -76.0547280817375650 [Eh]
	 Singles Energy            =      -0.0000000000000000 [Eh]
	 Same-Spin Energy          =      -0.0686501196606214 [Eh]
	 Opposite-Spin Energy      =      -0.2163095805680874 [Eh]
	 Correlation Energy        =      -0.2849597002287088 [Eh]
	 Total Energy              =     -76.3396877819662762 [Eh]

	 ================> DF-SCS-MP2 Energies <==================
	-----------------------------------------------------------
	 SCS Same-Spin Scale       =       0.3333333333333333 [-]
	 SCS Opposite-Spin Scale   =       1.2000000000000000 [-]
	 SCS Same-Spin Energy      =      -0.0228833732202071 [Eh]
	 SCS Opposite-Spin Energy  =      -0.2595714966817049 [Eh]
	 SCS Correlation Energy    =      -0.2824548699019120 [Eh]
	 SCS Total Energy          =     -76.3371829516394769 [Eh]
	-----------------------------------------------------------

*** Psi4 exiting successfully. Buy a developer a beer!
