                               Psi4 1.9 release

  ==> Input File <==

--------------------------------------------------------------------------
MEMORY 60 GB

molecule dimer {
1 1
K      0.000000     0.000000     0.000000
--
0 1
O      0.798245    -2.673232     0.586516
H      1.259072    -3.227763    -0.050608
H      1.531752    -2.180835     0.924560
O      1.063720    -0.518108     2.608119
H      1.747934    -1.086894     2.959635
H      0.362801    -0.538207     3.240479
O     -0.749147     2.531063     1.106211
H     -1.357034     2.493353     1.855151
H     -0.245091     3.336779     1.345826
O     -0.978931     1.576870    -1.879881
H     -0.514846     1.896055    -2.647649
H     -1.625313     0.989072    -2.202663

units ang
no_reorient
no_com
symmetry c1
}

set {
basis        aug-cc-pVTZ
scf_type     df
}

energy("mp2", bsse_type="cp")
--------------------------------------------------------------------------

                               Psi4 1.9 release
    Molecular point group: c1
  Charge       = 0
  Multiplicity = 1
  Basis Set: AUG-CC-PVTZ
    Blend: AUG-CC-PVTZ
  Basis Set: (AUG-CC-PVTZ AUX)
    Blend: AUG-CC-PVTZ-JKFIT + DEF2-UNIVERSAL-JKFIT
  @DF-RHF Final Energy:  -304.22975606497937
    Total Energy =                       -304.2297560649793695
 Dipole X            :         -3.6827193            4.2147903            0.5320710
 Dipole Y            :        -17.1061064           17.0345658           -0.0715407
 Dipole Z            :        -46.4691051           46.8509424            0.3818373
 Magnitude           :                                                    0.6587999
  Basis Set: (AUG-CC-PVTZ AUX)
    Blend: AUG-CC-PVTZ-RI + DEF2-QZVPP-RI
	 Reference Energy          =    -304.2297560649793695 [Eh]
	 Singles Energy            =      -0.0000000000000000 [Eh]
	 Same-Spin Energy          =      -0.2751856469754555 [Eh]
	 Opposite-Spin Energy      =      -0.8642561509392248 [Eh]
	 Correlation Energy        =      -1.1394417979146803 [Eh]
	 Total Energy              =    -305.3691978628940547 [Eh]
	 SCS Total Energy          =    -305.3585919950982657 [Eh]
                               Psi4 1.9 release
    Molecular point group: c1
  Multiplicity = 1
  Basis Set: AUG-CC-PVTZ
    Blend: AUG-CC-PVTZ
  Basis Set: (AUG-CC-PVTZ AUX)
    Blend: AUG-CC-PVTZ-JKFIT + DEF2-UNIVERSAL-JKFIT
  @DF-RHF Final Energy:  -599.01751386886917
    Total Energy =                       -599.0175138688692869
  Basis Set: (AUG-CC-PVTZ AUX)
	 Singles Energy            =      -0.0000000000000000 [Eh]
	 Same-Spin Energy          =      -0.0343647340466656 [Eh]
	 Opposite-Spin Energy      =      -0.0831315747701356 [Eh]
	 Correlation Energy        =      -0.1174963088168012 [Eh]
	 Total Energy              =    -599.1350101776860129 [Eh]
	 SCS Total Energy          =    -599.1287266699422389 [Eh]
                               Psi4 1.9 release
    Molecular point group: c1

    Geometry (in Bohr), charge = 1, multiplicity = 1:

       Center              X                  Y                   Z               Mass
    ------------   -----------------  -----------------  -----------------  -----------------
         K            0.000000000000     0.000000000000     0.000000000000    38.963706486400
         O            1.508464431016    -5.051676349810     1.108354608199    15.994914619570
         H            2.379301252232    -6.099588067886    -0.095635259757     1.007825032230
         H            2.894591772122    -4.121180874813     1.747165186553     1.007825032230
         O            2.010139474172    -0.979082223409     4.928630612603    15.994914619570
         H            3.303116545376    -2.053931987403     5.592899581319     1.007825032230
         H            0.685594528042    -1.017063828804     6.123617825297     1.007825032230
         O           -1.415682657708     4.783015876280     2.090435826969    15.994914619570
         H           -2.564422602935     4.711754304089     3.505727311369     1.007825032230
         H           -0.463154865815     6.305598451179     2.543242552520     1.007825032230
         O           -1.849911485721     2.979852435451    -3.552460238452    15.994914619570
         H           -0.972917936787     3.583024668805    -5.003331486342     1.007825032230
         H           -3.071396438146     1.869075198359    -4.162429816679     1.007825032230

  Charge       = 1
  Multiplicity = 1
  Basis Set: AUG-CC-PVTZ
    Blend: AUG-CC-PVTZ
  Basis Set: (AUG-CC-PVTZ AUX)
    Blend: AUG-CC-PVTZ-JKFIT + DEF2-UNIVERSAL-JKFIT

    Orbital Energies [Eh]
    ---------------------

    Doubly Occupied:

       1A   -133.636807     2A    -20.719350     3A    -20.716015
       4A    -20.713872     5A    -20.707616     6A    -14.594217
       7A    -11.624261     8A    -11.624090     9A    -11.623934
      10A     -1.855533    11A     -1.515519    12A     -1.514973
      13A     -1.507630    14A     -1.487582    15A     -1.066979
      16A     -1.064516    17A     -1.061930    18A     -0.883333
      19A     -0.881338    20A     -0.857258    21A     -0.837497
      22A     -0.750852    23A     -0.747513    24A     -0.745880
      25A     -0.729947    26A     -0.669341    27A     -0.667777
      28A     -0.663068    29A     -0.649523

  @DF-RHF Final Energy:  -903.32040467894467

   => Energetics <=

    Nuclear Repulsion Energy =            251.8713100831209033
    One-Electron Energy =               -1738.1471233948013833
    Two-Electron Energy =                 582.9554086327357254
    Total Energy =                       -903.3204046789446693
 Dipole X            :         -3.6696598            4.2147903            0.5451306
 Dipole Y            :        -16.9814024           17.0345658            0.0531634
 Dipole Z            :        -46.3024519           46.8509424            0.5484904
 Magnitude           :                                                    0.7751358
  Basis Set: (AUG-CC-PVTZ AUX)
    Blend: AUG-CC-PVTZ-RI + DEF2-QZVPP-RI
	 Reference Energy          =    -903.3204046789446693 [Eh]
	 Singles Energy            =      -0.0000000000000000 [Eh]
	 Same-Spin Energy          =      -0.3120105727749918 [Eh]
	 Opposite-Spin Energy      =      -0.9472280209737124 [Eh]
	 Correlation Energy        =      -1.2592385937487043 [Eh]
	 Total Energy              =    -904.5796432726933745 [Eh]

	 ================> DF-SCS-MP2 Energies <==================
	-----------------------------------------------------------
	 SCS Same-Spin Scale       =       0.3333333333333333 [-]
	 SCS Opposite-Spin Scale   =       1.2000000000000000 [-]
	 SCS Same-Spin Energy      =      -0.1040035242583306 [Eh]
	 SCS Opposite-Spin Energy  =      -1.1366736251684548 [Eh]
	 SCS Correlation Energy    =      -1.2406771494267854 [Eh]
	 SCS Total Energy          =    -904.5610818283714707 [Eh]
	-----------------------------------------------------------

*** Psi4 exiting successfully. Buy a developer a beer!
