                               Psi4 1.9 release

  ==> Input File <==

--------------------------------------------------------------------------
MEMORY 60 GB

molecule dimer {
1 1
K      0.000000     0.000000     0.000000
--
0 1
O      2.508782    -0.141844     0.410377
H      2.562458     0.762794     0.130963
H      3.441425    -0.376554     0.562283
O      1.412786    -1.432695    -1.957736
H      2.326943    -1.625764    -2.277906
H      0.935548    -2.250073    -1.821873
O     -1.020538     1.606119     1.754091
H     -1.273693     2.198824     1.035375
H     -0.603547     2.090252     2.409861
O     -1.392791    -1.909610     1.353410
H     -1.147644    -2.832730     1.686886
H     -2.369302    -1.909809     0.980002
O     -1.194174    -0.015023    -2.323203
H     -1.115379    -0.877981    -2.766013
H     -2.152801     0.190925    -2.210689

units ang
no_reorient
no_com
symmetry c1
}

set {
basis        aug-cc-pVTZ
scf_type     df
}

energy("mp2", bsse_type="cp")
--------------------------------------------------------------------------

                               Psi4 1.9 release
    Molecular point group: c1
  Charge       = 0
  Multiplicity = 1
  Basis Set: AUG-CC-PVTZ
    Blend: AUG-CC-PVTZ
  Basis Set: (AUG-CC-PVTZ AUX)
    Blend: AUG-CC-PVTZ-JKFIT + DEF2-UNIVERSAL-JKFIT
  @DF-RHF Final Energy:  -380.26322199525060
    Total Energy =                       -380.2632219952506034
 Dipole X            :         -5.8467389            5.8893844            0.0426455
 Dipole Y            :         36.8803563          -37.3684649           -0.4881086
 Dipole Z            :         15.4111264          -15.8275882           -0.4164619
 Magnitude           :                                                    0.6430467
  Basis Set: (AUG-CC-PVTZ AUX)
    Blend: AUG-CC-PVTZ-RI + DEF2-QZVPP-RI
	 Reference Energy          =    -380.2632219952506034 [Eh]
	 Singles Energy            =      -0.0000000000000000 [Eh]
	 Same-Spin Energy          =      -0.3457586239802964 [Eh]
	 Opposite-Spin Energy      =      -1.0858298109633564 [Eh]
	 Correlation Energy        =      -1.4315884349436527 [Eh]
	 Total Energy              =    -381.6948104301942521 [Eh]
	 SCS Total Energy          =    -381.6814706430667457 [Eh]
                               Psi4 1.9 release
    Molecular point group: c1
  Multiplicity = 1
  Basis Set: AUG-CC-PVTZ
    Blend: AUG-CC-PVTZ
  Basis Set: (AUG-CC-PVTZ AUX)
    Blend: AUG-CC-PVTZ-JKFIT + DEF2-UNIVERSAL-JKFIT
  @DF-RHF Final Energy:  -599.01751655457656
    Total Energy =                       -599.0175165545766731
  Basis Set: (AUG-CC-PVTZ AUX)
	 Singles Energy            =      -0.0000000000000000 [Eh]
	 Same-Spin Energy          =      -0.0383820823770586 [Eh]
	 Opposite-Spin Energy      =      -0.0940193038260015 [Eh]
	 Correlation Energy        =      -0.1324013862030601 [Eh]
	 Total Energy              =    -599.1499179407795737 [Eh]
	 SCS Total Energy          =    -599.1431337466267451 [Eh]
                               Psi4 1.9 release
    Molecular point group: c1

    Geometry (in Bohr), charge = 1, multiplicity = 1:

       Center              X                  Y                   Z               Mass
    ------------   -----------------  -----------------  -----------------  -----------------
         K            0.000000000000     0.000000000000     0.000000000000    38.963706486400
         O            4.740910888478    -0.268046312539     0.775500138187    15.994914619570
         H            4.842343827988     1.441471750142     0.247484202568     1.007825032230
         H            6.503350731304    -0.711583931446     1.062560875001     1.007825032230
         O            2.669778613881    -2.707401171313    -3.699584865949    15.994914619570
         H            4.397284979551    -3.072248704629    -4.304618479537     1.007825032230
         H            1.767929497220    -4.252021732287    -3.442841005366     1.007825032230
         O           -1.928537320622     3.035125034894     3.314751589130    15.994914619570
         H           -2.406930937913     4.155175158084     1.956575187146     1.007825032230
         H           -1.140538533842     3.950003813190     4.553977290422     1.007825032230
         O           -2.631993540003    -3.608639906436     2.557574235456    15.994914619570
         H           -2.168732849525    -5.353083887368     3.187752544869     1.007825032230
         H           -4.477331888499    -3.609015961934     1.851935382401     1.007825032230
         O           -2.256661806142    -0.028389355583    -4.390217403842    15.994914619570
         H           -2.107760836087    -1.659143633356    -5.227007029456     1.007825032230
         H           -4.068204292612     0.360795960503    -4.177596758562     1.007825032230

  Charge       = 1
  Multiplicity = 1
  Basis Set: AUG-CC-PVTZ
    Blend: AUG-CC-PVTZ
  Basis Set: (AUG-CC-PVTZ AUX)
    Blend: AUG-CC-PVTZ-JKFIT + DEF2-UNIVERSAL-JKFIT

    Orbital Energies [Eh]
    ---------------------

    Doubly Occupied:

       1A   -133.591491     2A    -20.716090     3A    -20.714724
       4A    -20.710246     5A    -20.709864     6A    -20.699611
       7A    -14.550261     8A    -11.580113     9A    -11.580006
      10A    -11.579848    11A     -1.816495    12A     -1.512190
      13A     -1.501533    14A     -1.490444    15A     -1.479164
      16A     -1.460637    17A     -1.030409    18A     -1.029258
      19A     -1.024865    20A     -0.886850    21A     -0.864144
      22A     -0.858880    23A     -0.853156    24A     -0.832169
      25A     -0.741816    26A     -0.733704    27A     -0.727711
      28A     -0.710869    29A     -0.709418    30A     -0.665734
      31A     -0.664404    32A     -0.658609    33A     -0.647561
      34A     -0.636036

  @DF-RHF Final Energy:  -979.36762709200934

   => Energetics <=

    Nuclear Repulsion Energy =            357.9610051024752124
    One-Electron Energy =               -2054.7206361271664719
    Two-Electron Energy =                 717.3920039326819733
    Total Energy =                       -979.3676270920093430
 Dipole X            :         -5.7893420            5.8893844            0.1000424
 Dipole Y            :         36.6498164          -37.3684649           -0.7186484
 Dipole Z            :         15.3717498          -15.8275882           -0.4558385
 Magnitude           :                                                    0.8568855
  Basis Set: (AUG-CC-PVTZ AUX)
    Blend: AUG-CC-PVTZ-RI + DEF2-QZVPP-RI
	 Reference Energy          =    -979.3676270920093430 [Eh]
	 Singles Energy            =      -0.0000000000000000 [Eh]
	 Same-Spin Energy          =      -0.3882199525929009 [Eh]
	 Opposite-Spin Energy      =      -1.1795506358599690 [Eh]
	 Correlation Energy        =      -1.5677705884528699 [Eh]
	 Total Energy              =    -980.9353976804621880 [Eh]

	 ================> DF-SCS-MP2 Energies <==================
	-----------------------------------------------------------
	 SCS Same-Spin Scale       =       0.3333333333333333 [-]
	 SCS Opposite-Spin Scale   =       1.2000000000000000 [-]
	 SCS Same-Spin Energy      =      -0.1294066508643003 [Eh]
	 SCS Opposite-Spin Energy  =      -1.4154607630319627 [Eh]
	 SCS Correlation Energy    =      -1.5448674138962630 [Eh]
	 SCS Total Energy          =    -980.9124945059055563 [Eh]
	-----------------------------------------------------------

*** Psi4 exiting successfully. Buy a developer a beer!
