                               Psi4 1.9 release

  ==> Input File <==

--------------------------------------------------------------------------
MEMORY 60 GB

molecule dimer {
0 1
Gh(K)      0.000000     0.000000     0.000000
O         -1.237201    -1.186877    -1.898620
H         -1.455599    -2.078405    -2.264946
H         -1.884303    -0.587869    -2.247465
Gh(O)      1.982555    -1.627158    -0.050544
Gh(H)      2.859228    -1.332600    -0.294042
Gh(H)      2.024029    -2.574119    -0.007952
Gh(O)      0.529545     2.030396     1.666827
Gh(H)      0.081547     1.990380     2.491648
Gh(H)      0.447311     2.993552     1.488365
Gh(O)     -2.004583    -1.160979     1.036664
Gh(H)     -2.719039    -0.691870     1.542242
Gh(H)     -2.486547    -1.780673     0.451519

units ang
no_reorient
no_com
symmetry c1
}

set {
basis        aug-cc-pVTZ
scf_type     df
}

energy("mp2")
--------------------------------------------------------------------------

    Molecular point group: c1

    Geometry (in Angstrom), charge = 0, multiplicity = 1:

       Center              X                  Y                   Z               Mass
    ------------   -----------------  -----------------  -----------------  -----------------
      Gh(K)           0.000000000000     0.000000000000     0.000000000000    38.963706486400
         O           -1.237201000000    -1.186877000000    -1.898620000000    15.994914619570
         H           -1.455599000000    -2.078405000000    -2.264946000000     1.007825032230
         H           -1.884303000000    -0.587869000000    -2.247465000000     1.007825032230
      Gh(O)           1.982555000000    -1.627158000000    -0.050544000000    15.994914619570
      Gh(H)           2.859228000000    -1.332600000000    -0.294042000000     1.007825032230
      Gh(H)           2.024029000000    -2.574119000000    -0.007952000000     1.007825032230
      Gh(O)           0.529545000000     2.030396000000     1.666827000000    15.994914619570
      Gh(H)           0.081547000000     1.990380000000     2.491648000000     1.007825032230
      Gh(H)           0.447311000000     2.993552000000     1.488365000000     1.007825032230
      Gh(O)          -2.004583000000    -1.160979000000     1.036664000000    15.994914619570
      Gh(H)          -2.719039000000    -0.691870000000     1.542242000000     1.007825032230
      Gh(H)          -2.486547000000    -1.780673000000     0.451519000000     1.007825032230

  Charge       = 0
  Multiplicity = 1
  Basis Set: AUG-CC-PVTZ
    Blend: AUG-CC-PVTZ
  Basis Set: (AUG-CC-PVTZ AUX)
    Blend: AUG-CC-PVTZ-JKFIT + DEF2-UNIVERSAL-JKFIT

    Orbital Energies [Eh]
    ---------------------

    Doubly Occupied:

       1A    -20.568043     2A     -1.346919     3A     -0.715441
       4A     -0.578920     5A     -0.508886

  @DF-RHF Final Energy:   -76.05898095966866

   => Energetics <=

    Nuclear Repulsion Energy =              9.0890434552198354
    One-Electron Energy =                -122.8596290706963714
    Two-Electron Energy =                  37.7116046558078750
    Total Energy =                        -76.0589809596686592
 Dipole X            :         24.4386430          -25.0152685           -0.5766255
 Dipole Y            :         22.7934959          -22.9815074           -0.1880115
 Dipole Z            :         36.7549517          -37.2301955           -0.4752438
 Magnitude           :                                                    0.7705206
  Basis Set: (AUG-CC-PVTZ AUX)
    Blend: AUG-CC-PVTZ-RI + DEF2-QZVPP-RI
	 Reference Energy          =     -76.0589809596686592 [Eh]
	 Singles Energy            =      -0.0000000000000000 [Eh]
	 Same-Spin Energy          =      -0.0685411691097845 [Eh]
	 Opposite-Spin Energy      =      -0.2160947130310972 [Eh]
	 Correlation Energy        =      -0.2846358821408816 [Eh]
	 Total Energy              =     -76.3436168418095349 [Eh]

	 ================> DF-SCS-MP2 Energies <==================
	-----------------------------------------------------------
	 SCS Same-Spin Scale       =       0.3333333333333333 [-]
	 SCS Opposite-Spin Scale   =       1.2000000000000000 [-]
	 SCS Same-Spin Energy      =      -0.0228470563699282 [Eh]
	 SCS Opposite-Spin Energy  =      -0.2593136556373166 [Eh]
	 SCS Correlation Energy    =      -0.2821607120072448 [Eh]
	 SCS Total Energy          =     -76.3411416716758993 [Eh]
	-----------------------------------------------------------

*** Psi4 exiting successfully. Buy a developer a beer!
