                               Psi4 1.9 release

  ==> Input File <==

--------------------------------------------------------------------------
MEMORY 60 GB

molecule dimer {
0 1
Gh(K)      0.000000     0.000000     0.000000
Gh(O)      0.075155    -1.723621    -2.222691
Gh(H)      0.160553    -2.664415    -2.167190
Gh(H)      0.364851    -1.484375    -3.131935
Gh(O)      1.231668    -2.456321     1.234605
Gh(H)      1.127068    -3.384287     0.950491
Gh(H)      0.887056    -2.271199     2.158531
Gh(O)     -2.591511    -1.086420     0.720781
Gh(H)     -3.095590    -1.651979     1.265500
Gh(H)     -3.189225    -0.757403     0.067002
O          0.999639     2.617895     0.271985
H          0.388983     3.122801     0.770979
H          1.638461     2.439843     1.007245
Gh(O)      1.255850     0.564449     2.393699
Gh(H)      1.293308     0.072444     3.193687
Gh(H)      1.888924     1.216741     2.629633

units ang
no_reorient
no_com
symmetry c1
}

set {
basis        aug-cc-pVTZ
scf_type     df
}

energy("mp2")
--------------------------------------------------------------------------

    Molecular point group: c1

    Geometry (in Angstrom), charge = 0, multiplicity = 1:

       Center              X                  Y                   Z               Mass
    ------------   -----------------  -----------------  -----------------  -----------------
      Gh(K)           0.000000000000     0.000000000000     0.000000000000    38.963706486400
      Gh(O)           0.075155000000    -1.723621000000    -2.222691000000    15.994914619570
      Gh(H)           0.160553000000    -2.664415000000    -2.167190000000     1.007825032230
      Gh(H)           0.364851000000    -1.484375000000    -3.131935000000     1.007825032230
      Gh(O)           1.231668000000    -2.456321000000     1.234605000000    15.994914619570
      Gh(H)           1.127068000000    -3.384287000000     0.950491000000     1.007825032230
      Gh(H)           0.887056000000    -2.271199000000     2.158531000000     1.007825032230
      Gh(O)          -2.591511000000    -1.086420000000     0.720781000000    15.994914619570
      Gh(H)          -3.095590000000    -1.651979000000     1.265500000000     1.007825032230
      Gh(H)          -3.189225000000    -0.757403000000     0.067002000000     1.007825032230
         O            0.999639000000     2.617895000000     0.271985000000    15.994914619570
         H            0.388983000000     3.122801000000     0.770979000000     1.007825032230
         H            1.638461000000     2.439843000000     1.007245000000     1.007825032230
      Gh(O)           1.255850000000     0.564449000000     2.393699000000    15.994914619570
      Gh(H)           1.293308000000     0.072444000000     3.193687000000     1.007825032230
      Gh(H)           1.888924000000     1.216741000000     2.629633000000     1.007825032230

  Charge       = 0
  Multiplicity = 1
  Basis Set: AUG-CC-PVTZ
    Blend: AUG-CC-PVTZ
  Basis Set: (AUG-CC-PVTZ AUX)
    Blend: AUG-CC-PVTZ-JKFIT + DEF2-UNIVERSAL-JKFIT

    Orbital Energies [Eh]
    ---------------------

    Doubly Occupied:

       1A    -20.571103     2A     -1.356678     3A     -0.699668
       4A     -0.598179     5A     -0.512053

  @DF-RHF Final Energy:   -76.05688876294927

   => Energetics <=

    Nuclear Repulsion Energy =              9.1631319362709789
    One-Electron Energy =                -122.9646754154411639
    Two-Electron Energy =                  37.7446547162209072
    Total Energy =                        -76.0568887629492849
 Dipole X            :        -18.9349024           18.9436654            0.0087629
 Dipole Y            :        -49.8709296           50.0887103            0.2177807
 Dipole Z            :         -6.6726026            7.4721736            0.7995710
 Magnitude           :                                                    0.8287455
  Basis Set: (AUG-CC-PVTZ AUX)
    Blend: AUG-CC-PVTZ-RI + DEF2-QZVPP-RI
	 Reference Energy          =     -76.0568887629492707 [Eh]
	 Singles Energy            =      -0.0000000000000000 [Eh]
	 Same-Spin Energy          =      -0.0687020509691633 [Eh]
	 Opposite-Spin Energy      =      -0.2165696843689676 [Eh]
	 Correlation Energy        =      -0.2852717353381309 [Eh]
	 Total Energy              =     -76.3421604982873987 [Eh]

	 ================> DF-SCS-MP2 Energies <==================
	-----------------------------------------------------------
	 SCS Same-Spin Scale       =       0.3333333333333333 [-]
	 SCS Opposite-Spin Scale   =       1.2000000000000000 [-]
	 SCS Same-Spin Energy      =      -0.0229006836563878 [Eh]
	 SCS Opposite-Spin Energy  =      -0.2598836212427612 [Eh]
	 SCS Correlation Energy    =      -0.2827843048991489 [Eh]
	 SCS Total Energy          =     -76.3396730678484232 [Eh]
	-----------------------------------------------------------

*** Psi4 exiting successfully. Buy a developer a beer!
