                               Psi4 1.9 release

  ==> Input File <==

--------------------------------------------------------------------------
MEMORY 60 GB

molecule dimer {
1 1
K          0.000000     0.000000     0.000000
O         -2.788678     0.406415     0.653974
H         -3.199869     0.958424    -0.018216
H         -2.648871     0.994298     1.339656
O         -0.538075    -0.007256    -2.587985
H         -1.178974     0.573219    -3.036130
H         -0.622551    -0.842304    -3.100694
O          1.217666    -2.504639    -1.246697
H          2.075220    -2.521579    -1.694555
H          1.096683    -3.374284    -0.758390
O         -0.231617     1.394607     2.438855
H         -0.561266     2.289091     2.589398
H          0.557946     1.311939     2.977921
O          2.575424     0.453046    -0.769981
H          2.519390    -0.471796    -0.995216
H          3.471222     0.584527    -0.443942

units ang
no_reorient
no_com
symmetry c1
}

set {
basis        aug-cc-pVTZ
scf_type     df
}

energy("mp2")
--------------------------------------------------------------------------

    Molecular point group: c1

    Geometry (in Angstrom), charge = 1, multiplicity = 1:

       Center              X                  Y                   Z               Mass
    ------------   -----------------  -----------------  -----------------  -----------------
         K            0.000000000000     0.000000000000     0.000000000000    38.963706486400
         O           -2.788678000000     0.406415000000     0.653974000000    15.994914619570
         H           -3.199869000000     0.958424000000    -0.018216000000     1.007825032230
         H           -2.648871000000     0.994298000000     1.339656000000     1.007825032230
         O           -0.538075000000    -0.007256000000    -2.587985000000    15.994914619570
         H           -1.178974000000     0.573219000000    -3.036130000000     1.007825032230
         H           -0.622551000000    -0.842304000000    -3.100694000000     1.007825032230
         O            1.217666000000    -2.504639000000    -1.246697000000    15.994914619570
         H            2.075220000000    -2.521579000000    -1.694555000000     1.007825032230
         H            1.096683000000    -3.374284000000    -0.758390000000     1.007825032230
         O           -0.231617000000     1.394607000000     2.438855000000    15.994914619570
         H           -0.561266000000     2.289091000000     2.589398000000     1.007825032230
         H            0.557946000000     1.311939000000     2.977921000000     1.007825032230
         O            2.575424000000     0.453046000000    -0.769981000000    15.994914619570
         H            2.519390000000    -0.471796000000    -0.995216000000     1.007825032230
         H            3.471222000000     0.584527000000    -0.443942000000     1.007825032230

  Charge       = 1
  Multiplicity = 1
  Basis Set: AUG-CC-PVTZ
    Blend: AUG-CC-PVTZ
  Basis Set: (AUG-CC-PVTZ AUX)
    Blend: AUG-CC-PVTZ-JKFIT + DEF2-UNIVERSAL-JKFIT

    Orbital Energies [Eh]
    ---------------------

    Doubly Occupied:

       1A   -133.608473     2A    -20.722620     3A    -20.716811
       4A    -20.710604     5A    -20.706742     6A    -20.696684
       7A    -14.566095     8A    -11.596068     9A    -11.595913
      10A    -11.595857    11A     -1.828208    12A     -1.502823
      13A     -1.499504    14A     -1.496897    15A     -1.491049
      16A     -1.487355    17A     -1.039213    18A     -1.037143
      19A     -1.036933    20A     -0.870558    21A     -0.870338
      22A     -0.857031    23A     -0.855323    24A     -0.843110
      25A     -0.742039    26A     -0.735676    27A     -0.731680
      28A     -0.728752    29A     -0.727235    30A     -0.664074
      31A     -0.663076    32A     -0.655535    33A     -0.652111
      34A     -0.648358

  @DF-RHF Final Energy:  -979.39595926896459

   => Energetics <=

    Nuclear Repulsion Energy =            342.3395673994892832
    One-Electron Energy =               -2023.1112663604806130
    Two-Electron Energy =                 701.3757396920266274
    Total Energy =                       -979.3959592689645888
 Dipole X            :         -5.6690818            6.3999166            0.7308348
 Dipole Y            :          4.8105421           -4.8397417           -0.0291996
 Dipole Z            :         28.6071069          -28.7896752           -0.1825683
 Magnitude           :                                                    0.7538589
  Basis Set: (AUG-CC-PVTZ AUX)
    Blend: AUG-CC-PVTZ-RI + DEF2-QZVPP-RI
	 Reference Energy          =    -979.3959592689645888 [Eh]
	 Singles Energy            =      -0.0000000000000000 [Eh]
	 Same-Spin Energy          =      -0.3840359634564864 [Eh]
	 Opposite-Spin Energy      =      -1.1708432824850832 [Eh]
	 Correlation Energy        =      -1.5548792459415695 [Eh]
	 Total Energy              =    -980.9508385149061951 [Eh]

	 ================> DF-SCS-MP2 Energies <==================
	-----------------------------------------------------------
	 SCS Same-Spin Scale       =       0.3333333333333333 [-]
	 SCS Opposite-Spin Scale   =       1.2000000000000000 [-]
	 SCS Same-Spin Energy      =      -0.1280119878188288 [Eh]
	 SCS Opposite-Spin Energy  =      -1.4050119389820999 [Eh]
	 SCS Correlation Energy    =      -1.5330239268009287 [Eh]
	 SCS Total Energy          =    -980.9289831957655679 [Eh]
	-----------------------------------------------------------

*** Psi4 exiting successfully. Buy a developer a beer!
