                               Psi4 1.9 release

  ==> Input File <==

--------------------------------------------------------------------------
MEMORY 60 GB

molecule dimer {
0 1
Gh(K)      0.000000     0.000000     0.000000
Gh(O)     -1.080651     0.306429     2.551299
Gh(H)     -1.823175     0.297793     3.180353
Gh(H)     -0.354899     0.660309     3.103492
Gh(O)      2.278387    -0.702459    -1.607685
Gh(H)      2.138970    -0.719093    -2.593983
Gh(H)      3.142648    -0.207233    -1.591648
Gh(O)      0.117076     1.812209    -2.183024
Gh(H)      0.976217     1.536841    -2.563700
Gh(H)      0.141175     2.783659    -2.179207
Gh(O)     -0.797458     2.800333     0.664685
Gh(H)     -1.133208     2.542766     1.514255
Gh(H)      0.012475     3.272720     0.925054
O          0.106479    -2.530132     1.323326
H          0.105693    -2.479833     2.282568
H          0.086604    -3.458505     1.108124

units ang
no_reorient
no_com
symmetry c1
}

set {
basis        aug-cc-pVTZ
scf_type     df
}

energy("mp2")
--------------------------------------------------------------------------

    Molecular point group: c1

    Geometry (in Angstrom), charge = 0, multiplicity = 1:

       Center              X                  Y                   Z               Mass
    ------------   -----------------  -----------------  -----------------  -----------------
      Gh(K)           0.000000000000     0.000000000000     0.000000000000    38.963706486400
      Gh(O)          -1.080651000000     0.306429000000     2.551299000000    15.994914619570
      Gh(H)          -1.823175000000     0.297793000000     3.180353000000     1.007825032230
      Gh(H)          -0.354899000000     0.660309000000     3.103492000000     1.007825032230
      Gh(O)           2.278387000000    -0.702459000000    -1.607685000000    15.994914619570
      Gh(H)           2.138970000000    -0.719093000000    -2.593983000000     1.007825032230
      Gh(H)           3.142648000000    -0.207233000000    -1.591648000000     1.007825032230
      Gh(O)           0.117076000000     1.812209000000    -2.183024000000    15.994914619570
      Gh(H)           0.976217000000     1.536841000000    -2.563700000000     1.007825032230
      Gh(H)           0.141175000000     2.783659000000    -2.179207000000     1.007825032230
      Gh(O)          -0.797458000000     2.800333000000     0.664685000000    15.994914619570
      Gh(H)          -1.133208000000     2.542766000000     1.514255000000     1.007825032230
      Gh(H)           0.012475000000     3.272720000000     0.925054000000     1.007825032230
         O            0.106479000000    -2.530132000000     1.323326000000    15.994914619570
         H            0.105693000000    -2.479833000000     2.282568000000     1.007825032230
         H            0.086604000000    -3.458505000000     1.108124000000     1.007825032230

  Charge       = 0
  Multiplicity = 1
  Basis Set: AUG-CC-PVTZ
    Blend: AUG-CC-PVTZ
  Basis Set: (AUG-CC-PVTZ AUX)
    Blend: AUG-CC-PVTZ-JKFIT + DEF2-UNIVERSAL-JKFIT

    Orbital Energies [Eh]
    ---------------------

    Doubly Occupied:

       1A    -20.566404     2A     -1.352673     3A     -0.720979
       4A     -0.581988     5A     -0.509918

  @DF-RHF Final Energy:   -76.06067817684379

   => Energetics <=

    Nuclear Repulsion Energy =              9.1946446373938535
    One-Electron Energy =                -123.0467187072554793
    Two-Electron Energy =                  37.7913958930178353
    Total Energy =                        -76.0606781768437941
 Dipole X            :         -1.9870614            1.9731178           -0.0139435
 Dipole Y            :         48.8838838          -49.4718848           -0.5880009
 Dipole Z            :        -25.9165445           26.4132690            0.4967245
 Magnitude           :                                                    0.7698537
  Basis Set: (AUG-CC-PVTZ AUX)
    Blend: AUG-CC-PVTZ-RI + DEF2-QZVPP-RI
	 Reference Energy          =     -76.0606781768437941 [Eh]
	 Singles Energy            =      -0.0000000000000000 [Eh]
	 Same-Spin Energy          =      -0.0683380634772491 [Eh]
	 Opposite-Spin Energy      =      -0.2153501665545720 [Eh]
	 Correlation Energy        =      -0.2836882300318211 [Eh]
	 Total Energy              =     -76.3443664068756220 [Eh]

	 ================> DF-SCS-MP2 Energies <==================
	-----------------------------------------------------------
	 SCS Same-Spin Scale       =       0.3333333333333333 [-]
	 SCS Opposite-Spin Scale   =       1.2000000000000000 [-]
	 SCS Same-Spin Energy      =      -0.0227793544924163 [Eh]
	 SCS Opposite-Spin Energy  =      -0.2584201998654864 [Eh]
	 SCS Correlation Energy    =      -0.2811995543579028 [Eh]
	 SCS Total Energy          =     -76.3418777312016914 [Eh]
	-----------------------------------------------------------

*** Psi4 exiting successfully. Buy a developer a beer!
