                               Psi4 1.9 release

  ==> Input File <==

--------------------------------------------------------------------------
MEMORY 60 GB

molecule dimer {
1 1
K          0.000000     0.000000     0.000000
O          1.998788    -1.892981    -1.275619
H          1.360295    -2.129853    -1.967743
H          2.785721    -1.689378    -1.859302
O         -2.305916    -0.575904    -1.423238
H         -2.524150    -0.535467    -2.347313
H         -1.974768    -1.476719    -1.203696
O         -1.216902     2.172280     0.900711
H         -1.602851     1.834558     1.691032
H         -0.956919     3.082716     1.081943
O          1.514527    -2.061471     1.508858
H          1.933106    -2.366114     0.691556
H          0.944965    -2.736547     1.833539
O          2.272850     0.840728     1.315721
H          2.977124     0.173544     1.188519
H          2.679249     1.703018     1.056976
O          0.901593     1.890982    -1.438276
H          1.107019     2.546113    -0.725155
H          0.579848     2.387877    -2.155061

units ang
no_reorient
no_com
symmetry c1
}

set {
basis        aug-cc-pVTZ
scf_type     df
}

energy("mp2")
--------------------------------------------------------------------------

    Molecular point group: c1

    Geometry (in Angstrom), charge = 1, multiplicity = 1:

       Center              X                  Y                   Z               Mass
    ------------   -----------------  -----------------  -----------------  -----------------
         K            0.000000000000     0.000000000000     0.000000000000    38.963706486400
         O            1.998788000000    -1.892981000000    -1.275619000000    15.994914619570
         H            1.360295000000    -2.129853000000    -1.967743000000     1.007825032230
         H            2.785721000000    -1.689378000000    -1.859302000000     1.007825032230
         O           -2.305916000000    -0.575904000000    -1.423238000000    15.994914619570
         H           -2.524150000000    -0.535467000000    -2.347313000000     1.007825032230
         H           -1.974768000000    -1.476719000000    -1.203696000000     1.007825032230
         O           -1.216902000000     2.172280000000     0.900711000000    15.994914619570
         H           -1.602851000000     1.834558000000     1.691032000000     1.007825032230
         H           -0.956919000000     3.082716000000     1.081943000000     1.007825032230
         O            1.514527000000    -2.061471000000     1.508858000000    15.994914619570
         H            1.933106000000    -2.366114000000     0.691556000000     1.007825032230
         H            0.944965000000    -2.736547000000     1.833539000000     1.007825032230
         O            2.272850000000     0.840728000000     1.315721000000    15.994914619570
         H            2.977124000000     0.173544000000     1.188519000000     1.007825032230
         H            2.679249000000     1.703018000000     1.056976000000     1.007825032230
         O            0.901593000000     1.890982000000    -1.438276000000    15.994914619570
         H            1.107019000000     2.546113000000    -0.725155000000     1.007825032230
         H            0.579848000000     2.387877000000    -2.155061000000     1.007825032230

  Charge       = 1
  Multiplicity = 1
  Basis Set: AUG-CC-PVTZ
    Blend: AUG-CC-PVTZ
  Basis Set: (AUG-CC-PVTZ AUX)
    Blend: AUG-CC-PVTZ-JKFIT + DEF2-UNIVERSAL-JKFIT

    Orbital Energies [Eh]
    ---------------------

    Doubly Occupied:

       1A   -133.590338     2A    -20.728887     3A    -20.711482
       4A    -20.710873     5A    -20.705091     6A    -20.697257
       7A    -20.677022     8A    -14.548595     9A    -11.578438
      10A    -11.578430    11A    -11.578224    12A     -1.813185
      13A     -1.502841    14A     -1.502387    15A     -1.498009
      16A     -1.492856    17A     -1.470969    18A     -1.467418
      19A     -1.026837    20A     -1.024961    21A     -1.020644
      22A     -0.871338    23A     -0.868137    24A     -0.865154
      25A     -0.852906    26A     -0.848427    27A     -0.832259
      28A     -0.753391    29A     -0.736186    30A     -0.730757
      31A     -0.721449    32A     -0.713222    33A     -0.692730
      34A     -0.668795    35A     -0.661068    36A     -0.656392
      37A     -0.653963    38A     -0.638793    39A     -0.627318

  @DF-RHF Final Energy: -1055.44959502488655

   => Energetics <=

    Nuclear Repulsion Energy =            461.0688756578487641
    One-Electron Energy =               -2364.4028754093019415
    Two-Electron Energy =                 847.8844047265665722
    Total Energy =                      -1055.4495950248865483
 Dipole X            :        -60.8791403           61.6582845            0.7791442
 Dipole Y            :         -6.9560546            7.1484938            0.1924392
 Dipole Z            :          9.9200043          -11.3562128           -1.4362084
 Magnitude           :                                                    1.6452335
  Basis Set: (AUG-CC-PVTZ AUX)
    Blend: AUG-CC-PVTZ-RI + DEF2-QZVPP-RI
	 Reference Energy          =   -1055.4495950248865483 [Eh]
	 Singles Energy            =      -0.0000000000000000 [Eh]
	 Same-Spin Energy          =      -0.4584001760016356 [Eh]
	 Opposite-Spin Energy      =      -1.3975491905008199 [Eh]
	 Correlation Energy        =      -1.8559493665024556 [Eh]
	 Total Energy              =   -1057.3055443913890485 [Eh]

	 ================> DF-SCS-MP2 Energies <==================
	-----------------------------------------------------------
	 SCS Same-Spin Scale       =       0.3333333333333333 [-]
	 SCS Opposite-Spin Scale   =       1.2000000000000000 [-]
	 SCS Same-Spin Energy      =      -0.1528000586672119 [Eh]
	 SCS Opposite-Spin Energy  =      -1.6770590286009839 [Eh]
	 SCS Correlation Energy    =      -1.8298590872681957 [Eh]
	 SCS Total Energy          =   -1057.2794541121547809 [Eh]
	-----------------------------------------------------------

*** Psi4 exiting successfully. Buy a developer a beer!
