                               Psi4 1.9 release

  ==> Input File <==

--------------------------------------------------------------------------
MEMORY 60 GB

molecule dimer {
1 1
K          0.000000     0.000000     0.000000
O          1.420878    -0.711211     2.184934
H          1.736688    -0.202833     2.919371
H          1.868927    -1.577892     2.226855
O         -1.598928     0.560235    -2.419403
H         -1.365736    -0.118708    -3.123021
H         -1.346237     1.399038    -2.845520
O         -1.131301    -2.523257     0.183596
H         -1.987351    -3.054599     0.383189
H         -0.368094    -3.072588     0.451747
O          1.518076     2.324623    -0.594473
H          2.305331     2.111401    -0.053256
H          1.802919     2.957861    -1.298562
O         -2.049095     1.423091     0.741955
H         -2.503284     1.989797     0.085011
H         -2.823126     0.947412     1.182702
O          2.220787    -1.004945    -1.229033
H          2.829877    -1.684268    -1.114338
H          2.221823    -0.766439    -2.173954

units ang
no_reorient
no_com
symmetry c1
}

set {
basis        aug-cc-pVTZ
scf_type     df
}

energy("mp2")
--------------------------------------------------------------------------

    Molecular point group: c1

    Geometry (in Angstrom), charge = 1, multiplicity = 1:

       Center              X                  Y                   Z               Mass
    ------------   -----------------  -----------------  -----------------  -----------------
         K            0.000000000000     0.000000000000     0.000000000000    38.963706486400
         O            1.420878000000    -0.711211000000     2.184934000000    15.994914619570
         H            1.736688000000    -0.202833000000     2.919371000000     1.007825032230
         H            1.868927000000    -1.577892000000     2.226855000000     1.007825032230
         O           -1.598928000000     0.560235000000    -2.419403000000    15.994914619570
         H           -1.365736000000    -0.118708000000    -3.123021000000     1.007825032230
         H           -1.346237000000     1.399038000000    -2.845520000000     1.007825032230
         O           -1.131301000000    -2.523257000000     0.183596000000    15.994914619570
         H           -1.987351000000    -3.054599000000     0.383189000000     1.007825032230
         H           -0.368094000000    -3.072588000000     0.451747000000     1.007825032230
         O            1.518076000000     2.324623000000    -0.594473000000    15.994914619570
         H            2.305331000000     2.111401000000    -0.053256000000     1.007825032230
         H            1.802919000000     2.957861000000    -1.298562000000     1.007825032230
         O           -2.049095000000     1.423091000000     0.741955000000    15.994914619570
         H           -2.503284000000     1.989797000000     0.085011000000     1.007825032230
         H           -2.823126000000     0.947412000000     1.182702000000     1.007825032230
         O            2.220787000000    -1.004945000000    -1.229033000000    15.994914619570
         H            2.829877000000    -1.684268000000    -1.114338000000     1.007825032230
         H            2.221823000000    -0.766439000000    -2.173954000000     1.007825032230

  Charge       = 1
  Multiplicity = 1
  Basis Set: AUG-CC-PVTZ
    Blend: AUG-CC-PVTZ
  Basis Set: (AUG-CC-PVTZ AUX)
    Blend: AUG-CC-PVTZ-JKFIT + DEF2-UNIVERSAL-JKFIT

    Orbital Energies [Eh]
    ---------------------

    Doubly Occupied:

       1A   -133.564763     2A    -20.703310     3A    -20.703187
       4A    -20.702652     5A    -20.699119     6A    -20.695531
       7A    -20.692297     8A    -14.523001     9A    -11.552840
      10A    -11.552801    11A    -11.552729    12A     -1.787327
      13A     -1.499722    14A     -1.489377    15A     -1.466870
      16A     -1.466189    17A     -1.462734    18A     -1.460041
      19A     -0.999200    20A     -0.998109    21A     -0.997652
      22A     -0.870991    23A     -0.858503    24A     -0.836242
      25A     -0.831447    26A     -0.823698    27A     -0.814748
      28A     -0.730824    29A     -0.725148    30A     -0.713132
      31A     -0.710776    32A     -0.708461    33A     -0.704931
      34A     -0.654984    35A     -0.649949    36A     -0.638793
      37A     -0.638254    38A     -0.634674    39A     -0.631667

  @DF-RHF Final Energy: -1055.45951940179111

   => Energetics <=

    Nuclear Repulsion Energy =            451.0121223664247054
    One-Electron Energy =               -2345.4499268438194122
    Two-Electron Energy =                 838.9782850756035941
    Total Energy =                      -1055.4595194017911126
 Dipole X            :         -9.1356636           10.2330049            1.0973414
 Dipole Y            :          0.1818945           -0.9893283           -0.8074338
 Dipole Z            :         22.7334105          -23.4688262           -0.7354158
 Magnitude           :                                                    1.5482066
  Basis Set: (AUG-CC-PVTZ AUX)
    Blend: AUG-CC-PVTZ-RI + DEF2-QZVPP-RI
	 Reference Energy          =   -1055.4595194017911126 [Eh]
	 Singles Energy            =      -0.0000000000000000 [Eh]
	 Same-Spin Energy          =      -0.4575878332031721 [Eh]
	 Opposite-Spin Energy      =      -1.3985404257478089 [Eh]
	 Correlation Energy        =      -1.8561282589509811 [Eh]
	 Total Energy              =   -1057.3156476607421155 [Eh]

	 ================> DF-SCS-MP2 Energies <==================
	-----------------------------------------------------------
	 SCS Same-Spin Scale       =       0.3333333333333333 [-]
	 SCS Opposite-Spin Scale   =       1.2000000000000000 [-]
	 SCS Same-Spin Energy      =      -0.1525292777343907 [Eh]
	 SCS Opposite-Spin Energy  =      -1.6782485108973706 [Eh]
	 SCS Correlation Energy    =      -1.8307777886317613 [Eh]
	 SCS Total Energy          =   -1057.2902971904229616 [Eh]
	-----------------------------------------------------------

*** Psi4 exiting successfully. Buy a developer a beer!
