                               Psi4 1.9 release

  ==> Input File <==

--------------------------------------------------------------------------
MEMORY 60 GB

molecule dimer {
0 1
Gh(K)      0.000000     0.000000     0.000000
Gh(O)     -1.578613    -2.113716     0.218354
Gh(H)     -0.981947    -2.793452    -0.097712
Gh(H)     -2.324957    -2.073157    -0.378677
Gh(O)      1.295700    -2.515411    -0.325869
Gh(H)      0.949642    -3.369730    -0.036852
Gh(H)      2.279970    -2.442741    -0.095265
Gh(O)      2.568601     0.147719    -0.427268
Gh(H)      2.727281    -0.077392    -1.363704
Gh(H)      3.370881     0.599596    -0.084938
O         -0.362166     2.669565     0.838638
H         -1.033657     3.293462     0.421097
H          0.445519     2.915189     0.370285

units ang
no_reorient
no_com
symmetry c1
}

set {
basis        aug-cc-pVTZ
scf_type     df
}

energy("mp2")
--------------------------------------------------------------------------

    Molecular point group: c1

    Geometry (in Angstrom), charge = 0, multiplicity = 1:

       Center              X                  Y                   Z               Mass
    ------------   -----------------  -----------------  -----------------  -----------------
      Gh(K)           0.000000000000     0.000000000000     0.000000000000    38.963706486400
      Gh(O)          -1.578613000000    -2.113716000000     0.218354000000    15.994914619570
      Gh(H)          -0.981947000000    -2.793452000000    -0.097712000000     1.007825032230
      Gh(H)          -2.324957000000    -2.073157000000    -0.378677000000     1.007825032230
      Gh(O)           1.295700000000    -2.515411000000    -0.325869000000    15.994914619570
      Gh(H)           0.949642000000    -3.369730000000    -0.036852000000     1.007825032230
      Gh(H)           2.279970000000    -2.442741000000    -0.095265000000     1.007825032230
      Gh(O)           2.568601000000     0.147719000000    -0.427268000000    15.994914619570
      Gh(H)           2.727281000000    -0.077392000000    -1.363704000000     1.007825032230
      Gh(H)           3.370881000000     0.599596000000    -0.084938000000     1.007825032230
         O           -0.362166000000     2.669565000000     0.838638000000    15.994914619570
         H           -1.033657000000     3.293462000000     0.421097000000     1.007825032230
         H            0.445519000000     2.915189000000     0.370285000000     1.007825032230

  Charge       = 0
  Multiplicity = 1
  Basis Set: AUG-CC-PVTZ
    Blend: AUG-CC-PVTZ
  Basis Set: (AUG-CC-PVTZ AUX)
    Blend: AUG-CC-PVTZ-JKFIT + DEF2-UNIVERSAL-JKFIT

    Orbital Energies [Eh]
    ---------------------

    Doubly Occupied:

       1A    -20.573419     2A     -1.341504     3A     -0.696661
       4A     -0.584986     5A     -0.508995

  @DF-RHF Final Energy:   -76.05620313806091

   => Energetics <=

    Nuclear Repulsion Energy =              8.9345264410852945
    One-Electron Energy =                -122.5703252798860206
    Two-Electron Energy =                  37.5795957007398087
    Total Energy =                        -76.0562031380609085
 Dipole X            :          6.6824615           -6.5865762            0.0958853
 Dipole Y            :        -51.5290365           52.0906238            0.5615872
 Dipole Z            :        -14.7481456           14.1738643           -0.5742812
 Magnitude           :                                                    0.8089333
  Basis Set: (AUG-CC-PVTZ AUX)
    Blend: AUG-CC-PVTZ-RI + DEF2-QZVPP-RI
	 Reference Energy          =     -76.0562031380609085 [Eh]
	 Singles Energy            =      -0.0000000000000000 [Eh]
	 Same-Spin Energy          =      -0.0689463095105486 [Eh]
	 Opposite-Spin Energy      =      -0.2172119707245763 [Eh]
	 Correlation Energy        =      -0.2861582802351249 [Eh]
	 Total Energy              =     -76.3423614182960364 [Eh]

	 ================> DF-SCS-MP2 Energies <==================
	-----------------------------------------------------------
	 SCS Same-Spin Scale       =       0.3333333333333333 [-]
	 SCS Opposite-Spin Scale   =       1.2000000000000000 [-]
	 SCS Same-Spin Energy      =      -0.0229821031701829 [Eh]
	 SCS Opposite-Spin Energy  =      -0.2606543648694916 [Eh]
	 SCS Correlation Energy    =      -0.2836364680396745 [Eh]
	 SCS Total Energy          =     -76.3398396061005826 [Eh]
	-----------------------------------------------------------

*** Psi4 exiting successfully. Buy a developer a beer!
