                               Psi4 1.9 release

  ==> Input File <==

--------------------------------------------------------------------------
MEMORY 60 GB

molecule dimer {
1 1
K          0.000000     0.000000     0.000000
O         -2.324873    -1.404209    -0.719175
H         -2.508892    -2.382152    -0.757465
H         -3.103411    -1.007604    -0.391341
O          0.928383    -2.282472     1.098452
H          1.810797    -2.654173     1.272065
H          0.418300    -2.312404     1.908116
O          1.667709     2.265231     0.418502
H          1.289449     2.964199     0.969759
H          1.716548     2.696389    -0.446786

units ang
no_reorient
no_com
symmetry c1
}

set {
basis        aug-cc-pVTZ
scf_type     df
}

energy("mp2")
--------------------------------------------------------------------------

    Molecular point group: c1

    Geometry (in Angstrom), charge = 1, multiplicity = 1:

       Center              X                  Y                   Z               Mass
    ------------   -----------------  -----------------  -----------------  -----------------
         K            0.000000000000     0.000000000000     0.000000000000    38.963706486400
         O           -2.324873000000    -1.404209000000    -0.719175000000    15.994914619570
         H           -2.508892000000    -2.382152000000    -0.757465000000     1.007825032230
         H           -3.103411000000    -1.007604000000    -0.391341000000     1.007825032230
         O            0.928383000000    -2.282472000000     1.098452000000    15.994914619570
         H            1.810797000000    -2.654173000000     1.272065000000     1.007825032230
         H            0.418300000000    -2.312404000000     1.908116000000     1.007825032230
         O            1.667709000000     2.265231000000     0.418502000000    15.994914619570
         H            1.289449000000     2.964199000000     0.969759000000     1.007825032230
         H            1.716548000000     2.696389000000    -0.446786000000     1.007825032230

  Charge       = 1
  Multiplicity = 1
  Basis Set: AUG-CC-PVTZ
    Blend: AUG-CC-PVTZ
  Basis Set: (AUG-CC-PVTZ AUX)
    Blend: AUG-CC-PVTZ-JKFIT + DEF2-UNIVERSAL-JKFIT

    Orbital Energies [Eh]
    ---------------------

    Doubly Occupied:

       1A   -133.654399     2A    -20.727155     3A    -20.725466
       4A    -20.722431     5A    -14.611451     6A    -11.641508
       7A    -11.641349     8A    -11.641221     9A     -1.871586
      10A     -1.509486    11A     -1.508952    12A     -1.507120
      13A     -1.082372    14A     -1.080092    15A     -1.077496
      16A     -0.881892    17A     -0.873026    18A     -0.865104
      19A     -0.751927    20A     -0.745845    21A     -0.743770
      22A     -0.672645    23A     -0.672301    24A     -0.668190

  @DF-RHF Final Energy:  -827.25580292916845

   => Energetics <=

    Nuclear Repulsion Energy =            165.8436442519473246
    One-Electron Energy =               -1462.4453246923399092
    Two-Electron Energy =                 469.3458775112241028
    Total Energy =                       -827.2558029291684534
 Dipole X            :         -3.9526226            3.3874153           -0.5652072
 Dipole Y            :         26.5008040          -26.5834294           -0.0826254
 Dipole Z            :        -16.1574981           16.8876887            0.7301906
 Magnitude           :                                                    0.9270731
  Basis Set: (AUG-CC-PVTZ AUX)
    Blend: AUG-CC-PVTZ-RI + DEF2-QZVPP-RI
	 Reference Energy          =    -827.2558029291684534 [Eh]
	 Singles Energy            =      -0.0000000000000000 [Eh]
	 Same-Spin Energy          =      -0.2399342119594876 [Eh]
	 Opposite-Spin Energy      =      -0.7247781413509693 [Eh]
	 Correlation Energy        =      -0.9647123533104569 [Eh]
	 Total Energy              =    -828.2205152824789138 [Eh]

	 ================> DF-SCS-MP2 Energies <==================
	-----------------------------------------------------------
	 SCS Same-Spin Scale       =       0.3333333333333333 [-]
	 SCS Opposite-Spin Scale   =       1.2000000000000000 [-]
	 SCS Same-Spin Energy      =      -0.0799780706531625 [Eh]
	 SCS Opposite-Spin Energy  =      -0.8697337696211631 [Eh]
	 SCS Correlation Energy    =      -0.9497118402743256 [Eh]
	 SCS Total Energy          =    -828.2055147694427433 [Eh]
	-----------------------------------------------------------

*** Psi4 exiting successfully. Buy a developer a beer!
