                               Psi4 1.9 release

  ==> Input File <==

--------------------------------------------------------------------------
MEMORY 60 GB

molecule dimer {
0 1
Gh(K)      0.000000     0.000000     0.000000
Gh(O)      0.895746    -2.809245     0.265910
Gh(H)      0.384997    -3.536149    -0.142487
Gh(H)      0.462734    -2.701620     1.110776
Gh(O)     -1.994843    -0.515921    -1.954607
Gh(H)     -2.538615    -1.207236    -1.506788
Gh(H)     -2.614613     0.221095    -1.966914
O         -0.644379     2.208825    -1.255866
H         -0.268331     2.958551    -0.857534
H         -1.592764     2.260054    -1.104169

units ang
no_reorient
no_com
symmetry c1
}

set {
basis        aug-cc-pVTZ
scf_type     df
}

energy("mp2")
--------------------------------------------------------------------------

    Molecular point group: c1

    Geometry (in Angstrom), charge = 0, multiplicity = 1:

       Center              X                  Y                   Z               Mass
    ------------   -----------------  -----------------  -----------------  -----------------
      Gh(K)           0.000000000000     0.000000000000     0.000000000000    38.963706486400
      Gh(O)           0.895746000000    -2.809245000000     0.265910000000    15.994914619570
      Gh(H)           0.384997000000    -3.536149000000    -0.142487000000     1.007825032230
      Gh(H)           0.462734000000    -2.701620000000     1.110776000000     1.007825032230
      Gh(O)          -1.994843000000    -0.515921000000    -1.954607000000    15.994914619570
      Gh(H)          -2.538615000000    -1.207236000000    -1.506788000000     1.007825032230
      Gh(H)          -2.614613000000     0.221095000000    -1.966914000000     1.007825032230
         O           -0.644379000000     2.208825000000    -1.255866000000    15.994914619570
         H           -0.268331000000     2.958551000000    -0.857534000000     1.007825032230
         H           -1.592764000000     2.260054000000    -1.104169000000     1.007825032230

  Charge       = 0
  Multiplicity = 1
  Basis Set: AUG-CC-PVTZ
    Blend: AUG-CC-PVTZ
  Basis Set: (AUG-CC-PVTZ AUX)
    Blend: AUG-CC-PVTZ-JKFIT + DEF2-UNIVERSAL-JKFIT

    Orbital Energies [Eh]
    ---------------------

    Doubly Occupied:

       1A    -20.563892     2A     -1.358512     3A     -0.729005
       4A     -0.582666     5A     -0.510738

  @DF-RHF Final Energy:   -76.06060913748286

   => Energetics <=

    Nuclear Repulsion Energy =              9.3095079436858903
    One-Electron Energy =                -123.2506047005040983
    Two-Electron Energy =                  37.8804876193353550
    Total Energy =                        -76.0606091374828566
 Dipole X            :         12.8768597          -13.2585585           -0.3816988
 Dipole Y            :        -42.7108135           43.2543287            0.5435151
 Dipole Z            :         23.0650987          -22.6930237            0.3720750
 Magnitude           :                                                    0.7612769
  Basis Set: (AUG-CC-PVTZ AUX)
    Blend: AUG-CC-PVTZ-RI + DEF2-QZVPP-RI
	 Reference Energy          =     -76.0606091374828566 [Eh]
	 Singles Energy            =      -0.0000000000000000 [Eh]
	 Same-Spin Energy          =      -0.0681271033920051 [Eh]
	 Opposite-Spin Energy      =      -0.2147685760716284 [Eh]
	 Correlation Energy        =      -0.2828956794636335 [Eh]
	 Total Energy              =     -76.3435048169464920 [Eh]

	 ================> DF-SCS-MP2 Energies <==================
	-----------------------------------------------------------
	 SCS Same-Spin Scale       =       0.3333333333333333 [-]
	 SCS Opposite-Spin Scale   =       1.2000000000000000 [-]
	 SCS Same-Spin Energy      =      -0.0227090344640017 [Eh]
	 SCS Opposite-Spin Energy  =      -0.2577222912859540 [Eh]
	 SCS Correlation Energy    =      -0.2804313257499557 [Eh]
	 SCS Total Energy          =     -76.3410404632328152 [Eh]
	-----------------------------------------------------------

*** Psi4 exiting successfully. Buy a developer a beer!
