                               Psi4 1.9 release

  ==> Input File <==

--------------------------------------------------------------------------
MEMORY 60 GB

molecule dimer {
1 1
K          0.000000     0.000000     0.000000
O         -0.765719     1.087653     2.167467
H         -0.366710     0.618826     2.934654
H         -0.375078     1.956726     2.261313
O          0.783235     0.249805    -2.652016
H          0.810836     1.128177    -3.198673
H          1.673506    -0.176047    -2.638363
O          1.949027     1.313741     0.855188
H          2.577772     1.693311     0.164076
H          1.560359     2.078643     1.367190
O         -1.376289    -2.236190     1.521680
H         -1.917950    -2.202670     2.374185
H         -1.844766    -2.998636     1.080903
O         -1.599232     1.945142    -1.540209
H         -0.917197     2.521554    -1.161089
H         -1.775862     2.352459    -2.354892

units ang
no_reorient
no_com
symmetry c1
}

set {
basis        aug-cc-pVTZ
scf_type     df
}

energy("mp2")
--------------------------------------------------------------------------

    Molecular point group: c1

    Geometry (in Angstrom), charge = 1, multiplicity = 1:

       Center              X                  Y                   Z               Mass
    ------------   -----------------  -----------------  -----------------  -----------------
         K            0.000000000000     0.000000000000     0.000000000000    38.963706486400
         O           -0.765719000000     1.087653000000     2.167467000000    15.994914619570
         H           -0.366710000000     0.618826000000     2.934654000000     1.007825032230
         H           -0.375078000000     1.956726000000     2.261313000000     1.007825032230
         O            0.783235000000     0.249805000000    -2.652016000000    15.994914619570
         H            0.810836000000     1.128177000000    -3.198673000000     1.007825032230
         H            1.673506000000    -0.176047000000    -2.638363000000     1.007825032230
         O            1.949027000000     1.313741000000     0.855188000000    15.994914619570
         H            2.577772000000     1.693311000000     0.164076000000     1.007825032230
         H            1.560359000000     2.078643000000     1.367190000000     1.007825032230
         O           -1.376289000000    -2.236190000000     1.521680000000    15.994914619570
         H           -1.917950000000    -2.202670000000     2.374185000000     1.007825032230
         H           -1.844766000000    -2.998636000000     1.080903000000     1.007825032230
         O           -1.599232000000     1.945142000000    -1.540209000000    15.994914619570
         H           -0.917197000000     2.521554000000    -1.161089000000     1.007825032230
         H           -1.775862000000     2.352459000000    -2.354892000000     1.007825032230

  Charge       = 1
  Multiplicity = 1
  Basis Set: AUG-CC-PVTZ
    Blend: AUG-CC-PVTZ
  Basis Set: (AUG-CC-PVTZ AUX)
    Blend: AUG-CC-PVTZ-JKFIT + DEF2-UNIVERSAL-JKFIT

    Orbital Energies [Eh]
    ---------------------

    Doubly Occupied:

       1A   -133.599648     2A    -20.741987     3A    -20.727619
       4A    -20.718420     5A    -20.704146     6A    -20.702752
       7A    -14.558069     8A    -11.587938     9A    -11.587809
      10A    -11.587736    11A     -1.823050    12A     -1.514009
      13A     -1.504147    14A     -1.498135    15A     -1.473179
      16A     -1.463287    17A     -1.035871    18A     -1.033520
      19A     -1.031887    20A     -0.877238    21A     -0.861558
      22A     -0.857062    23A     -0.846995    24A     -0.809738
      25A     -0.753786    26A     -0.747744    27A     -0.730580
      28A     -0.722876    29A     -0.715516    30A     -0.683517
      31A     -0.672310    32A     -0.656964    33A     -0.646462
      34A     -0.638249

  @DF-RHF Final Energy:  -979.35859848111022

   => Energetics <=

    Nuclear Repulsion Energy =            349.3745854773152359
    One-Electron Energy =               -2037.2387536887088118
    Two-Electron Energy =                 708.5055697302832414
    Total Energy =                       -979.3585984811102207
 Dipole X            :         17.2341861          -16.3402993            0.8938868
 Dipole Y            :        -47.2445541           48.8561308            1.6115767
 Dipole Z            :         -6.7744230            6.8902892            0.1158662
 Magnitude           :                                                    1.8465205
  Basis Set: (AUG-CC-PVTZ AUX)
    Blend: AUG-CC-PVTZ-RI + DEF2-QZVPP-RI
	 Reference Energy          =    -979.3585984811102207 [Eh]
	 Singles Energy            =      -0.0000000000000000 [Eh]
	 Same-Spin Energy          =      -0.3878870204664933 [Eh]
	 Opposite-Spin Energy      =      -1.1801641774744205 [Eh]
	 Correlation Energy        =      -1.5680511979409137 [Eh]
	 Total Energy              =    -980.9266496790511383 [Eh]

	 ================> DF-SCS-MP2 Energies <==================
	-----------------------------------------------------------
	 SCS Same-Spin Scale       =       0.3333333333333333 [-]
	 SCS Opposite-Spin Scale   =       1.2000000000000000 [-]
	 SCS Same-Spin Energy      =      -0.1292956734888311 [Eh]
	 SCS Opposite-Spin Energy  =      -1.4161970129693044 [Eh]
	 SCS Correlation Energy    =      -1.5454926864581355 [Eh]
	 SCS Total Energy          =    -980.9040911675683674 [Eh]
	-----------------------------------------------------------

*** Psi4 exiting successfully. Buy a developer a beer!
