                               Psi4 1.9 release

  ==> Input File <==

--------------------------------------------------------------------------
MEMORY 60 GB

molecule dimer {
1 1
K          0.000000     0.000000     0.000000
O          2.852757    -0.334051    -0.186806
H          3.665059    -0.772002     0.113705
H          2.976979    -0.248733    -1.158383
O         -1.826235    -0.322399    -1.984574
H         -1.297659    -0.061936    -2.754238
H         -1.684865    -1.318774    -1.991083
O         -0.349652    -2.346622     1.050442
H          0.209215    -3.119233     1.249847
H         -1.269300    -2.641149     1.131510
O         -1.923855    -0.178301     2.183220
H         -1.437654    -1.016009     2.224042
H         -2.508504    -0.247868     1.457316
O          0.850534    -1.021556    -2.165011
H          0.594881    -1.697915    -2.784155
H          1.648642    -0.724977    -2.660875

units ang
no_reorient
no_com
symmetry c1
}

set {
basis        aug-cc-pVTZ
scf_type     df
}

energy("mp2")
--------------------------------------------------------------------------

    Molecular point group: c1

    Geometry (in Angstrom), charge = 1, multiplicity = 1:

       Center              X                  Y                   Z               Mass
    ------------   -----------------  -----------------  -----------------  -----------------
         K            0.000000000000     0.000000000000     0.000000000000    38.963706486400
         O            2.852757000000    -0.334051000000    -0.186806000000    15.994914619570
         H            3.665059000000    -0.772002000000     0.113705000000     1.007825032230
         H            2.976979000000    -0.248733000000    -1.158383000000     1.007825032230
         O           -1.826235000000    -0.322399000000    -1.984574000000    15.994914619570
         H           -1.297659000000    -0.061936000000    -2.754238000000     1.007825032230
         H           -1.684865000000    -1.318774000000    -1.991083000000     1.007825032230
         O           -0.349652000000    -2.346622000000     1.050442000000    15.994914619570
         H            0.209215000000    -3.119233000000     1.249847000000     1.007825032230
         H           -1.269300000000    -2.641149000000     1.131510000000     1.007825032230
         O           -1.923855000000    -0.178301000000     2.183220000000    15.994914619570
         H           -1.437654000000    -1.016009000000     2.224042000000     1.007825032230
         H           -2.508504000000    -0.247868000000     1.457316000000     1.007825032230
         O            0.850534000000    -1.021556000000    -2.165011000000    15.994914619570
         H            0.594881000000    -1.697915000000    -2.784155000000     1.007825032230
         H            1.648642000000    -0.724977000000    -2.660875000000     1.007825032230

  Charge       = 1
  Multiplicity = 1
  Basis Set: AUG-CC-PVTZ
    Blend: AUG-CC-PVTZ
  Basis Set: (AUG-CC-PVTZ AUX)
    Blend: AUG-CC-PVTZ-JKFIT + DEF2-UNIVERSAL-JKFIT

    Orbital Energies [Eh]
    ---------------------

    Doubly Occupied:

       1A   -133.613552     2A    -20.752064     3A    -20.744964
       4A    -20.722419     5A    -20.718292     6A    -20.694597
       7A    -14.571786     8A    -11.601647     9A    -11.601538
      10A    -11.601527    11A     -1.836147    12A     -1.543181
      13A     -1.528861    14A     -1.495421    15A     -1.494061
      16A     -1.488491    17A     -1.048933    18A     -1.047659
      19A     -1.044630    20A     -0.899083    21A     -0.889026
      22A     -0.855304    23A     -0.851568    24A     -0.846783
      25A     -0.794375    26A     -0.767789    27A     -0.743881
      28A     -0.737744    29A     -0.717376    30A     -0.702297
      31A     -0.686379    32A     -0.662073    33A     -0.655760
      34A     -0.643461

  @DF-RHF Final Energy:  -979.36286612004017

   => Energetics <=

    Nuclear Repulsion Energy =            363.0167836196374083
    One-Electron Energy =               -2063.5539541911412016
    Two-Electron Energy =                 721.1743044514636267
    Total Energy =                       -979.3628661200401666
 Dipole X            :          5.5674226           -4.2987754            1.2686471
 Dipole Y            :         83.1965124          -85.9296793           -2.7331669
 Dipole Z            :         24.3669854          -26.4451033           -2.0781179
 Magnitude           :                                                    3.6603608
  Basis Set: (AUG-CC-PVTZ AUX)
    Blend: AUG-CC-PVTZ-RI + DEF2-QZVPP-RI
	 Reference Energy          =    -979.3628661200401666 [Eh]
	 Singles Energy            =      -0.0000000000000000 [Eh]
	 Same-Spin Energy          =      -0.3891306130188137 [Eh]
	 Opposite-Spin Energy      =      -1.1801357475378724 [Eh]
	 Correlation Energy        =      -1.5692663605566861 [Eh]
	 Total Energy              =    -980.9321324805968061 [Eh]

	 ================> DF-SCS-MP2 Energies <==================
	-----------------------------------------------------------
	 SCS Same-Spin Scale       =       0.3333333333333333 [-]
	 SCS Opposite-Spin Scale   =       1.2000000000000000 [-]
	 SCS Same-Spin Energy      =      -0.1297102043396046 [Eh]
	 SCS Opposite-Spin Energy  =      -1.4161628970454470 [Eh]
	 SCS Correlation Energy    =      -1.5458731013850515 [Eh]
	 SCS Total Energy          =    -980.9087392214252077 [Eh]
	-----------------------------------------------------------

*** Psi4 exiting successfully. Buy a developer a beer!
