                               Psi4 1.9 release

  ==> Input File <==

--------------------------------------------------------------------------
MEMORY 60 GB

molecule dimer {
1 1
K          0.000000     0.000000     0.000000
Gh(O)      2.433312    -0.711261    -0.876073
Gh(H)      3.025721     0.045558    -0.738606
Gh(H)      2.646594    -0.978885    -1.800154
Gh(O)      0.729442     2.374627     0.909651
Gh(H)      1.436876     2.682600     1.537697
Gh(H)      0.607664     3.130167     0.287856
Gh(O)     -0.423164    -2.596708     0.556853
Gh(H)     -0.086692    -3.420156     0.268816
Gh(H)     -0.158458    -2.540686     1.533756
Gh(O)     -2.766398    -1.080563     0.470208
Gh(H)     -2.207598    -1.857753     0.314154
Gh(H)     -3.672582    -1.339756     0.204091
Gh(O)     -0.915396    -1.287261    -2.285458
Gh(H)     -1.083095    -2.273539    -2.500910
Gh(H)     -0.460494    -0.980307    -3.123591

units ang
no_reorient
no_com
symmetry c1
}

set {
basis        aug-cc-pVTZ
scf_type     df
}

energy("mp2")
--------------------------------------------------------------------------

    Molecular point group: c1

    Geometry (in Angstrom), charge = 1, multiplicity = 1:

       Center              X                  Y                   Z               Mass
    ------------   -----------------  -----------------  -----------------  -----------------
         K            0.000000000000     0.000000000000     0.000000000000    38.963706486400
      Gh(O)           2.433312000000    -0.711261000000    -0.876073000000    15.994914619570
      Gh(H)           3.025721000000     0.045558000000    -0.738606000000     1.007825032230
      Gh(H)           2.646594000000    -0.978885000000    -1.800154000000     1.007825032230
      Gh(O)           0.729442000000     2.374627000000     0.909651000000    15.994914619570
      Gh(H)           1.436876000000     2.682600000000     1.537697000000     1.007825032230
      Gh(H)           0.607664000000     3.130167000000     0.287856000000     1.007825032230
      Gh(O)          -0.423164000000    -2.596708000000     0.556853000000    15.994914619570
      Gh(H)          -0.086692000000    -3.420156000000     0.268816000000     1.007825032230
      Gh(H)          -0.158458000000    -2.540686000000     1.533756000000     1.007825032230
      Gh(O)          -2.766398000000    -1.080563000000     0.470208000000    15.994914619570
      Gh(H)          -2.207598000000    -1.857753000000     0.314154000000     1.007825032230
      Gh(H)          -3.672582000000    -1.339756000000     0.204091000000     1.007825032230
      Gh(O)          -0.915396000000    -1.287261000000    -2.285458000000    15.994914619570
      Gh(H)          -1.083095000000    -2.273539000000    -2.500910000000     1.007825032230
      Gh(H)          -0.460494000000    -0.980307000000    -3.123591000000     1.007825032230

  Charge       = 1
  Multiplicity = 1
  Basis Set: AUG-CC-PVTZ
    Blend: AUG-CC-PVTZ
  Basis Set: (AUG-CC-PVTZ AUX)
    Blend: AUG-CC-PVTZ-JKFIT + DEF2-UNIVERSAL-JKFIT

    Orbital Energies [Eh]
    ---------------------

    Doubly Occupied:

       1A   -133.752578     2A    -14.708262     3A    -11.738324
       4A    -11.738322     5A    -11.738321     6A     -1.963912
       7A     -1.170629     8A     -1.170610     9A     -1.170589

  @DF-RHF Final Energy:  -599.01751611363204

   => Energetics <=

    Nuclear Repulsion Energy =              0.0000000000000000
    One-Electron Energy =                -819.7319397165272221
    Two-Electron Energy =                 220.7144236028951241
    Total Energy =                       -599.0175161136321549
 Dipole X            :          0.0000409            0.0000000            0.0000409
 Dipole Y            :         -0.0001566            0.0000000           -0.0001566
 Dipole Z            :         -0.0000725            0.0000000           -0.0000725
 Magnitude           :                                                    0.0001774
  Basis Set: (AUG-CC-PVTZ AUX)
    Blend: AUG-CC-PVTZ-RI + DEF2-QZVPP-RI
	 Reference Energy          =    -599.0175161136320412 [Eh]
	 Singles Energy            =      -0.0000000000000000 [Eh]
	 Same-Spin Energy          =      -0.0371305228019589 [Eh]
	 Opposite-Spin Energy      =      -0.0905752093275617 [Eh]
	 Correlation Energy        =      -0.1277057321295206 [Eh]
	 Total Energy              =    -599.1452218457615118 [Eh]

	 ================> DF-SCS-MP2 Energies <==================
	-----------------------------------------------------------
	 SCS Same-Spin Scale       =       0.3333333333333333 [-]
	 SCS Opposite-Spin Scale   =       1.2000000000000000 [-]
	 SCS Same-Spin Energy      =      -0.0123768409339863 [Eh]
	 SCS Opposite-Spin Energy  =      -0.1086902511930740 [Eh]
	 SCS Correlation Energy    =      -0.1210670921270603 [Eh]
	 SCS Total Energy          =    -599.1385832057591188 [Eh]
	-----------------------------------------------------------

*** Psi4 exiting successfully. Buy a developer a beer!
