                               Psi4 1.9 release

  ==> Input File <==

--------------------------------------------------------------------------
MEMORY 60 GB

molecule dimer {
1 1
K          0.000000     0.000000     0.000000
Gh(O)      2.076023    -1.563908     0.741741
Gh(H)      2.860617    -0.996316     0.828705
Gh(H)      1.615351    -1.618906     1.563939
Gh(O)     -1.095486     0.399597     2.643072
Gh(H)     -0.801901     1.238172     2.228137
Gh(H)     -2.076198     0.356254     2.753986
Gh(O)     -2.028741     1.602653    -1.083314
Gh(H)     -2.848075     1.047294    -0.966116
Gh(H)     -1.766923     1.523944    -2.040760
Gh(O)      0.327369     2.348814     1.409380
Gh(H)      0.118789     3.251871     1.602415
Gh(H)      1.209539     2.243806     1.770572
Gh(O)      2.277164     1.411722    -0.881632
Gh(H)      2.742637     1.640937    -0.087027
Gh(H)      2.895810     0.946922    -1.465846
Gh(O)      0.049667    -1.666994    -2.004447
Gh(H)     -0.029129    -1.163117    -2.830753
Gh(H)      0.898871    -2.063134    -2.055004

units ang
no_reorient
no_com
symmetry c1
}

set {
basis        aug-cc-pVTZ
scf_type     df
}

energy("mp2")
--------------------------------------------------------------------------

    Molecular point group: c1

    Geometry (in Angstrom), charge = 1, multiplicity = 1:

       Center              X                  Y                   Z               Mass
    ------------   -----------------  -----------------  -----------------  -----------------
         K            0.000000000000     0.000000000000     0.000000000000    38.963706486400
      Gh(O)           2.076023000000    -1.563908000000     0.741741000000    15.994914619570
      Gh(H)           2.860617000000    -0.996316000000     0.828705000000     1.007825032230
      Gh(H)           1.615351000000    -1.618906000000     1.563939000000     1.007825032230
      Gh(O)          -1.095486000000     0.399597000000     2.643072000000    15.994914619570
      Gh(H)          -0.801901000000     1.238172000000     2.228137000000     1.007825032230
      Gh(H)          -2.076198000000     0.356254000000     2.753986000000     1.007825032230
      Gh(O)          -2.028741000000     1.602653000000    -1.083314000000    15.994914619570
      Gh(H)          -2.848075000000     1.047294000000    -0.966116000000     1.007825032230
      Gh(H)          -1.766923000000     1.523944000000    -2.040760000000     1.007825032230
      Gh(O)           0.327369000000     2.348814000000     1.409380000000    15.994914619570
      Gh(H)           0.118789000000     3.251871000000     1.602415000000     1.007825032230
      Gh(H)           1.209539000000     2.243806000000     1.770572000000     1.007825032230
      Gh(O)           2.277164000000     1.411722000000    -0.881632000000    15.994914619570
      Gh(H)           2.742637000000     1.640937000000    -0.087027000000     1.007825032230
      Gh(H)           2.895810000000     0.946922000000    -1.465846000000     1.007825032230
      Gh(O)           0.049667000000    -1.666994000000    -2.004447000000    15.994914619570
      Gh(H)          -0.029129000000    -1.163117000000    -2.830753000000     1.007825032230
      Gh(H)           0.898871000000    -2.063134000000    -2.055004000000     1.007825032230

  Charge       = 1
  Multiplicity = 1
  Basis Set: AUG-CC-PVTZ
    Blend: AUG-CC-PVTZ
  Basis Set: (AUG-CC-PVTZ AUX)
    Blend: AUG-CC-PVTZ-JKFIT + DEF2-UNIVERSAL-JKFIT

    Orbital Energies [Eh]
    ---------------------

    Doubly Occupied:

       1A   -133.752360     2A    -14.708094     3A    -11.738153
       4A    -11.738152     5A    -11.738150     6A     -1.963842
       7A     -1.170562     8A     -1.170561     9A     -1.170535

  @DF-RHF Final Energy:  -599.01751734240247

   => Energetics <=

    Nuclear Repulsion Energy =              0.0000000000000000
    One-Electron Energy =                -819.7342195239124294
    Two-Electron Energy =                 220.7167021815100156
    Total Energy =                       -599.0175173424024706
 Dipole X            :          0.0001328            0.0000000            0.0001328
 Dipole Y            :          0.0000955            0.0000000            0.0000955
 Dipole Z            :         -0.0000042            0.0000000           -0.0000042
 Magnitude           :                                                    0.0001636
  Basis Set: (AUG-CC-PVTZ AUX)
    Blend: AUG-CC-PVTZ-RI + DEF2-QZVPP-RI
	 Reference Energy          =    -599.0175173424024706 [Eh]
	 Singles Energy            =      -0.0000000000000000 [Eh]
	 Same-Spin Energy          =      -0.0395180175426829 [Eh]
	 Opposite-Spin Energy      =      -0.0973692538148949 [Eh]
	 Correlation Energy        =      -0.1368872713575778 [Eh]
	 Total Energy              =    -599.1544046137599935 [Eh]

	 ================> DF-SCS-MP2 Energies <==================
	-----------------------------------------------------------
	 SCS Same-Spin Scale       =       0.3333333333333333 [-]
	 SCS Opposite-Spin Scale   =       1.2000000000000000 [-]
	 SCS Same-Spin Energy      =      -0.0131726725142276 [Eh]
	 SCS Opposite-Spin Energy  =      -0.1168431045778739 [Eh]
	 SCS Correlation Energy    =      -0.1300157770921015 [Eh]
	 SCS Total Energy          =    -599.1475331194945966 [Eh]
	-----------------------------------------------------------

*** Psi4 exiting successfully. Buy a developer a beer!
