                               Psi4 1.9 release

  ==> Input File <==

--------------------------------------------------------------------------
MEMORY 60 GB

molecule dimer {
1 1
K          0.000000     0.000000     0.000000
O         -1.476491    -0.756259     2.290019
H         -1.759686    -1.376309     1.544947
H         -2.291192    -0.305429     2.556178
O         -2.631532     1.181732    -0.243706
H         -2.245032     1.740452    -0.949982
H         -2.984989     1.700291     0.504715
O          1.975492    -0.044738    -1.728567
H          2.884251    -0.090974    -1.517372
H          1.820966    -0.995882    -1.782993
O          2.397673    -0.356089     1.291352
H          2.935808    -0.353847     0.513619
H          2.540992     0.514317     1.727057
O         -0.114464     2.275923     1.666919
H         -0.924524     2.782367     1.384837
H          0.519910     2.828453     2.078350
O         -1.132358    -0.800595    -2.392425
H         -1.671831    -1.510047    -1.934175
H         -1.222263    -0.893060    -3.357476

units ang
no_reorient
no_com
symmetry c1
}

set {
basis        aug-cc-pVTZ
scf_type     df
}

energy("mp2")
--------------------------------------------------------------------------

    Molecular point group: c1

    Geometry (in Angstrom), charge = 1, multiplicity = 1:

       Center              X                  Y                   Z               Mass
    ------------   -----------------  -----------------  -----------------  -----------------
         K            0.000000000000     0.000000000000     0.000000000000    38.963706486400
         O           -1.476491000000    -0.756259000000     2.290019000000    15.994914619570
         H           -1.759686000000    -1.376309000000     1.544947000000     1.007825032230
         H           -2.291192000000    -0.305429000000     2.556178000000     1.007825032230
         O           -2.631532000000     1.181732000000    -0.243706000000    15.994914619570
         H           -2.245032000000     1.740452000000    -0.949982000000     1.007825032230
         H           -2.984989000000     1.700291000000     0.504715000000     1.007825032230
         O            1.975492000000    -0.044738000000    -1.728567000000    15.994914619570
         H            2.884251000000    -0.090974000000    -1.517372000000     1.007825032230
         H            1.820966000000    -0.995882000000    -1.782993000000     1.007825032230
         O            2.397673000000    -0.356089000000     1.291352000000    15.994914619570
         H            2.935808000000    -0.353847000000     0.513619000000     1.007825032230
         H            2.540992000000     0.514317000000     1.727057000000     1.007825032230
         O           -0.114464000000     2.275923000000     1.666919000000    15.994914619570
         H           -0.924524000000     2.782367000000     1.384837000000     1.007825032230
         H            0.519910000000     2.828453000000     2.078350000000     1.007825032230
         O           -1.132358000000    -0.800595000000    -2.392425000000    15.994914619570
         H           -1.671831000000    -1.510047000000    -1.934175000000     1.007825032230
         H           -1.222263000000    -0.893060000000    -3.357476000000     1.007825032230

  Charge       = 1
  Multiplicity = 1
  Basis Set: AUG-CC-PVTZ
    Blend: AUG-CC-PVTZ
  Basis Set: (AUG-CC-PVTZ AUX)
    Blend: AUG-CC-PVTZ-JKFIT + DEF2-UNIVERSAL-JKFIT

    Orbital Energies [Eh]
    ---------------------

    Doubly Occupied:

       1A   -133.602253     2A    -20.723281     3A    -20.718116
       4A    -20.714514     5A    -20.709650     6A    -20.706888
       7A    -20.702623     8A    -14.560408     9A    -11.590359
      10A    -11.590158    11A    -11.590082    12A     -1.824539
      13A     -1.524131    14A     -1.492474    15A     -1.491868
      16A     -1.488021    17A     -1.486133    18A     -1.470861
      19A     -1.037210    20A     -1.035132    21A     -1.032741
      22A     -0.875282    23A     -0.869594    24A     -0.868380
      25A     -0.861132    26A     -0.856083    27A     -0.833736
      28A     -0.761986    29A     -0.727196    30A     -0.724301
      31A     -0.721259    32A     -0.718518    33A     -0.708508
      34A     -0.678122    35A     -0.659140    36A     -0.658203
      37A     -0.656082    38A     -0.649646    39A     -0.639104

  @DF-RHF Final Energy: -1055.42755521587651

   => Energetics <=

    Nuclear Repulsion Energy =            459.8440164974945787
    One-Electron Energy =               -2361.4277100401268399
    Two-Electron Energy =                 846.1561383267559222
    Total Energy =                      -1055.4275552158765095
 Dipole X            :         19.0208650          -19.3716392           -0.3507742
 Dipole Y            :        -29.4159912           30.3114414            0.8954502
 Dipole Z            :        -15.4683633           14.8087273           -0.6596360
 Magnitude           :                                                    1.1661875
  Basis Set: (AUG-CC-PVTZ AUX)
    Blend: AUG-CC-PVTZ-RI + DEF2-QZVPP-RI
	 Reference Energy          =   -1055.4275552158765095 [Eh]
	 Singles Energy            =      -0.0000000000000000 [Eh]
	 Same-Spin Energy          =      -0.4590127124050738 [Eh]
	 Opposite-Spin Energy      =      -1.4007757369934697 [Eh]
	 Correlation Energy        =      -1.8597884493985435 [Eh]
	 Total Energy              =   -1057.2873436652751025 [Eh]

	 ================> DF-SCS-MP2 Energies <==================
	-----------------------------------------------------------
	 SCS Same-Spin Scale       =       0.3333333333333333 [-]
	 SCS Opposite-Spin Scale   =       1.2000000000000000 [-]
	 SCS Same-Spin Energy      =      -0.1530042374683579 [Eh]
	 SCS Opposite-Spin Energy  =      -1.6809308843921635 [Eh]
	 SCS Correlation Energy    =      -1.8339351218605215 [Eh]
	 SCS Total Energy          =   -1057.2614903377370865 [Eh]
	-----------------------------------------------------------

*** Psi4 exiting successfully. Buy a developer a beer!
