                               Psi4 1.9 release

  ==> Input File <==

--------------------------------------------------------------------------
MEMORY 60 GB

molecule dimer {
1 1
K          0.000000     0.000000     0.000000
O          2.272527     0.834421     1.230172
H          3.156809     0.859433     1.570041
H          1.902975     1.732978     1.301596
O          0.185748     2.476480    -0.876487
H          0.842743     2.672524    -1.589365
H         -0.626338     3.014926    -1.032709
O         -2.131224    -1.837640     0.690354
H         -1.873645    -2.481649     0.070656
H         -3.071086    -1.700625     0.593753
O         -0.751067    -0.447311    -2.432427
H         -0.567099     0.174959    -3.128552
H         -1.309564    -1.096906    -2.897071
O         -0.308389    -1.371161     2.595177
H         -1.066393    -1.718449     2.157600
H         -0.406916    -1.685150     3.506362

units ang
no_reorient
no_com
symmetry c1
}

set {
basis        aug-cc-pVTZ
scf_type     df
}

energy("mp2")
--------------------------------------------------------------------------

    Molecular point group: c1

    Geometry (in Angstrom), charge = 1, multiplicity = 1:

       Center              X                  Y                   Z               Mass
    ------------   -----------------  -----------------  -----------------  -----------------
         K            0.000000000000     0.000000000000     0.000000000000    38.963706486400
         O            2.272527000000     0.834421000000     1.230172000000    15.994914619570
         H            3.156809000000     0.859433000000     1.570041000000     1.007825032230
         H            1.902975000000     1.732978000000     1.301596000000     1.007825032230
         O            0.185748000000     2.476480000000    -0.876487000000    15.994914619570
         H            0.842743000000     2.672524000000    -1.589365000000     1.007825032230
         H           -0.626338000000     3.014926000000    -1.032709000000     1.007825032230
         O           -2.131224000000    -1.837640000000     0.690354000000    15.994914619570
         H           -1.873645000000    -2.481649000000     0.070656000000     1.007825032230
         H           -3.071086000000    -1.700625000000     0.593753000000     1.007825032230
         O           -0.751067000000    -0.447311000000    -2.432427000000    15.994914619570
         H           -0.567099000000     0.174959000000    -3.128552000000     1.007825032230
         H           -1.309564000000    -1.096906000000    -2.897071000000     1.007825032230
         O           -0.308389000000    -1.371161000000     2.595177000000    15.994914619570
         H           -1.066393000000    -1.718449000000     2.157600000000     1.007825032230
         H           -0.406916000000    -1.685150000000     3.506362000000     1.007825032230

  Charge       = 1
  Multiplicity = 1
  Basis Set: AUG-CC-PVTZ
    Blend: AUG-CC-PVTZ
  Basis Set: (AUG-CC-PVTZ AUX)
    Blend: AUG-CC-PVTZ-JKFIT + DEF2-UNIVERSAL-JKFIT

    Orbital Energies [Eh]
    ---------------------

    Doubly Occupied:

       1A   -133.601793     2A    -20.728007     3A    -20.727151
       4A    -20.725515     5A    -20.692339     6A    -20.661194
       7A    -14.559813     8A    -11.589759     9A    -11.589622
      10A    -11.589517    11A     -1.823293    12A     -1.527996
      13A     -1.516149    14A     -1.497152    15A     -1.478841
      16A     -1.455096    17A     -1.035510    18A     -1.033503
      19A     -1.032386    20A     -0.897533    21A     -0.870790
      22A     -0.868560    23A     -0.850526    24A     -0.836987
      25A     -0.760906    26A     -0.743759    27A     -0.738606
      28A     -0.713622    29A     -0.695345    30A     -0.676498
      31A     -0.673013    32A     -0.668525    33A     -0.638521
      34A     -0.610911

  @DF-RHF Final Energy:  -979.39890207204951

   => Energetics <=

    Nuclear Repulsion Energy =            350.1127653945520137
    One-Electron Energy =               -2038.8058566576432895
    Two-Electron Energy =                 709.2941891910417098
    Total Energy =                       -979.3989020720495091
 Dipole X            :         15.5714698          -16.7765237           -1.2050539
 Dipole Y            :          6.0064624           -5.6496140            0.3568483
 Dipole Z            :        -20.7140547           19.2877221           -1.4263326
 Magnitude           :                                                    1.9010314
  Basis Set: (AUG-CC-PVTZ AUX)
    Blend: AUG-CC-PVTZ-RI + DEF2-QZVPP-RI
	 Reference Energy          =    -979.3989020720495091 [Eh]
	 Singles Energy            =      -0.0000000000000000 [Eh]
	 Same-Spin Energy          =      -0.3860263835222179 [Eh]
	 Opposite-Spin Energy      =      -1.1731503135713184 [Eh]
	 Correlation Energy        =      -1.5591766970935363 [Eh]
	 Total Energy              =    -980.9580787691430714 [Eh]

	 ================> DF-SCS-MP2 Energies <==================
	-----------------------------------------------------------
	 SCS Same-Spin Scale       =       0.3333333333333333 [-]
	 SCS Opposite-Spin Scale   =       1.2000000000000000 [-]
	 SCS Same-Spin Energy      =      -0.1286754611740726 [Eh]
	 SCS Opposite-Spin Energy  =      -1.4077803762855821 [Eh]
	 SCS Correlation Energy    =      -1.5364558374596546 [Eh]
	 SCS Total Energy          =    -980.9353579095092073 [Eh]
	-----------------------------------------------------------

*** Psi4 exiting successfully. Buy a developer a beer!
