                               Psi4 1.9 release

  ==> Input File <==

--------------------------------------------------------------------------
MEMORY 60 GB

molecule dimer {
0 1
Gh(K)      0.000000     0.000000     0.000000
Gh(O)     -1.997620    -2.162061    -0.813178
Gh(H)     -2.773802    -1.606737    -0.549995
Gh(H)     -1.592061    -2.558739    -0.032556
Gh(O)      0.414858    -0.225799    -2.631086
Gh(H)      1.352700    -0.013745    -2.767381
Gh(H)      0.050193    -0.688976    -3.401864
Gh(O)     -2.631714     0.983286    -0.637732
Gh(H)     -3.404075     1.007670    -0.141584
Gh(H)     -2.832941     1.458279    -1.450706
Gh(O)      1.202232    -0.677975     2.440207
Gh(H)      2.075392    -1.063868     2.278000
Gh(H)      0.927402    -1.109896     3.256085
Gh(O)     -0.234521    -2.746344     1.303637
Gh(H)     -0.487511    -2.096140     1.982125
Gh(H)      0.699833    -2.781795     1.295536
O          0.306745     2.542586     1.554188
H          0.463644     2.471048     2.452764
H         -0.325900     3.267043     1.361577

units ang
no_reorient
no_com
symmetry c1
}

set {
basis        aug-cc-pVTZ
scf_type     df
}

energy("mp2")
--------------------------------------------------------------------------

    Molecular point group: c1

    Geometry (in Angstrom), charge = 0, multiplicity = 1:

       Center              X                  Y                   Z               Mass
    ------------   -----------------  -----------------  -----------------  -----------------
      Gh(K)           0.000000000000     0.000000000000     0.000000000000    38.963706486400
      Gh(O)          -1.997620000000    -2.162061000000    -0.813178000000    15.994914619570
      Gh(H)          -2.773802000000    -1.606737000000    -0.549995000000     1.007825032230
      Gh(H)          -1.592061000000    -2.558739000000    -0.032556000000     1.007825032230
      Gh(O)           0.414858000000    -0.225799000000    -2.631086000000    15.994914619570
      Gh(H)           1.352700000000    -0.013745000000    -2.767381000000     1.007825032230
      Gh(H)           0.050193000000    -0.688976000000    -3.401864000000     1.007825032230
      Gh(O)          -2.631714000000     0.983286000000    -0.637732000000    15.994914619570
      Gh(H)          -3.404075000000     1.007670000000    -0.141584000000     1.007825032230
      Gh(H)          -2.832941000000     1.458279000000    -1.450706000000     1.007825032230
      Gh(O)           1.202232000000    -0.677975000000     2.440207000000    15.994914619570
      Gh(H)           2.075392000000    -1.063868000000     2.278000000000     1.007825032230
      Gh(H)           0.927402000000    -1.109896000000     3.256085000000     1.007825032230
      Gh(O)          -0.234521000000    -2.746344000000     1.303637000000    15.994914619570
      Gh(H)          -0.487511000000    -2.096140000000     1.982125000000     1.007825032230
      Gh(H)           0.699833000000    -2.781795000000     1.295536000000     1.007825032230
         O            0.306745000000     2.542586000000     1.554188000000    15.994914619570
         H            0.463644000000     2.471048000000     2.452764000000     1.007825032230
         H           -0.325900000000     3.267043000000     1.361577000000     1.007825032230

  Charge       = 0
  Multiplicity = 1
  Basis Set: AUG-CC-PVTZ
    Blend: AUG-CC-PVTZ
  Basis Set: (AUG-CC-PVTZ AUX)
    Blend: AUG-CC-PVTZ-JKFIT + DEF2-UNIVERSAL-JKFIT

    Orbital Energies [Eh]
    ---------------------

    Doubly Occupied:

       1A    -20.562204     2A     -1.354763     3A     -0.735763
       4A     -0.573422     5A     -0.509249

  @DF-RHF Final Energy:   -76.05813915789909

   => Energetics <=

    Nuclear Repulsion Energy =              9.2808906682122334
    One-Electron Energy =                -123.2072526477151939
    Two-Electron Energy =                  37.8682228216038723
    Total Energy =                        -76.0581391578990917
 Dipole X            :         -5.2180696            4.8976108           -0.3204589
 Dipole Y            :        -48.8398230           49.2817500            0.4419270
 Dipole Z            :        -30.2148039           30.7039772            0.4891733
 Magnitude           :                                                    0.7329965
  Basis Set: (AUG-CC-PVTZ AUX)
    Blend: AUG-CC-PVTZ-RI + DEF2-QZVPP-RI
	 Reference Energy          =     -76.0581391578990917 [Eh]
	 Singles Energy            =      -0.0000000000000000 [Eh]
	 Same-Spin Energy          =      -0.0681289044933390 [Eh]
	 Opposite-Spin Energy      =      -0.2147291777193417 [Eh]
	 Correlation Energy        =      -0.2828580822126807 [Eh]
	 Total Energy              =     -76.3409972401117756 [Eh]

	 ================> DF-SCS-MP2 Energies <==================
	-----------------------------------------------------------
	 SCS Same-Spin Scale       =       0.3333333333333333 [-]
	 SCS Opposite-Spin Scale   =       1.2000000000000000 [-]
	 SCS Same-Spin Energy      =      -0.0227096348311130 [Eh]
	 SCS Opposite-Spin Energy  =      -0.2576750132632101 [Eh]
	 SCS Correlation Energy    =      -0.2803846480943231 [Eh]
	 SCS Total Energy          =     -76.3385238059934181 [Eh]
	-----------------------------------------------------------

*** Psi4 exiting successfully. Buy a developer a beer!
