                               Psi4 1.9 release

  ==> Input File <==

--------------------------------------------------------------------------
MEMORY 60 GB

molecule dimer {
1 1
K      0.000000     0.000000     0.000000
--
0 1
O      2.852757    -0.334051    -0.186806
H      3.665059    -0.772002     0.113705
H      2.976979    -0.248733    -1.158383
O     -1.826235    -0.322399    -1.984574
H     -1.297659    -0.061936    -2.754238
H     -1.684865    -1.318774    -1.991083
O     -0.349652    -2.346622     1.050442
H      0.209215    -3.119233     1.249847
H     -1.269300    -2.641149     1.131510
O     -1.923855    -0.178301     2.183220
H     -1.437654    -1.016009     2.224042
H     -2.508504    -0.247868     1.457316
O      0.850534    -1.021556    -2.165011
H      0.594881    -1.697915    -2.784155
H      1.648642    -0.724977    -2.660875

units ang
no_reorient
no_com
symmetry c1
}

set {
basis        aug-cc-pVTZ
scf_type     df
}

energy("mp2", bsse_type="cp")
--------------------------------------------------------------------------

                               Psi4 1.9 release
    Molecular point group: c1
  Charge       = 0
  Multiplicity = 1
  Basis Set: AUG-CC-PVTZ
    Blend: AUG-CC-PVTZ
  Basis Set: (AUG-CC-PVTZ AUX)
    Blend: AUG-CC-PVTZ-JKFIT + DEF2-UNIVERSAL-JKFIT
  @DF-RHF Final Energy:  -380.26957054304313
    Total Energy =                       -380.2695705430431303
 Dipole X            :          5.5492691           -4.2987754            1.2504937
 Dipole Y            :         83.6743553          -85.9296793           -2.2553239
 Dipole Z            :         24.5563640          -26.4451033           -1.8887393
 Magnitude           :                                                    3.1964913
  Basis Set: (AUG-CC-PVTZ AUX)
    Blend: AUG-CC-PVTZ-RI + DEF2-QZVPP-RI
	 Reference Energy          =    -380.2695705430431303 [Eh]
	 Singles Energy            =      -0.0000000000000000 [Eh]
	 Same-Spin Energy          =      -0.3476475210834032 [Eh]
	 Opposite-Spin Energy      =      -1.0878129659836304 [Eh]
	 Correlation Energy        =      -1.4354604870670336 [Eh]
	 Total Energy              =    -381.7050310301101490 [Eh]
	 SCS Total Energy          =    -381.6908286092512981 [Eh]
                               Psi4 1.9 release
    Molecular point group: c1
  Multiplicity = 1
  Basis Set: AUG-CC-PVTZ
    Blend: AUG-CC-PVTZ
  Basis Set: (AUG-CC-PVTZ AUX)
    Blend: AUG-CC-PVTZ-JKFIT + DEF2-UNIVERSAL-JKFIT
  @DF-RHF Final Energy:  -599.01751616167144
    Total Energy =                       -599.0175161616714377
  Basis Set: (AUG-CC-PVTZ AUX)
	 Singles Energy            =      -0.0000000000000000 [Eh]
	 Same-Spin Energy          =      -0.0377130894251936 [Eh]
	 Opposite-Spin Energy      =      -0.0921297369149829 [Eh]
	 Correlation Energy        =      -0.1298428263401764 [Eh]
	 Total Energy              =    -599.1473589880116606 [Eh]
	 SCS Total Energy          =    -599.1406428757778713 [Eh]
                               Psi4 1.9 release
    Molecular point group: c1

    Geometry (in Bohr), charge = 1, multiplicity = 1:

       Center              X                  Y                   Z               Mass
    ------------   -----------------  -----------------  -----------------  -----------------
         K            0.000000000000     0.000000000000     0.000000000000    38.963706486400
         O            5.390929432483    -0.631264901935    -0.353012178592    15.994914619570
         H            6.925957743644    -1.458872348306     0.214871309095     1.007825032230
         H            5.625674991239    -0.470037248364    -2.189026618386     1.007825032230
         O           -3.451083990725    -0.609245813121    -3.750301335704    15.994914619570
         H           -2.452220114235    -0.117042077306    -5.204755504329     1.007825032230
         H           -3.183933408370    -2.492121681375    -3.762601563055     1.007825032230
         O           -0.660746519219    -4.434472899974     1.985047690678    15.994914619570
         H            0.395359051338    -5.894496091490     2.361868528725     1.007825032230
         H           -2.398629371044    -4.991048266527     2.138244008217     1.007825032230
         O           -3.635559055093    -0.336940057895     4.125687871622    15.994914619570
         H           -2.716772323169    -1.919978751000     4.202830271515     1.007825032230
         H           -4.740385544615    -0.468402635265     2.753928118248     1.007825032230
         O            1.607276320390    -1.930461061818    -4.091277848604    15.994914619570
         H            1.124162167238    -3.208594334307    -5.261290440824     1.007825032230
         H            3.115481858927    -1.370007977256    -5.028325004078     1.007825032230

  Charge       = 1
  Multiplicity = 1
  Basis Set: AUG-CC-PVTZ
    Blend: AUG-CC-PVTZ
  Basis Set: (AUG-CC-PVTZ AUX)
    Blend: AUG-CC-PVTZ-JKFIT + DEF2-UNIVERSAL-JKFIT

    Orbital Energies [Eh]
    ---------------------

    Doubly Occupied:

       1A   -133.613552     2A    -20.752064     3A    -20.744964
       4A    -20.722419     5A    -20.718292     6A    -20.694597
       7A    -14.571786     8A    -11.601647     9A    -11.601538
      10A    -11.601527    11A     -1.836147    12A     -1.543181
      13A     -1.528861    14A     -1.495421    15A     -1.494061
      16A     -1.488491    17A     -1.048933    18A     -1.047659
      19A     -1.044630    20A     -0.899083    21A     -0.889026
      22A     -0.855304    23A     -0.851568    24A     -0.846783
      25A     -0.794375    26A     -0.767789    27A     -0.743881
      28A     -0.737744    29A     -0.717376    30A     -0.702297
      31A     -0.686379    32A     -0.662073    33A     -0.655760
      34A     -0.643461

  @DF-RHF Final Energy:  -979.36286612025833

   => Energetics <=

    Nuclear Repulsion Energy =            363.0167836196374083
    One-Electron Energy =               -2063.5539541915200061
    Two-Electron Energy =                 721.1743044516242662
    Total Energy =                       -979.3628661202583316
 Dipole X            :          5.5674226           -4.2987754            1.2686471
 Dipole Y            :         83.1965124          -85.9296793           -2.7331669
 Dipole Z            :         24.3669854          -26.4451033           -2.0781179
 Magnitude           :                                                    3.6603608
  Basis Set: (AUG-CC-PVTZ AUX)
    Blend: AUG-CC-PVTZ-RI + DEF2-QZVPP-RI
	 Reference Energy          =    -979.3628661202583316 [Eh]
	 Singles Energy            =      -0.0000000000000000 [Eh]
	 Same-Spin Energy          =      -0.3891306130219830 [Eh]
	 Opposite-Spin Energy      =      -1.1801357475489802 [Eh]
	 Correlation Energy        =      -1.5692663605709631 [Eh]
	 Total Energy              =    -980.9321324808292957 [Eh]

	 ================> DF-SCS-MP2 Energies <==================
	-----------------------------------------------------------
	 SCS Same-Spin Scale       =       0.3333333333333333 [-]
	 SCS Opposite-Spin Scale   =       1.2000000000000000 [-]
	 SCS Same-Spin Energy      =      -0.1297102043406610 [Eh]
	 SCS Opposite-Spin Energy  =      -1.4161628970587763 [Eh]
	 SCS Correlation Energy    =      -1.5458731013994373 [Eh]
	 SCS Total Energy          =    -980.9087392216578110 [Eh]
	-----------------------------------------------------------

*** Psi4 exiting successfully. Buy a developer a beer!
