                               Psi4 1.9 release

  ==> Input File <==

--------------------------------------------------------------------------
MEMORY 60 GB

molecule dimer {
1 1
K      0.000000     0.000000     0.000000
--
0 1
O      0.913124     1.392044     2.215266
H      0.107898     1.589882     2.707194
H      1.074752     2.048582     1.547337
O      2.026680    -1.153352    -1.012698
H      2.858159    -1.449304    -0.567475
H      2.342505    -0.543742    -1.689308
O     -1.825857    -2.133558     0.355993
H     -1.430944    -2.920093     0.805392
H     -1.781389    -2.429058    -0.509967
O     -1.999435     0.997352    -1.712310
H     -1.916758     1.159308    -2.674599
H     -2.643508     1.624790    -1.332880
O     -2.230302     0.207585     1.991219
H     -2.672649     0.382701     2.901728
H     -2.200317    -0.765324     1.906808

units ang
no_reorient
no_com
symmetry c1
}

set {
basis        aug-cc-pVTZ
scf_type     df
}

energy("mp2", bsse_type="cp")
--------------------------------------------------------------------------

                               Psi4 1.9 release
    Molecular point group: c1
  Charge       = 0
  Multiplicity = 1
  Basis Set: AUG-CC-PVTZ
    Blend: AUG-CC-PVTZ
  Basis Set: (AUG-CC-PVTZ AUX)
    Blend: AUG-CC-PVTZ-JKFIT + DEF2-UNIVERSAL-JKFIT
  @DF-RHF Final Energy:  -380.28437153755402
    Total Energy =                       -380.2843715375540228
 Dipole X            :         58.8934966          -58.9378574           -0.0443608
 Dipole Y            :         12.8447823          -12.8911258           -0.0463435
 Dipole Z            :        -34.1880495           33.6257678           -0.5622818
 Magnitude           :                                                    0.5659297
  Basis Set: (AUG-CC-PVTZ AUX)
    Blend: AUG-CC-PVTZ-RI + DEF2-QZVPP-RI
	 Reference Energy          =    -380.2843715375540228 [Eh]
	 Singles Energy            =      -0.0000000000000000 [Eh]
	 Same-Spin Energy          =      -0.3455180673033351 [Eh]
	 Opposite-Spin Energy      =      -1.0845206774692633 [Eh]
	 Correlation Energy        =      -1.4300387447725984 [Eh]
	 Total Energy              =    -381.7144102823266394 [Eh]
	 SCS Total Energy          =    -381.7009690396182577 [Eh]
                               Psi4 1.9 release
    Molecular point group: c1
  Multiplicity = 1
  Basis Set: AUG-CC-PVTZ
    Blend: AUG-CC-PVTZ
  Basis Set: (AUG-CC-PVTZ AUX)
    Blend: AUG-CC-PVTZ-JKFIT + DEF2-UNIVERSAL-JKFIT
  @DF-RHF Final Energy:  -599.01751602840841
    Total Energy =                       -599.0175160284084086
  Basis Set: (AUG-CC-PVTZ AUX)
	 Singles Energy            =      -0.0000000000000000 [Eh]
	 Same-Spin Energy          =      -0.0368705286138104 [Eh]
	 Opposite-Spin Energy      =      -0.0896808562053444 [Eh]
	 Correlation Energy        =      -0.1265513848191548 [Eh]
	 Total Energy              =    -599.1440674132276172 [Eh]
	 SCS Total Energy          =    -599.1374232320594047 [Eh]
                               Psi4 1.9 release
    Molecular point group: c1

    Geometry (in Bohr), charge = 1, multiplicity = 1:

       Center              X                  Y                   Z               Mass
    ------------   -----------------  -----------------  -----------------  -----------------
         K            0.000000000000     0.000000000000     0.000000000000    38.963706486400
         O            1.725554278583     2.630581914587     4.186246035038    15.994914619570
         H            0.203897669485     3.004441551795     5.115855228483     1.007825032230
         H            2.030986932788     3.871258925543     2.924043153788     1.007825032230
         O            3.829870143943    -2.179519406249    -1.913721867799    15.994914619570
         H            5.401137733012    -2.738787632531    -1.072372333044     1.007825032230
         H            4.426692897516    -1.027523462909    -3.192329461545     1.007825032230
         O           -3.450369674250    -4.031840292780     0.672729272580    15.994914619570
         H           -2.704092260867    -5.518176030867     1.521970303635     1.007825032230
         H           -3.366337332903    -4.590254362852    -0.963697963021     1.007825032230
         O           -3.778384555655     1.884722130678    -3.235796941883    15.994914619570
         H           -3.622147668780     2.190774615052    -5.054259605423     1.007825032230
         H           -4.995506130457     3.070408111383    -2.518778158100     1.007825032230
         O           -4.214659957061     0.392278797753     3.762858565808    15.994914619570
         H           -5.050574639479     0.723200077939     5.483471210572     1.007825032230
         H           -4.157996519189    -1.446252757240     3.603344893832     1.007825032230

  Charge       = 1
  Multiplicity = 1
  Basis Set: AUG-CC-PVTZ
    Blend: AUG-CC-PVTZ
  Basis Set: (AUG-CC-PVTZ AUX)
    Blend: AUG-CC-PVTZ-JKFIT + DEF2-UNIVERSAL-JKFIT

    Orbital Energies [Eh]
    ---------------------

    Doubly Occupied:

       1A   -133.614598     2A    -20.731021     3A    -20.722052
       4A    -20.710987     5A    -20.702168     6A    -20.695806
       7A    -14.572577     8A    -11.602491     9A    -11.602366
      10A    -11.602286    11A     -1.835984    12A     -1.519910
      13A     -1.511298    14A     -1.490715    15A     -1.484995
      16A     -1.456986    17A     -1.047519    18A     -1.046014
      19A     -1.044027    20A     -0.869691    21A     -0.869160
      22A     -0.868477    23A     -0.858925    24A     -0.825734
      25A     -0.755115    26A     -0.752595    27A     -0.724391
      28A     -0.714169    29A     -0.704725    30A     -0.676623
      31A     -0.672976    32A     -0.654016    33A     -0.652901
      34A     -0.631178

  @DF-RHF Final Energy:  -979.38154886607526

   => Energetics <=

    Nuclear Repulsion Energy =            347.7388687670213585
    One-Electron Energy =               -2033.7918787362227704
    Two-Electron Energy =                 706.6714611031261484
    Total Energy =                       -979.3815488660752635
 Dipole X            :         58.7109904          -58.9378574           -0.2268670
 Dipole Y            :         12.7733290          -12.8911258           -0.1177968
 Dipole Z            :        -34.0365047           33.6257678           -0.4107369
 Magnitude           :                                                    0.4837866
  Basis Set: (AUG-CC-PVTZ AUX)
    Blend: AUG-CC-PVTZ-RI + DEF2-QZVPP-RI
	 Reference Energy          =    -979.3815488660752635 [Eh]
	 Singles Energy            =      -0.0000000000000000 [Eh]
	 Same-Spin Energy          =      -0.3859082270349389 [Eh]
	 Opposite-Spin Energy      =      -1.1743736849303179 [Eh]
	 Correlation Energy        =      -1.5602819119652569 [Eh]
	 Total Energy              =    -980.9418307780405257 [Eh]

	 ================> DF-SCS-MP2 Energies <==================
	-----------------------------------------------------------
	 SCS Same-Spin Scale       =       0.3333333333333333 [-]
	 SCS Opposite-Spin Scale   =       1.2000000000000000 [-]
	 SCS Same-Spin Energy      =      -0.1286360756783129 [Eh]
	 SCS Opposite-Spin Energy  =      -1.4092484219163814 [Eh]
	 SCS Correlation Energy    =      -1.5378844975946944 [Eh]
	 SCS Total Energy          =    -980.9194333636700094 [Eh]
	-----------------------------------------------------------

*** Psi4 exiting successfully. Buy a developer a beer!
