                               Psi4 1.9 release

  ==> Input File <==

--------------------------------------------------------------------------
MEMORY 60 GB

molecule dimer {
0 1
Gh(K)      0.000000     0.000000     0.000000
Gh(O)     -1.751492     0.085286    -1.989283
Gh(H)     -1.556526     0.778721    -2.629799
Gh(H)     -1.639405    -0.746256    -2.499389
Gh(O)     -0.439277    -2.706628    -0.360941
Gh(H)     -1.377830    -2.874844    -0.351162
Gh(H)     -0.096285    -3.290016    -1.091408
Gh(O)     -2.197605     0.631860     1.800529
Gh(H)     -2.346144     1.016197     2.672356
Gh(H)     -2.828298     0.855687     1.124615
Gh(O)      0.383901     2.589354    -0.816677
Gh(H)     -0.469103     3.021654    -0.740717
Gh(H)      0.553527     2.490907    -1.733209
Gh(O)      2.031074     0.400515    -2.119651
Gh(H)      2.592574     1.107034    -1.763625
Gh(H)      1.716904     0.550642    -2.989750
O          0.043549    -1.038957     2.817828
H         -0.779009    -0.692394     3.128335
H          0.717995    -0.476349     3.113344

units ang
no_reorient
no_com
symmetry c1
}

set {
basis        aug-cc-pVTZ
scf_type     df
}

energy("mp2")
--------------------------------------------------------------------------

    Molecular point group: c1

    Geometry (in Angstrom), charge = 0, multiplicity = 1:

       Center              X                  Y                   Z               Mass
    ------------   -----------------  -----------------  -----------------  -----------------
      Gh(K)           0.000000000000     0.000000000000     0.000000000000    38.963706486400
      Gh(O)          -1.751492000000     0.085286000000    -1.989283000000    15.994914619570
      Gh(H)          -1.556526000000     0.778721000000    -2.629799000000     1.007825032230
      Gh(H)          -1.639405000000    -0.746256000000    -2.499389000000     1.007825032230
      Gh(O)          -0.439277000000    -2.706628000000    -0.360941000000    15.994914619570
      Gh(H)          -1.377830000000    -2.874844000000    -0.351162000000     1.007825032230
      Gh(H)          -0.096285000000    -3.290016000000    -1.091408000000     1.007825032230
      Gh(O)          -2.197605000000     0.631860000000     1.800529000000    15.994914619570
      Gh(H)          -2.346144000000     1.016197000000     2.672356000000     1.007825032230
      Gh(H)          -2.828298000000     0.855687000000     1.124615000000     1.007825032230
      Gh(O)           0.383901000000     2.589354000000    -0.816677000000    15.994914619570
      Gh(H)          -0.469103000000     3.021654000000    -0.740717000000     1.007825032230
      Gh(H)           0.553527000000     2.490907000000    -1.733209000000     1.007825032230
      Gh(O)           2.031074000000     0.400515000000    -2.119651000000    15.994914619570
      Gh(H)           2.592574000000     1.107034000000    -1.763625000000     1.007825032230
      Gh(H)           1.716904000000     0.550642000000    -2.989750000000     1.007825032230
         O            0.043549000000    -1.038957000000     2.817828000000    15.994914619570
         H           -0.779009000000    -0.692394000000     3.128335000000     1.007825032230
         H            0.717995000000    -0.476349000000     3.113344000000     1.007825032230

  Charge       = 0
  Multiplicity = 1
  Basis Set: AUG-CC-PVTZ
    Blend: AUG-CC-PVTZ
  Basis Set: (AUG-CC-PVTZ AUX)
    Blend: AUG-CC-PVTZ-JKFIT + DEF2-UNIVERSAL-JKFIT

    Orbital Energies [Eh]
    ---------------------

    Doubly Occupied:

       1A    -20.561758     2A     -1.362510     3A     -0.736284
       4A     -0.582408     5A     -0.511246

  @DF-RHF Final Energy:   -76.06098755919365

   => Energetics <=

    Nuclear Repulsion Energy =              9.3977854771845024
    One-Electron Energy =                -123.4091316397986304
    Two-Electron Energy =                  37.9503586034204758
    Total Energy =                        -76.0609875591936486
 Dipole X            :         -0.6410656            0.5430657           -0.0979999
 Dipole Y            :         18.5349224          -17.9153577            0.6195647
 Dipole Z            :        -53.9813731           54.3944494            0.4130763
 Magnitude           :                                                    0.7510636
  Basis Set: (AUG-CC-PVTZ AUX)
    Blend: AUG-CC-PVTZ-RI + DEF2-QZVPP-RI
	 Reference Energy          =     -76.0609875591936486 [Eh]
	 Singles Energy            =      -0.0000000000000000 [Eh]
	 Same-Spin Energy          =      -0.0679760969414737 [Eh]
	 Opposite-Spin Energy      =      -0.2144358590031821 [Eh]
	 Correlation Energy        =      -0.2824119559446558 [Eh]
	 Total Energy              =     -76.3433995151383016 [Eh]

	 ================> DF-SCS-MP2 Energies <==================
	-----------------------------------------------------------
	 SCS Same-Spin Scale       =       0.3333333333333333 [-]
	 SCS Opposite-Spin Scale   =       1.2000000000000000 [-]
	 SCS Same-Spin Energy      =      -0.0226586989804912 [Eh]
	 SCS Opposite-Spin Energy  =      -0.2573230308038185 [Eh]
	 SCS Correlation Energy    =      -0.2799817297843097 [Eh]
	 SCS Total Energy          =     -76.3409692889779592 [Eh]
	-----------------------------------------------------------

*** Psi4 exiting successfully. Buy a developer a beer!
