                               Psi4 1.9 release

  ==> Input File <==

--------------------------------------------------------------------------
MEMORY 60 GB

molecule dimer {
0 1
Gh(K)      0.000000     0.000000     0.000000
Gh(O)      2.308722    -0.254536     1.310408
Gh(H)      2.584958    -1.137932     1.023431
Gh(H)      3.054955     0.265354     1.083425
Gh(O)      1.477763     2.323870     0.122954
Gh(H)      2.452408     2.371039     0.056186
Gh(H)      1.158784     2.999385    -0.587734
Gh(O)     -1.887495     0.324605     2.201958
Gh(H)     -2.756344     0.421092     1.806993
Gh(H)     -1.987178     0.245204     3.192100
O         -1.051549    -2.482539     0.576865
H         -1.834601    -2.706293     0.062762
H         -0.429524    -3.204685     0.325775
Gh(O)     -2.479303     0.827493    -1.047506
Gh(H)     -2.128857     1.517229    -1.644836
Gh(H)     -3.035895     1.330859    -0.414268
Gh(O)      0.867083    -1.961681    -1.538513
Gh(H)      1.235278    -2.602121    -0.912217
Gh(H)      1.575310    -2.005697    -2.206580

units ang
no_reorient
no_com
symmetry c1
}

set {
basis        aug-cc-pVTZ
scf_type     df
}

energy("mp2")
--------------------------------------------------------------------------

    Molecular point group: c1

    Geometry (in Angstrom), charge = 0, multiplicity = 1:

       Center              X                  Y                   Z               Mass
    ------------   -----------------  -----------------  -----------------  -----------------
      Gh(K)           0.000000000000     0.000000000000     0.000000000000    38.963706486400
      Gh(O)           2.308722000000    -0.254536000000     1.310408000000    15.994914619570
      Gh(H)           2.584958000000    -1.137932000000     1.023431000000     1.007825032230
      Gh(H)           3.054955000000     0.265354000000     1.083425000000     1.007825032230
      Gh(O)           1.477763000000     2.323870000000     0.122954000000    15.994914619570
      Gh(H)           2.452408000000     2.371039000000     0.056186000000     1.007825032230
      Gh(H)           1.158784000000     2.999385000000    -0.587734000000     1.007825032230
      Gh(O)          -1.887495000000     0.324605000000     2.201958000000    15.994914619570
      Gh(H)          -2.756344000000     0.421092000000     1.806993000000     1.007825032230
      Gh(H)          -1.987178000000     0.245204000000     3.192100000000     1.007825032230
         O           -1.051549000000    -2.482539000000     0.576865000000    15.994914619570
         H           -1.834601000000    -2.706293000000     0.062762000000     1.007825032230
         H           -0.429524000000    -3.204685000000     0.325775000000     1.007825032230
      Gh(O)          -2.479303000000     0.827493000000    -1.047506000000    15.994914619570
      Gh(H)          -2.128857000000     1.517229000000    -1.644836000000     1.007825032230
      Gh(H)          -3.035895000000     1.330859000000    -0.414268000000     1.007825032230
      Gh(O)           0.867083000000    -1.961681000000    -1.538513000000    15.994914619570
      Gh(H)           1.235278000000    -2.602121000000    -0.912217000000     1.007825032230
      Gh(H)           1.575310000000    -2.005697000000    -2.206580000000     1.007825032230

  Charge       = 0
  Multiplicity = 1
  Basis Set: AUG-CC-PVTZ
    Blend: AUG-CC-PVTZ
  Basis Set: (AUG-CC-PVTZ AUX)
    Blend: AUG-CC-PVTZ-JKFIT + DEF2-UNIVERSAL-JKFIT

    Orbital Energies [Eh]
    ---------------------

    Doubly Occupied:

       1A    -20.571124     2A     -1.346744     3A     -0.703583
       4A     -0.586524     5A     -0.509721

  @DF-RHF Final Energy:   -76.05855680705815

   => Energetics <=

    Nuclear Repulsion Energy =              9.0403850565891197
    One-Electron Energy =                -122.7624901881925013
    Two-Electron Energy =                  37.6635483245452249
    Total Energy =                        -76.0585568070581530
 Dipole X            :         20.0665614          -20.1756931           -0.1091317
 Dipole Y            :         48.0840066          -48.7006800           -0.6166734
 Dipole Z            :         -9.9555738            9.4551634           -0.5004104
 Magnitude           :                                                    0.8016273
  Basis Set: (AUG-CC-PVTZ AUX)
    Blend: AUG-CC-PVTZ-RI + DEF2-QZVPP-RI
	 Reference Energy          =     -76.0585568070581530 [Eh]
	 Singles Energy            =      -0.0000000000000000 [Eh]
	 Same-Spin Energy          =      -0.0687590816108015 [Eh]
	 Opposite-Spin Energy      =      -0.2168250867491272 [Eh]
	 Correlation Energy        =      -0.2855841683599287 [Eh]
	 Total Energy              =     -76.3441409754180853 [Eh]

	 ================> DF-SCS-MP2 Energies <==================
	-----------------------------------------------------------
	 SCS Same-Spin Scale       =       0.3333333333333333 [-]
	 SCS Opposite-Spin Scale   =       1.2000000000000000 [-]
	 SCS Same-Spin Energy      =      -0.0229196938702672 [Eh]
	 SCS Opposite-Spin Energy  =      -0.2601901040989526 [Eh]
	 SCS Correlation Energy    =      -0.2831097979692198 [Eh]
	 SCS Total Energy          =     -76.3416666050273705 [Eh]
	-----------------------------------------------------------

*** Psi4 exiting successfully. Buy a developer a beer!
