                               Psi4 1.9 release

  ==> Input File <==

--------------------------------------------------------------------------
MEMORY 60 GB

molecule dimer {
1 1
K          0.000000     0.000000     0.000000
O         -2.253676    -1.392416     0.421368
H         -3.137956    -1.215387     0.063811
H         -2.021472    -2.191510    -0.025516
O         -0.318217     0.409348    -2.718643
H          0.311346     1.085045    -3.064275
H         -0.323786    -0.455586    -3.131456
O          1.052869    -1.442679     2.266862
H          1.475362    -2.293476     2.206604
H          1.643426    -0.997578     2.931710
O          0.676884    -2.513134    -0.722992
H         -0.026309    -3.165808    -0.916704
H          1.255836    -2.918566    -0.007824

units ang
no_reorient
no_com
symmetry c1
}

set {
basis        aug-cc-pVTZ
scf_type     df
}

energy("mp2")
--------------------------------------------------------------------------

    Molecular point group: c1

    Geometry (in Angstrom), charge = 1, multiplicity = 1:

       Center              X                  Y                   Z               Mass
    ------------   -----------------  -----------------  -----------------  -----------------
         K            0.000000000000     0.000000000000     0.000000000000    38.963706486400
         O           -2.253676000000    -1.392416000000     0.421368000000    15.994914619570
         H           -3.137956000000    -1.215387000000     0.063811000000     1.007825032230
         H           -2.021472000000    -2.191510000000    -0.025516000000     1.007825032230
         O           -0.318217000000     0.409348000000    -2.718643000000    15.994914619570
         H            0.311346000000     1.085045000000    -3.064275000000     1.007825032230
         H           -0.323786000000    -0.455586000000    -3.131456000000     1.007825032230
         O            1.052869000000    -1.442679000000     2.266862000000    15.994914619570
         H            1.475362000000    -2.293476000000     2.206604000000     1.007825032230
         H            1.643426000000    -0.997578000000     2.931710000000     1.007825032230
         O            0.676884000000    -2.513134000000    -0.722992000000    15.994914619570
         H           -0.026309000000    -3.165808000000    -0.916704000000     1.007825032230
         H            1.255836000000    -2.918566000000    -0.007824000000     1.007825032230

  Charge       = 1
  Multiplicity = 1
  Basis Set: AUG-CC-PVTZ
    Blend: AUG-CC-PVTZ
  Basis Set: (AUG-CC-PVTZ AUX)
    Blend: AUG-CC-PVTZ-JKFIT + DEF2-UNIVERSAL-JKFIT

    Orbital Energies [Eh]
    ---------------------

    Doubly Occupied:

       1A   -133.625437     2A    -20.737274     3A    -20.724274
       4A    -20.719318     5A    -20.711770     6A    -14.582945
       7A    -11.612849     8A    -11.612823     9A    -11.612709
      10A     -1.844745    11A     -1.510759    12A     -1.505982
      13A     -1.502705    14A     -1.488950    15A     -1.055376
      16A     -1.054276    17A     -1.052192    18A     -0.883013
      19A     -0.875978    20A     -0.864354    21A     -0.853500
      22A     -0.752002    23A     -0.748308    24A     -0.747521
      25A     -0.712780    26A     -0.679171    27A     -0.666772
      28A     -0.665802    29A     -0.658350

  @DF-RHF Final Energy:  -903.31321070965669

   => Energetics <=

    Nuclear Repulsion Energy =            258.6670089950564488
    One-Electron Energy =               -1751.8365638011264309
    Two-Electron Energy =                 589.8563440964132951
    Total Energy =                       -903.3132107096566870
 Dipole X            :         14.7904316          -14.2876013            0.5028303
 Dipole Y            :         95.7564640          -97.6306480           -1.8741840
 Dipole Z            :         14.7028784          -15.0627991           -0.3599207
 Magnitude           :                                                    1.9735620
  Basis Set: (AUG-CC-PVTZ AUX)
    Blend: AUG-CC-PVTZ-RI + DEF2-QZVPP-RI
	 Reference Energy          =    -903.3132107096566870 [Eh]
	 Singles Energy            =      -0.0000000000000000 [Eh]
	 Same-Spin Energy          =      -0.3136011388151535 [Eh]
	 Opposite-Spin Energy      =      -0.9509796599458433 [Eh]
	 Correlation Energy        =      -1.2645807987609969 [Eh]
	 Total Energy              =    -904.5777915084177039 [Eh]

	 ================> DF-SCS-MP2 Energies <==================
	-----------------------------------------------------------
	 SCS Same-Spin Scale       =       0.3333333333333333 [-]
	 SCS Opposite-Spin Scale   =       1.2000000000000000 [-]
	 SCS Same-Spin Energy      =      -0.1045337129383845 [Eh]
	 SCS Opposite-Spin Energy  =      -1.1411755919350119 [Eh]
	 SCS Correlation Energy    =      -1.2457093048733965 [Eh]
	 SCS Total Energy          =    -904.5589200145300310 [Eh]
	-----------------------------------------------------------

*** Psi4 exiting successfully. Buy a developer a beer!
