                               Psi4 1.9 release

  ==> Input File <==

--------------------------------------------------------------------------
MEMORY 60 GB

molecule dimer {
0 1
Gh(K)      0.000000     0.000000     0.000000
Gh(O)     -0.410929    -0.700784    -2.509863
Gh(H)     -1.217513    -1.219559    -2.665649
Gh(H)     -0.164264    -0.548002    -3.391802
O          0.364162     2.737792     0.615970
H         -0.368150     3.382202     0.757426
H          0.419133     2.301238     1.419304
Gh(O)     -1.302168    -1.379093     2.269078
Gh(H)     -1.734333    -1.173294     3.111865
Gh(H)     -1.340808    -2.327373     2.231571
Gh(O)      2.554230    -0.782247     0.698580
Gh(H)      2.890378    -1.647175     0.845380
Gh(H)      3.241882    -0.204019     0.218312

units ang
no_reorient
no_com
symmetry c1
}

set {
basis        aug-cc-pVTZ
scf_type     df
}

energy("mp2")
--------------------------------------------------------------------------

    Molecular point group: c1

    Geometry (in Angstrom), charge = 0, multiplicity = 1:

       Center              X                  Y                   Z               Mass
    ------------   -----------------  -----------------  -----------------  -----------------
      Gh(K)           0.000000000000     0.000000000000     0.000000000000    38.963706486400
      Gh(O)          -0.410929000000    -0.700784000000    -2.509863000000    15.994914619570
      Gh(H)          -1.217513000000    -1.219559000000    -2.665649000000     1.007825032230
      Gh(H)          -0.164264000000    -0.548002000000    -3.391802000000     1.007825032230
         O            0.364162000000     2.737792000000     0.615970000000    15.994914619570
         H           -0.368150000000     3.382202000000     0.757426000000     1.007825032230
         H            0.419133000000     2.301238000000     1.419304000000     1.007825032230
      Gh(O)          -1.302168000000    -1.379093000000     2.269078000000    15.994914619570
      Gh(H)          -1.734333000000    -1.173294000000     3.111865000000     1.007825032230
      Gh(H)          -1.340808000000    -2.327373000000     2.231571000000     1.007825032230
      Gh(O)           2.554230000000    -0.782247000000     0.698580000000    15.994914619570
      Gh(H)           2.890378000000    -1.647175000000     0.845380000000     1.007825032230
      Gh(H)           3.241882000000    -0.204019000000     0.218312000000     1.007825032230

  Charge       = 0
  Multiplicity = 1
  Basis Set: AUG-CC-PVTZ
    Blend: AUG-CC-PVTZ
  Basis Set: (AUG-CC-PVTZ AUX)
    Blend: AUG-CC-PVTZ-JKFIT + DEF2-UNIVERSAL-JKFIT

    Orbital Energies [Eh]
    ---------------------

    Doubly Occupied:

       1A    -20.566214     2A     -1.359003     3A     -0.719371
       4A     -0.588066     5A     -0.511332

  @DF-RHF Final Energy:   -76.05829204833189

   => Energetics <=

    Nuclear Repulsion Energy =              9.2715306332933967
    One-Electron Energy =                -123.1716695090305791
    Two-Electron Energy =                  37.8418468274052842
    Total Energy =                        -76.0582920483319072
 Dipole X            :         -6.0461785            5.6016755           -0.4445030
 Dipole Y            :        -52.0001445           52.1295616            0.1294171
 Dipole Z            :        -12.7905021           13.4255404            0.6350382
 Magnitude           :                                                    0.7858787
  Basis Set: (AUG-CC-PVTZ AUX)
    Blend: AUG-CC-PVTZ-RI + DEF2-QZVPP-RI
	 Reference Energy          =     -76.0582920483318929 [Eh]
	 Singles Energy            =      -0.0000000000000000 [Eh]
	 Same-Spin Energy          =      -0.0682636280601146 [Eh]
	 Opposite-Spin Energy      =      -0.2151956151880761 [Eh]
	 Correlation Energy        =      -0.2834592432481907 [Eh]
	 Total Energy              =     -76.3417512915800813 [Eh]

	 ================> DF-SCS-MP2 Energies <==================
	-----------------------------------------------------------
	 SCS Same-Spin Scale       =       0.3333333333333333 [-]
	 SCS Opposite-Spin Scale   =       1.2000000000000000 [-]
	 SCS Same-Spin Energy      =      -0.0227545426867049 [Eh]
	 SCS Opposite-Spin Energy  =      -0.2582347382256913 [Eh]
	 SCS Correlation Energy    =      -0.2809892809123962 [Eh]
	 SCS Total Energy          =     -76.3392813292442867 [Eh]
	-----------------------------------------------------------

*** Psi4 exiting successfully. Buy a developer a beer!
