                               Psi4 1.9 release

  ==> Input File <==

--------------------------------------------------------------------------
MEMORY 60 GB

molecule dimer {
1 1
K      0.000000     0.000000     0.000000
--
0 1
O     -1.476491    -0.756259     2.290019
H     -1.759686    -1.376309     1.544947
H     -2.291192    -0.305429     2.556178
O     -2.631532     1.181732    -0.243706
H     -2.245032     1.740452    -0.949982
H     -2.984989     1.700291     0.504715
O      1.975492    -0.044738    -1.728567
H      2.884251    -0.090974    -1.517372
H      1.820966    -0.995882    -1.782993
O      2.397673    -0.356089     1.291352
H      2.935808    -0.353847     0.513619
H      2.540992     0.514317     1.727057
O     -0.114464     2.275923     1.666919
H     -0.924524     2.782367     1.384837
H      0.519910     2.828453     2.078350
O     -1.132358    -0.800595    -2.392425
H     -1.671831    -1.510047    -1.934175
H     -1.222263    -0.893060    -3.357476

units ang
no_reorient
no_com
symmetry c1
}

set {
basis        aug-cc-pVTZ
scf_type     df
}

energy("mp2", bsse_type="cp")
--------------------------------------------------------------------------

                               Psi4 1.9 release
    Molecular point group: c1
  Charge       = 0
  Multiplicity = 1
  Basis Set: AUG-CC-PVTZ
    Blend: AUG-CC-PVTZ
  Basis Set: (AUG-CC-PVTZ AUX)
    Blend: AUG-CC-PVTZ-JKFIT + DEF2-UNIVERSAL-JKFIT
  @DF-RHF Final Energy:  -456.32403117630002
    Total Energy =                       -456.3240311763000250
 Dipole X            :         19.0414409          -19.3716392           -0.3301983
 Dipole Y            :        -29.6014632           30.3114414            0.7099782
 Dipole Z            :        -15.5440841           14.8087273           -0.7353568
 Magnitude           :                                                    1.0741739
  Basis Set: (AUG-CC-PVTZ AUX)
    Blend: AUG-CC-PVTZ-RI + DEF2-QZVPP-RI
	 Reference Energy          =    -456.3240311763000250 [Eh]
	 Singles Energy            =      -0.0000000000000000 [Eh]
	 Same-Spin Energy          =      -0.4153755558805066 [Eh]
	 Opposite-Spin Energy      =      -1.3030891233650932 [Eh]
	 Correlation Energy        =      -1.7184646792455998 [Eh]
	 Total Energy              =    -458.0424958555456101 [Eh]
	 SCS Total Energy          =    -458.0261966429649760 [Eh]
                               Psi4 1.9 release
    Molecular point group: c1
  Multiplicity = 1
  Basis Set: AUG-CC-PVTZ
    Blend: AUG-CC-PVTZ
  Basis Set: (AUG-CC-PVTZ AUX)
    Blend: AUG-CC-PVTZ-JKFIT + DEF2-UNIVERSAL-JKFIT
  @DF-RHF Final Energy:  -599.01751727022236
    Total Energy =                       -599.0175172702224700
  Basis Set: (AUG-CC-PVTZ AUX)
	 Singles Energy            =      -0.0000000000000000 [Eh]
	 Same-Spin Energy          =      -0.0394256810162056 [Eh]
	 Opposite-Spin Energy      =      -0.0970174575339451 [Eh]
	 Correlation Energy        =      -0.1364431385501507 [Eh]
	 Total Energy              =    -599.1539604087724911 [Eh]
	 SCS Total Energy          =    -599.1470801129352139 [Eh]
                               Psi4 1.9 release
    Molecular point group: c1

    Geometry (in Bohr), charge = 1, multiplicity = 1:

       Center              X                  Y                   Z               Mass
    ------------   -----------------  -----------------  -----------------  -----------------
         K            0.000000000000     0.000000000000     0.000000000000    38.963706486400
         O           -2.790163616703    -1.429122389913     4.327508732095    15.994914619570
         H           -3.325324606802    -2.600847074003     2.919526708348     1.007825032230
         H           -4.329725380840    -0.577177160772     4.830476347921     1.007825032230
         O           -4.972874770378     2.233149833690    -0.460537595131    15.994914619570
         H           -4.242495622889     3.288977614505    -1.795205804115     1.007825032230
         H           -5.640811697504     3.213084323581     0.953773121410     1.007825032230
         O            3.733138843033    -0.084542567401    -3.266518219504    15.994914619570
         H            5.450444467078    -0.171915944537    -2.867417510438     1.007825032230
         H            3.441127023770    -1.881944233273    -3.369368453608     1.007825032230
         O            4.530945308405    -0.672910686288     2.440301611562    15.994914619570
         H            5.547873076928    -0.668673920315     0.970599242832     1.007825032230
         H            4.801778966979     0.971918271667     3.263664733055     1.007825032230
         O           -0.216305611224     4.300871152630     3.150020383322    15.994914619570
         H           -1.747097156413     5.257911610512     2.616962658401     1.007825032230
         H            0.982487509887     5.345001528730     3.927512292845     1.007825032230
         O           -2.139846495971    -1.512905287411    -4.521028025698    15.994914619570
         H           -3.159302718050    -2.853575266569    -3.655061028707     1.007825032230
         H           -2.309742323280    -1.687638813601    -6.344710112798     1.007825032230

  Charge       = 1
  Multiplicity = 1
  Basis Set: AUG-CC-PVTZ
    Blend: AUG-CC-PVTZ
  Basis Set: (AUG-CC-PVTZ AUX)
    Blend: AUG-CC-PVTZ-JKFIT + DEF2-UNIVERSAL-JKFIT

    Orbital Energies [Eh]
    ---------------------

    Doubly Occupied:

       1A   -133.602253     2A    -20.723281     3A    -20.718116
       4A    -20.714514     5A    -20.709650     6A    -20.706888
       7A    -20.702623     8A    -14.560408     9A    -11.590359
      10A    -11.590158    11A    -11.590082    12A     -1.824539
      13A     -1.524131    14A     -1.492474    15A     -1.491868
      16A     -1.488021    17A     -1.486133    18A     -1.470861
      19A     -1.037210    20A     -1.035132    21A     -1.032741
      22A     -0.875282    23A     -0.869594    24A     -0.868380
      25A     -0.861132    26A     -0.856083    27A     -0.833736
      28A     -0.761986    29A     -0.727196    30A     -0.724301
      31A     -0.721259    32A     -0.718518    33A     -0.708508
      34A     -0.678122    35A     -0.659140    36A     -0.658203
      37A     -0.656082    38A     -0.649646    39A     -0.639104

  @DF-RHF Final Energy: -1055.42755521496929

   => Energetics <=

    Nuclear Repulsion Energy =            459.8440164974945787
    One-Electron Energy =               -2361.4277100398658149
    Two-Electron Energy =                 846.1561383274020045
    Total Energy =                      -1055.4275552149692885
 Dipole X            :         19.0208650          -19.3716392           -0.3507742
 Dipole Y            :        -29.4159912           30.3114414            0.8954502
 Dipole Z            :        -15.4683633           14.8087273           -0.6596360
 Magnitude           :                                                    1.1661875
  Basis Set: (AUG-CC-PVTZ AUX)
    Blend: AUG-CC-PVTZ-RI + DEF2-QZVPP-RI
	 Reference Energy          =   -1055.4275552149692885 [Eh]
	 Singles Energy            =      -0.0000000000000000 [Eh]
	 Same-Spin Energy          =      -0.4590127124079860 [Eh]
	 Opposite-Spin Energy      =      -1.4007757370004368 [Eh]
	 Correlation Energy        =      -1.8597884494084227 [Eh]
	 Total Energy              =   -1057.2873436643776586 [Eh]

	 ================> DF-SCS-MP2 Energies <==================
	-----------------------------------------------------------
	 SCS Same-Spin Scale       =       0.3333333333333333 [-]
	 SCS Opposite-Spin Scale   =       1.2000000000000000 [-]
	 SCS Same-Spin Energy      =      -0.1530042374693286 [Eh]
	 SCS Opposite-Spin Energy  =      -1.6809308844005242 [Eh]
	 SCS Correlation Energy    =      -1.8339351218698527 [Eh]
	 SCS Total Energy          =   -1057.2614903368391879 [Eh]
	-----------------------------------------------------------

*** Psi4 exiting successfully. Buy a developer a beer!
