                               Psi4 1.9 release

  ==> Input File <==

--------------------------------------------------------------------------
MEMORY 60 GB

molecule dimer {
1 1
K          0.000000     0.000000     0.000000
Gh(O)      1.222057     2.629778    -0.942752
Gh(H)      2.033084     2.278229    -1.374565
Gh(H)      1.530903     3.044932    -0.145782
Gh(O)      1.418192     0.063385     2.461153
Gh(H)      1.334880    -0.883214     2.511753
Gh(H)      2.380928     0.237406     2.503441
Gh(O)     -1.342006    -0.254400    -2.039800
Gh(H)     -1.599213     0.440439    -2.740621
Gh(H)     -1.348686    -1.184654    -2.470101
Gh(O)     -2.518656    -0.508365     1.268620
Gh(H)     -3.306194    -0.896204     0.868423
Gh(H)     -2.210245    -1.248498     1.818523
Gh(O)     -0.399968    -2.741441     0.315356
Gh(H)     -0.976791    -3.128720     0.992102
Gh(H)      0.291629    -3.407348     0.234052
Gh(O)      2.429193    -0.853860    -1.110769
Gh(H)      2.124910    -1.390245    -1.851640
Gh(H)      2.833848    -0.050918    -1.580884

units ang
no_reorient
no_com
symmetry c1
}

set {
basis        aug-cc-pVTZ
scf_type     df
}

energy("mp2")
--------------------------------------------------------------------------

    Molecular point group: c1

    Geometry (in Angstrom), charge = 1, multiplicity = 1:

       Center              X                  Y                   Z               Mass
    ------------   -----------------  -----------------  -----------------  -----------------
         K            0.000000000000     0.000000000000     0.000000000000    38.963706486400
      Gh(O)           1.222057000000     2.629778000000    -0.942752000000    15.994914619570
      Gh(H)           2.033084000000     2.278229000000    -1.374565000000     1.007825032230
      Gh(H)           1.530903000000     3.044932000000    -0.145782000000     1.007825032230
      Gh(O)           1.418192000000     0.063385000000     2.461153000000    15.994914619570
      Gh(H)           1.334880000000    -0.883214000000     2.511753000000     1.007825032230
      Gh(H)           2.380928000000     0.237406000000     2.503441000000     1.007825032230
      Gh(O)          -1.342006000000    -0.254400000000    -2.039800000000    15.994914619570
      Gh(H)          -1.599213000000     0.440439000000    -2.740621000000     1.007825032230
      Gh(H)          -1.348686000000    -1.184654000000    -2.470101000000     1.007825032230
      Gh(O)          -2.518656000000    -0.508365000000     1.268620000000    15.994914619570
      Gh(H)          -3.306194000000    -0.896204000000     0.868423000000     1.007825032230
      Gh(H)          -2.210245000000    -1.248498000000     1.818523000000     1.007825032230
      Gh(O)          -0.399968000000    -2.741441000000     0.315356000000    15.994914619570
      Gh(H)          -0.976791000000    -3.128720000000     0.992102000000     1.007825032230
      Gh(H)           0.291629000000    -3.407348000000     0.234052000000     1.007825032230
      Gh(O)           2.429193000000    -0.853860000000    -1.110769000000    15.994914619570
      Gh(H)           2.124910000000    -1.390245000000    -1.851640000000     1.007825032230
      Gh(H)           2.833848000000    -0.050918000000    -1.580884000000     1.007825032230

  Charge       = 1
  Multiplicity = 1
  Basis Set: AUG-CC-PVTZ
    Blend: AUG-CC-PVTZ
  Basis Set: (AUG-CC-PVTZ AUX)
    Blend: AUG-CC-PVTZ-JKFIT + DEF2-UNIVERSAL-JKFIT

    Orbital Energies [Eh]
    ---------------------

    Doubly Occupied:

       1A   -133.752392     2A    -14.708118     3A    -11.738178
       4A    -11.738177     5A    -11.738176     6A     -1.963852
       7A     -1.170567     8A     -1.170566     9A     -1.170550

  @DF-RHF Final Energy:  -599.01751721182359

   => Energetics <=

    Nuclear Repulsion Energy =              0.0000000000000000
    One-Electron Energy =                -819.7338856348274021
    Two-Electron Energy =                 220.7163684230038996
    Total Energy =                       -599.0175172118234741
 Dipole X            :          0.0000337            0.0000000            0.0000337
 Dipole Y            :         -0.0001667            0.0000000           -0.0001667
 Dipole Z            :         -0.0000857            0.0000000           -0.0000857
 Magnitude           :                                                    0.0001904
  Basis Set: (AUG-CC-PVTZ AUX)
    Blend: AUG-CC-PVTZ-RI + DEF2-QZVPP-RI
	 Reference Energy          =    -599.0175172118235878 [Eh]
	 Singles Energy            =      -0.0000000000000000 [Eh]
	 Same-Spin Energy          =      -0.0390547811384918 [Eh]
	 Opposite-Spin Energy      =      -0.0960014707549786 [Eh]
	 Correlation Energy        =      -0.1350562518934704 [Eh]
	 Total Energy              =    -599.1525734637170899 [Eh]

	 ================> DF-SCS-MP2 Energies <==================
	-----------------------------------------------------------
	 SCS Same-Spin Scale       =       0.3333333333333333 [-]
	 SCS Opposite-Spin Scale   =       1.2000000000000000 [-]
	 SCS Same-Spin Energy      =      -0.0130182603794973 [Eh]
	 SCS Opposite-Spin Energy  =      -0.1152017649059744 [Eh]
	 SCS Correlation Energy    =      -0.1282200252854716 [Eh]
	 SCS Total Energy          =    -599.1457372371090742 [Eh]
	-----------------------------------------------------------

*** Psi4 exiting successfully. Buy a developer a beer!
