                               Psi4 1.9 release

  ==> Input File <==

--------------------------------------------------------------------------
MEMORY 60 GB

molecule dimer {
0 1
Gh(K)      0.000000     0.000000     0.000000
Gh(O)     -1.624696     1.170589    -1.773297
Gh(H)     -2.481887     0.884131    -1.505250
Gh(H)     -1.740444     1.131366    -2.691646
Gh(O)      1.825084     2.002345    -0.856271
Gh(H)      2.736729     1.760906    -0.931498
Gh(H)      1.835268     2.896585    -0.440370
Gh(O)      2.864344    -0.844859     0.005723
Gh(H)      2.698983    -1.133793    -0.900163
Gh(H)      3.529909    -0.153569    -0.092673
Gh(O)      0.154222    -1.854253     2.188230
Gh(H)      0.676628    -2.434760     1.536156
Gh(H)      0.442297    -1.788222     3.119830
O         -1.619276     1.879651     1.526773
H         -1.466252     1.473301     2.383724
H         -2.509648     2.026489     1.441369
Gh(O)     -0.827346    -1.993974    -1.708939
Gh(H)     -1.116939    -1.685994    -2.556826
Gh(H)     -1.616419    -2.415908    -1.284760

units ang
no_reorient
no_com
symmetry c1
}

set {
basis        aug-cc-pVTZ
scf_type     df
}

energy("mp2")
--------------------------------------------------------------------------

    Molecular point group: c1

    Geometry (in Angstrom), charge = 0, multiplicity = 1:

       Center              X                  Y                   Z               Mass
    ------------   -----------------  -----------------  -----------------  -----------------
      Gh(K)           0.000000000000     0.000000000000     0.000000000000    38.963706486400
      Gh(O)          -1.624696000000     1.170589000000    -1.773297000000    15.994914619570
      Gh(H)          -2.481887000000     0.884131000000    -1.505250000000     1.007825032230
      Gh(H)          -1.740444000000     1.131366000000    -2.691646000000     1.007825032230
      Gh(O)           1.825084000000     2.002345000000    -0.856271000000    15.994914619570
      Gh(H)           2.736729000000     1.760906000000    -0.931498000000     1.007825032230
      Gh(H)           1.835268000000     2.896585000000    -0.440370000000     1.007825032230
      Gh(O)           2.864344000000    -0.844859000000     0.005723000000    15.994914619570
      Gh(H)           2.698983000000    -1.133793000000    -0.900163000000     1.007825032230
      Gh(H)           3.529909000000    -0.153569000000    -0.092673000000     1.007825032230
      Gh(O)           0.154222000000    -1.854253000000     2.188230000000    15.994914619570
      Gh(H)           0.676628000000    -2.434760000000     1.536156000000     1.007825032230
      Gh(H)           0.442297000000    -1.788222000000     3.119830000000     1.007825032230
         O           -1.619276000000     1.879651000000     1.526773000000    15.994914619570
         H           -1.466252000000     1.473301000000     2.383724000000     1.007825032230
         H           -2.509648000000     2.026489000000     1.441369000000     1.007825032230
      Gh(O)          -0.827346000000    -1.993974000000    -1.708939000000    15.994914619570
      Gh(H)          -1.116939000000    -1.685994000000    -2.556826000000     1.007825032230
      Gh(H)          -1.616419000000    -2.415908000000    -1.284760000000     1.007825032230

  Charge       = 0
  Multiplicity = 1
  Basis Set: AUG-CC-PVTZ
    Blend: AUG-CC-PVTZ
  Basis Set: (AUG-CC-PVTZ AUX)
    Blend: AUG-CC-PVTZ-JKFIT + DEF2-UNIVERSAL-JKFIT

    Orbital Energies [Eh]
    ---------------------

    Doubly Occupied:

       1A    -20.561132     2A     -1.364324     3A     -0.738129
       4A     -0.582324     5A     -0.511461

  @DF-RHF Final Energy:   -76.05935022739112

   => Energetics <=

    Nuclear Repulsion Energy =              9.4273696210597482
    One-Electron Energy =                -123.4586975735978029
    Two-Electron Energy =                  37.9719777251469139
    Total Energy =                        -76.0593502273911355
 Dipole X            :         31.4837777          -31.9932674           -0.5094897
 Dipole Y            :        -35.2037650           35.0298494           -0.1739156
 Dipole Z            :        -29.7882834           30.3098408            0.5215573
 Magnitude           :                                                    0.7495655
  Basis Set: (AUG-CC-PVTZ AUX)
    Blend: AUG-CC-PVTZ-RI + DEF2-QZVPP-RI
	 Reference Energy          =     -76.0593502273911213 [Eh]
	 Singles Energy            =      -0.0000000000000000 [Eh]
	 Same-Spin Energy          =      -0.0679131364744685 [Eh]
	 Opposite-Spin Energy      =      -0.2141558547692871 [Eh]
	 Correlation Energy        =      -0.2820689912437556 [Eh]
	 Total Energy              =     -76.3414192186348828 [Eh]

	 ================> DF-SCS-MP2 Energies <==================
	-----------------------------------------------------------
	 SCS Same-Spin Scale       =       0.3333333333333333 [-]
	 SCS Opposite-Spin Scale   =       1.2000000000000000 [-]
	 SCS Same-Spin Energy      =      -0.0226377121581562 [Eh]
	 SCS Opposite-Spin Energy  =      -0.2569870257231445 [Eh]
	 SCS Correlation Energy    =      -0.2796247378813007 [Eh]
	 SCS Total Energy          =     -76.3389749652724277 [Eh]
	-----------------------------------------------------------

*** Psi4 exiting successfully. Buy a developer a beer!
