                               Psi4 1.9 release

  ==> Input File <==

--------------------------------------------------------------------------
MEMORY 60 GB

molecule dimer {
0 1
Gh(K)      0.000000     0.000000     0.000000
Gh(O)     -2.854442     0.584840    -0.122179
Gh(H)     -3.265333    -0.153361     0.306368
Gh(H)     -3.159443     1.375887     0.435029
O          1.793507     2.390251     0.448386
H          1.484797     2.937877    -0.247414
H          2.760113     2.530882     0.485450
Gh(O)     -0.012318     1.515708    -2.116487
Gh(H)     -0.444712     1.661309    -2.931489
Gh(H)      0.234305     2.352957    -1.751290
Gh(O)     -0.359420    -0.604796     2.633990
Gh(H)      0.279877    -0.081645     3.137778
Gh(H)     -0.226378    -1.549243     2.698047
Gh(O)      2.595565    -1.054409     0.246960
Gh(H)      2.113393    -1.851888    -0.056301
Gh(H)      3.361367    -1.381693     0.744870
Gh(O)      0.402821    -2.381732    -1.341749
Gh(H)     -0.585953    -2.453448    -1.264600
Gh(H)      0.751084    -2.951825    -2.024247

units ang
no_reorient
no_com
symmetry c1
}

set {
basis        aug-cc-pVTZ
scf_type     df
}

energy("mp2")
--------------------------------------------------------------------------

    Molecular point group: c1

    Geometry (in Angstrom), charge = 0, multiplicity = 1:

       Center              X                  Y                   Z               Mass
    ------------   -----------------  -----------------  -----------------  -----------------
      Gh(K)           0.000000000000     0.000000000000     0.000000000000    38.963706486400
      Gh(O)          -2.854442000000     0.584840000000    -0.122179000000    15.994914619570
      Gh(H)          -3.265333000000    -0.153361000000     0.306368000000     1.007825032230
      Gh(H)          -3.159443000000     1.375887000000     0.435029000000     1.007825032230
         O            1.793507000000     2.390251000000     0.448386000000    15.994914619570
         H            1.484797000000     2.937877000000    -0.247414000000     1.007825032230
         H            2.760113000000     2.530882000000     0.485450000000     1.007825032230
      Gh(O)          -0.012318000000     1.515708000000    -2.116487000000    15.994914619570
      Gh(H)          -0.444712000000     1.661309000000    -2.931489000000     1.007825032230
      Gh(H)           0.234305000000     2.352957000000    -1.751290000000     1.007825032230
      Gh(O)          -0.359420000000    -0.604796000000     2.633990000000    15.994914619570
      Gh(H)           0.279877000000    -0.081645000000     3.137778000000     1.007825032230
      Gh(H)          -0.226378000000    -1.549243000000     2.698047000000     1.007825032230
      Gh(O)           2.595565000000    -1.054409000000     0.246960000000    15.994914619570
      Gh(H)           2.113393000000    -1.851888000000    -0.056301000000     1.007825032230
      Gh(H)           3.361367000000    -1.381693000000     0.744870000000     1.007825032230
      Gh(O)           0.402821000000    -2.381732000000    -1.341749000000    15.994914619570
      Gh(H)          -0.585953000000    -2.453448000000    -1.264600000000     1.007825032230
      Gh(H)           0.751084000000    -2.951825000000    -2.024247000000     1.007825032230

  Charge       = 0
  Multiplicity = 1
  Basis Set: AUG-CC-PVTZ
    Blend: AUG-CC-PVTZ
  Basis Set: (AUG-CC-PVTZ AUX)
    Blend: AUG-CC-PVTZ-JKFIT + DEF2-UNIVERSAL-JKFIT

    Orbital Energies [Eh]
    ---------------------

    Doubly Occupied:

       1A    -20.566538     2A     -1.352900     3A     -0.719867
       4A     -0.582460     5A     -0.509999

  @DF-RHF Final Energy:   -76.05990963696041

   => Energetics <=

    Nuclear Repulsion Energy =              9.1922115266238613
    One-Electron Energy =                -123.0407124122714038
    Two-Electron Energy =                  37.7885912486871192
    Total Energy =                        -76.0599096369604126
 Dipole X            :        -34.7021367           35.1356136            0.4334769
 Dipole Y            :        -46.0083652           46.4698148            0.4614497
 Dipole Z            :         -7.6712180            7.2284368           -0.4427813
 Magnitude           :                                                    0.7725887
  Basis Set: (AUG-CC-PVTZ AUX)
    Blend: AUG-CC-PVTZ-RI + DEF2-QZVPP-RI
	 Reference Energy          =     -76.0599096369604126 [Eh]
	 Singles Energy            =      -0.0000000000000000 [Eh]
	 Same-Spin Energy          =      -0.0683756212584954 [Eh]
	 Opposite-Spin Energy      =      -0.2156311674498343 [Eh]
	 Correlation Energy        =      -0.2840067887083297 [Eh]
	 Total Energy              =     -76.3439164256687377 [Eh]

	 ================> DF-SCS-MP2 Energies <==================
	-----------------------------------------------------------
	 SCS Same-Spin Scale       =       0.3333333333333333 [-]
	 SCS Opposite-Spin Scale   =       1.2000000000000000 [-]
	 SCS Same-Spin Energy      =      -0.0227918737528318 [Eh]
	 SCS Opposite-Spin Energy  =      -0.2587574009398012 [Eh]
	 SCS Correlation Energy    =      -0.2815492746926330 [Eh]
	 SCS Total Energy          =     -76.3414589116530493 [Eh]
	-----------------------------------------------------------

*** Psi4 exiting successfully. Buy a developer a beer!
