                               Psi4 1.9 release

  ==> Input File <==

--------------------------------------------------------------------------
MEMORY 60 GB

molecule dimer {
0 1
Gh(K)      0.000000     0.000000     0.000000
Gh(O)      1.420878    -0.711211     2.184934
Gh(H)      1.736688    -0.202833     2.919371
Gh(H)      1.868927    -1.577892     2.226855
Gh(O)     -1.598928     0.560235    -2.419403
Gh(H)     -1.365736    -0.118708    -3.123021
Gh(H)     -1.346237     1.399038    -2.845520
O         -1.131301    -2.523257     0.183596
H         -1.987351    -3.054599     0.383189
H         -0.368094    -3.072588     0.451747
Gh(O)      1.518076     2.324623    -0.594473
Gh(H)      2.305331     2.111401    -0.053256
Gh(H)      1.802919     2.957861    -1.298562
Gh(O)     -2.049095     1.423091     0.741955
Gh(H)     -2.503284     1.989797     0.085011
Gh(H)     -2.823126     0.947412     1.182702
Gh(O)      2.220787    -1.004945    -1.229033
Gh(H)      2.829877    -1.684268    -1.114338
Gh(H)      2.221823    -0.766439    -2.173954

units ang
no_reorient
no_com
symmetry c1
}

set {
basis        aug-cc-pVTZ
scf_type     df
}

energy("mp2")
--------------------------------------------------------------------------

    Molecular point group: c1

    Geometry (in Angstrom), charge = 0, multiplicity = 1:

       Center              X                  Y                   Z               Mass
    ------------   -----------------  -----------------  -----------------  -----------------
      Gh(K)           0.000000000000     0.000000000000     0.000000000000    38.963706486400
      Gh(O)           1.420878000000    -0.711211000000     2.184934000000    15.994914619570
      Gh(H)           1.736688000000    -0.202833000000     2.919371000000     1.007825032230
      Gh(H)           1.868927000000    -1.577892000000     2.226855000000     1.007825032230
      Gh(O)          -1.598928000000     0.560235000000    -2.419403000000    15.994914619570
      Gh(H)          -1.365736000000    -0.118708000000    -3.123021000000     1.007825032230
      Gh(H)          -1.346237000000     1.399038000000    -2.845520000000     1.007825032230
         O           -1.131301000000    -2.523257000000     0.183596000000    15.994914619570
         H           -1.987351000000    -3.054599000000     0.383189000000     1.007825032230
         H           -0.368094000000    -3.072588000000     0.451747000000     1.007825032230
      Gh(O)           1.518076000000     2.324623000000    -0.594473000000    15.994914619570
      Gh(H)           2.305331000000     2.111401000000    -0.053256000000     1.007825032230
      Gh(H)           1.802919000000     2.957861000000    -1.298562000000     1.007825032230
      Gh(O)          -2.049095000000     1.423091000000     0.741955000000    15.994914619570
      Gh(H)          -2.503284000000     1.989797000000     0.085011000000     1.007825032230
      Gh(H)          -2.823126000000     0.947412000000     1.182702000000     1.007825032230
      Gh(O)           2.220787000000    -1.004945000000    -1.229033000000    15.994914619570
      Gh(H)           2.829877000000    -1.684268000000    -1.114338000000     1.007825032230
      Gh(H)           2.221823000000    -0.766439000000    -2.173954000000     1.007825032230

  Charge       = 0
  Multiplicity = 1
  Basis Set: AUG-CC-PVTZ
    Blend: AUG-CC-PVTZ
  Basis Set: (AUG-CC-PVTZ AUX)
    Blend: AUG-CC-PVTZ-JKFIT + DEF2-UNIVERSAL-JKFIT

    Orbital Energies [Eh]
    ---------------------

    Doubly Occupied:

       1A    -20.573089     2A     -1.329781     3A     -0.699709
       4A     -0.569658     5A     -0.505778

  @DF-RHF Final Energy:   -76.05281976591132

   => Energetics <=

    Nuclear Repulsion Energy =              8.7775073448957972
    One-Electron Energy =                -122.3046206735505734
    Two-Electron Energy =                  37.4742935627434548
    Total Energy =                        -76.0528197659113232
 Dipole X            :         21.5008816          -21.5539384           -0.0530568
 Dipole Y            :         49.0186088          -49.7248227           -0.7062139
 Dipole Z            :         -4.0473881            4.3533696            0.3059815
 Magnitude           :                                                    0.7714777
  Basis Set: (AUG-CC-PVTZ AUX)
    Blend: AUG-CC-PVTZ-RI + DEF2-QZVPP-RI
	 Reference Energy          =     -76.0528197659113232 [Eh]
	 Singles Energy            =      -0.0000000000000000 [Eh]
	 Same-Spin Energy          =      -0.0691019072430172 [Eh]
	 Opposite-Spin Energy      =      -0.2178145475336776 [Eh]
	 Correlation Energy        =      -0.2869164547766948 [Eh]
	 Total Energy              =     -76.3397362206880246 [Eh]

	 ================> DF-SCS-MP2 Energies <==================
	-----------------------------------------------------------
	 SCS Same-Spin Scale       =       0.3333333333333333 [-]
	 SCS Opposite-Spin Scale   =       1.2000000000000000 [-]
	 SCS Same-Spin Energy      =      -0.0230339690810057 [Eh]
	 SCS Opposite-Spin Energy  =      -0.2613774570404131 [Eh]
	 SCS Correlation Energy    =      -0.2844114261214188 [Eh]
	 SCS Total Energy          =     -76.3372311920327462 [Eh]
	-----------------------------------------------------------

*** Psi4 exiting successfully. Buy a developer a beer!
