                               Psi4 1.9 release

  ==> Input File <==

--------------------------------------------------------------------------
MEMORY 60 GB

molecule dimer {
1 1
K          0.000000     0.000000     0.000000
O          1.561623    -1.801787     1.465392
H          1.495913    -1.409150     2.361074
H          2.405619    -2.025458     1.077899
O         -1.424639    -0.655851     2.090662
H         -0.921701    -0.097964     2.672960
H         -2.396934    -0.579047     2.394294
O         -0.430437    -1.342300    -2.594784
H         -0.028298    -2.177339    -2.869167
H         -0.070011    -0.628832    -3.155245
O          1.871301     1.921050    -0.065534
H          2.359953     2.169210     0.749252
H          2.507104     1.476286    -0.655249

units ang
no_reorient
no_com
symmetry c1
}

set {
basis        aug-cc-pVTZ
scf_type     df
}

energy("mp2")
--------------------------------------------------------------------------

    Molecular point group: c1

    Geometry (in Angstrom), charge = 1, multiplicity = 1:

       Center              X                  Y                   Z               Mass
    ------------   -----------------  -----------------  -----------------  -----------------
         K            0.000000000000     0.000000000000     0.000000000000    38.963706486400
         O            1.561623000000    -1.801787000000     1.465392000000    15.994914619570
         H            1.495913000000    -1.409150000000     2.361074000000     1.007825032230
         H            2.405619000000    -2.025458000000     1.077899000000     1.007825032230
         O           -1.424639000000    -0.655851000000     2.090662000000    15.994914619570
         H           -0.921701000000    -0.097964000000     2.672960000000     1.007825032230
         H           -2.396934000000    -0.579047000000     2.394294000000     1.007825032230
         O           -0.430437000000    -1.342300000000    -2.594784000000    15.994914619570
         H           -0.028298000000    -2.177339000000    -2.869167000000     1.007825032230
         H           -0.070011000000    -0.628832000000    -3.155245000000     1.007825032230
         O            1.871301000000     1.921050000000    -0.065534000000    15.994914619570
         H            2.359953000000     2.169210000000     0.749252000000     1.007825032230
         H            2.507104000000     1.476286000000    -0.655249000000     1.007825032230

  Charge       = 1
  Multiplicity = 1
  Basis Set: AUG-CC-PVTZ
    Blend: AUG-CC-PVTZ
  Basis Set: (AUG-CC-PVTZ AUX)
    Blend: AUG-CC-PVTZ-JKFIT + DEF2-UNIVERSAL-JKFIT

    Orbital Energies [Eh]
    ---------------------

    Doubly Occupied:

       1A   -133.629391     2A    -20.734014     3A    -20.728692
       4A    -20.714282     5A    -20.711749     6A    -14.587027
       7A    -11.616925     8A    -11.616894     9A    -11.616773
      10A     -1.849271    11A     -1.509856    12A     -1.502664
      13A     -1.493355    14A     -1.489145    15A     -1.060277
      16A     -1.058577    17A     -1.056880    18A     -0.895829
      19A     -0.877717    20A     -0.866297    21A     -0.861478
      22A     -0.748695    23A     -0.742368    24A     -0.723931
      25A     -0.709695    26A     -0.678671    27A     -0.671090
      28A     -0.661477    29A     -0.655207

  @DF-RHF Final Energy:  -903.30793625645583

   => Energetics <=

    Nuclear Repulsion Energy =            250.3385565623662785
    One-Electron Energy =               -1735.1565259290218819
    Two-Electron Energy =                 581.5100331101998563
    Total Energy =                       -903.3079362564558323
 Dipole X            :        -32.3954129           33.9667481            1.5713352
 Dipole Y            :         34.7236568          -34.5884094            0.1352474
 Dipole Z            :        -17.7534433           18.4091563            0.6557131
 Magnitude           :                                                    1.7080239
  Basis Set: (AUG-CC-PVTZ AUX)
    Blend: AUG-CC-PVTZ-RI + DEF2-QZVPP-RI
	 Reference Energy          =    -903.3079362564558323 [Eh]
	 Singles Energy            =      -0.0000000000000000 [Eh]
	 Same-Spin Energy          =      -0.3133787844207745 [Eh]
	 Opposite-Spin Energy      =      -0.9508208552214531 [Eh]
	 Correlation Energy        =      -1.2641996396422277 [Eh]
	 Total Energy              =    -904.5721358960980751 [Eh]

	 ================> DF-SCS-MP2 Energies <==================
	-----------------------------------------------------------
	 SCS Same-Spin Scale       =       0.3333333333333333 [-]
	 SCS Opposite-Spin Scale   =       1.2000000000000000 [-]
	 SCS Same-Spin Energy      =      -0.1044595948069248 [Eh]
	 SCS Opposite-Spin Energy  =      -1.1409850262657437 [Eh]
	 SCS Correlation Energy    =      -1.2454446210726686 [Eh]
	 SCS Total Energy          =    -904.5533808775285252 [Eh]
	-----------------------------------------------------------

*** Psi4 exiting successfully. Buy a developer a beer!
