                               Psi4 1.9 release

  ==> Input File <==

--------------------------------------------------------------------------
MEMORY 60 GB

molecule dimer {
0 1
Gh(K)      0.000000     0.000000     0.000000
Gh(O)      1.803653    -1.847112     0.206100
Gh(H)      1.708783    -2.680683    -0.284385
Gh(H)      2.119183    -2.134639     1.088298
Gh(O)     -2.728888     0.492668     0.134493
Gh(H)     -3.517786     0.992519    -0.173322
Gh(H)     -3.011923    -0.394222     0.363049
O          1.771017     1.498733     1.768874
H          2.165305     0.873233     2.367554
H          2.327225     2.217179     1.679509
Gh(O)     -1.232019    -2.027642    -1.142992
Gh(H)     -0.978584    -2.636571    -1.824547
Gh(H)     -1.720507    -2.476302    -0.401567
Gh(O)      0.256748     1.390877    -2.161874
Gh(H)     -0.134506     2.251599    -2.418476
Gh(H)      1.075887     1.688448    -1.702877

units ang
no_reorient
no_com
symmetry c1
}

set {
basis        aug-cc-pVTZ
scf_type     df
}

energy("mp2")
--------------------------------------------------------------------------

    Molecular point group: c1

    Geometry (in Angstrom), charge = 0, multiplicity = 1:

       Center              X                  Y                   Z               Mass
    ------------   -----------------  -----------------  -----------------  -----------------
      Gh(K)           0.000000000000     0.000000000000     0.000000000000    38.963706486400
      Gh(O)           1.803653000000    -1.847112000000     0.206100000000    15.994914619570
      Gh(H)           1.708783000000    -2.680683000000    -0.284385000000     1.007825032230
      Gh(H)           2.119183000000    -2.134639000000     1.088298000000     1.007825032230
      Gh(O)          -2.728888000000     0.492668000000     0.134493000000    15.994914619570
      Gh(H)          -3.517786000000     0.992519000000    -0.173322000000     1.007825032230
      Gh(H)          -3.011923000000    -0.394222000000     0.363049000000     1.007825032230
         O            1.771017000000     1.498733000000     1.768874000000    15.994914619570
         H            2.165305000000     0.873233000000     2.367554000000     1.007825032230
         H            2.327225000000     2.217179000000     1.679509000000     1.007825032230
      Gh(O)          -1.232019000000    -2.027642000000    -1.142992000000    15.994914619570
      Gh(H)          -0.978584000000    -2.636571000000    -1.824547000000     1.007825032230
      Gh(H)          -1.720507000000    -2.476302000000    -0.401567000000     1.007825032230
      Gh(O)           0.256748000000     1.390877000000    -2.161874000000    15.994914619570
      Gh(H)          -0.134506000000     2.251599000000    -2.418476000000     1.007825032230
      Gh(H)           1.075887000000     1.688448000000    -1.702877000000     1.007825032230

  Charge       = 0
  Multiplicity = 1
  Basis Set: AUG-CC-PVTZ
    Blend: AUG-CC-PVTZ
  Basis Set: (AUG-CC-PVTZ AUX)
    Blend: AUG-CC-PVTZ-JKFIT + DEF2-UNIVERSAL-JKFIT

    Orbital Energies [Eh]
    ---------------------

    Doubly Occupied:

       1A    -20.560544     2A     -1.363945     3A     -0.740912
       4A     -0.580647     5A     -0.511256

  @DF-RHF Final Energy:   -76.06004168445226

   => Energetics <=

    Nuclear Repulsion Energy =              9.4351993620880688
    One-Electron Energy =                -123.4758702968372290
    Two-Electron Energy =                  37.9806292502969001
    Total Energy =                        -76.0600416844522584
 Dipole X            :        -34.6110566           35.2635481            0.6524915
 Dipole Y            :        -28.4285898           28.4975915            0.0690018
 Dipole Z            :        -34.0426578           34.3893400            0.3466822
 Magnitude           :                                                    0.7420882
  Basis Set: (AUG-CC-PVTZ AUX)
    Blend: AUG-CC-PVTZ-RI + DEF2-QZVPP-RI
	 Reference Energy          =     -76.0600416844522584 [Eh]
	 Singles Energy            =      -0.0000000000000000 [Eh]
	 Same-Spin Energy          =      -0.0678776145221973 [Eh]
	 Opposite-Spin Energy      =      -0.2139720736388504 [Eh]
	 Correlation Energy        =      -0.2818496881610477 [Eh]
	 Total Energy              =     -76.3418913726133042 [Eh]

	 ================> DF-SCS-MP2 Energies <==================
	-----------------------------------------------------------
	 SCS Same-Spin Scale       =       0.3333333333333333 [-]
	 SCS Opposite-Spin Scale   =       1.2000000000000000 [-]
	 SCS Same-Spin Energy      =      -0.0226258715073991 [Eh]
	 SCS Opposite-Spin Energy  =      -0.2567664883666205 [Eh]
	 SCS Correlation Energy    =      -0.2793923598740196 [Eh]
	 SCS Total Energy          =     -76.3394340443262820 [Eh]
	-----------------------------------------------------------

*** Psi4 exiting successfully. Buy a developer a beer!
