                               Psi4 1.9 release

  ==> Input File <==

--------------------------------------------------------------------------
MEMORY 60 GB

molecule dimer {
1 1
K          0.000000     0.000000     0.000000
Gh(O)     -2.443974    -0.924940    -0.753874
Gh(H)     -2.879080    -0.982845    -1.566392
Gh(H)     -3.075308    -0.759627    -0.078308
Gh(O)      2.258221     2.031931    -0.252422
Gh(H)      3.160911     2.340982    -0.304247
Gh(H)      1.773997     2.842941    -0.220350
Gh(O)      0.816379    -1.772428    -1.854739
Gh(H)      0.355731    -1.803103    -2.682501
Gh(H)      1.790593    -1.660283    -2.009260
Gh(O)      0.385784    -2.386352     1.285565
Gh(H)     -0.034250    -3.134856     0.744614
Gh(H)     -0.166993    -2.412580     2.018828
Gh(O)      0.888475     0.436632     2.558956
Gh(H)      0.580862     0.364340     3.467400
Gh(H)      1.708919     0.935211     2.674296

units ang
no_reorient
no_com
symmetry c1
}

set {
basis        aug-cc-pVTZ
scf_type     df
}

energy("mp2")
--------------------------------------------------------------------------

    Molecular point group: c1

    Geometry (in Angstrom), charge = 1, multiplicity = 1:

       Center              X                  Y                   Z               Mass
    ------------   -----------------  -----------------  -----------------  -----------------
         K            0.000000000000     0.000000000000     0.000000000000    38.963706486400
      Gh(O)          -2.443974000000    -0.924940000000    -0.753874000000    15.994914619570
      Gh(H)          -2.879080000000    -0.982845000000    -1.566392000000     1.007825032230
      Gh(H)          -3.075308000000    -0.759627000000    -0.078308000000     1.007825032230
      Gh(O)           2.258221000000     2.031931000000    -0.252422000000    15.994914619570
      Gh(H)           3.160911000000     2.340982000000    -0.304247000000     1.007825032230
      Gh(H)           1.773997000000     2.842941000000    -0.220350000000     1.007825032230
      Gh(O)           0.816379000000    -1.772428000000    -1.854739000000    15.994914619570
      Gh(H)           0.355731000000    -1.803103000000    -2.682501000000     1.007825032230
      Gh(H)           1.790593000000    -1.660283000000    -2.009260000000     1.007825032230
      Gh(O)           0.385784000000    -2.386352000000     1.285565000000    15.994914619570
      Gh(H)          -0.034250000000    -3.134856000000     0.744614000000     1.007825032230
      Gh(H)          -0.166993000000    -2.412580000000     2.018828000000     1.007825032230
      Gh(O)           0.888475000000     0.436632000000     2.558956000000    15.994914619570
      Gh(H)           0.580862000000     0.364340000000     3.467400000000     1.007825032230
      Gh(H)           1.708919000000     0.935211000000     2.674296000000     1.007825032230

  Charge       = 1
  Multiplicity = 1
  Basis Set: AUG-CC-PVTZ
    Blend: AUG-CC-PVTZ
  Basis Set: (AUG-CC-PVTZ AUX)
    Blend: AUG-CC-PVTZ-JKFIT + DEF2-UNIVERSAL-JKFIT

    Orbital Energies [Eh]
    ---------------------

    Doubly Occupied:

       1A   -133.752603     2A    -14.708276     3A    -11.738337
       4A    -11.738336     5A    -11.738336     6A     -1.963918
       7A     -1.170624     8A     -1.170607     9A     -1.170600

  @DF-RHF Final Energy:  -599.01751611658597

   => Energetics <=

    Nuclear Repulsion Energy =              0.0000000000000000
    One-Electron Energy =                -819.7317592611263990
    Two-Electron Energy =                 220.7142431445404327
    Total Energy =                       -599.0175161165859663
 Dipole X            :          0.0000547            0.0000000            0.0000547
 Dipole Y            :         -0.0002181            0.0000000           -0.0002181
 Dipole Z            :          0.0000257            0.0000000            0.0000257
 Magnitude           :                                                    0.0002263
  Basis Set: (AUG-CC-PVTZ AUX)
    Blend: AUG-CC-PVTZ-RI + DEF2-QZVPP-RI
	 Reference Energy          =    -599.0175161165859663 [Eh]
	 Singles Energy            =      -0.0000000000000000 [Eh]
	 Same-Spin Energy          =      -0.0364305031173720 [Eh]
	 Opposite-Spin Energy      =      -0.0884336308101839 [Eh]
	 Correlation Energy        =      -0.1248641339275559 [Eh]
	 Total Energy              =    -599.1423802505134972 [Eh]

	 ================> DF-SCS-MP2 Energies <==================
	-----------------------------------------------------------
	 SCS Same-Spin Scale       =       0.3333333333333333 [-]
	 SCS Opposite-Spin Scale   =       1.2000000000000000 [-]
	 SCS Same-Spin Energy      =      -0.0121435010391240 [Eh]
	 SCS Opposite-Spin Energy  =      -0.1061203569722207 [Eh]
	 SCS Correlation Energy    =      -0.1182638580113447 [Eh]
	 SCS Total Energy          =    -599.1357799745973125 [Eh]
	-----------------------------------------------------------

*** Psi4 exiting successfully. Buy a developer a beer!
