                               Psi4 1.9 release

  ==> Input File <==

--------------------------------------------------------------------------
MEMORY 60 GB

molecule dimer {
1 1
K      0.000000     0.000000     0.000000
--
0 1
O      0.612876    -1.115935    -2.349051
H      0.426290    -1.552454    -3.196404
H      1.249709    -1.726035    -1.997265
O      0.226950    -1.309350     2.562510
H      0.264022    -0.641943     3.257966
H      1.068749    -1.730800     2.570162
O     -2.056105     0.919747    -1.186773
H     -2.198049     0.297455    -1.925318
H     -2.809767     1.060828    -0.585807
O     -1.976233    -2.079701    -0.110673
H     -1.733104    -3.050987    -0.116702
H     -2.703697    -1.948167    -0.750612
O      1.852186     1.592652     1.468527
H      2.464721     2.245763     1.040167
H      1.990939     1.633926     2.445297
O      2.746451    -1.160995     0.084226
H      3.055897    -0.685917    -0.671043
H      3.443294    -1.731569     0.452839

units ang
no_reorient
no_com
symmetry c1
}

set {
basis        aug-cc-pVTZ
scf_type     df
}

energy("mp2", bsse_type="cp")
--------------------------------------------------------------------------

                               Psi4 1.9 release
    Molecular point group: c1
  Charge       = 0
  Multiplicity = 1
  Basis Set: AUG-CC-PVTZ
    Blend: AUG-CC-PVTZ
  Basis Set: (AUG-CC-PVTZ AUX)
    Blend: AUG-CC-PVTZ-JKFIT + DEF2-UNIVERSAL-JKFIT
  @DF-RHF Final Energy:  -456.32595533450183
    Total Energy =                       -456.3259553345018276
 Dipole X            :        -28.6198408           29.7972091            1.1773683
 Dipole Y            :         61.5507021          -62.4716169           -0.9209148
 Dipole Z            :         -8.3010365            8.0755707           -0.2254658
 Magnitude           :                                                    1.5116597
  Basis Set: (AUG-CC-PVTZ AUX)
    Blend: AUG-CC-PVTZ-RI + DEF2-QZVPP-RI
	 Reference Energy          =    -456.3259553345018276 [Eh]
	 Singles Energy            =      -0.0000000000000000 [Eh]
	 Same-Spin Energy          =      -0.4150193698137277 [Eh]
	 Opposite-Spin Energy      =      -1.3020517806648118 [Eh]
	 Correlation Energy        =      -1.7170711504785394 [Eh]
	 Total Energy              =    -458.0430264849803734 [Eh]
	 SCS Total Energy          =    -458.0267572612374920 [Eh]
                               Psi4 1.9 release
    Molecular point group: c1
  Multiplicity = 1
  Basis Set: AUG-CC-PVTZ
    Blend: AUG-CC-PVTZ
  Basis Set: (AUG-CC-PVTZ AUX)
    Blend: AUG-CC-PVTZ-JKFIT + DEF2-UNIVERSAL-JKFIT
  @DF-RHF Final Energy:  -599.01751694881636
    Total Energy =                       -599.0175169488163647
  Basis Set: (AUG-CC-PVTZ AUX)
	 Singles Energy            =      -0.0000000000000000 [Eh]
	 Same-Spin Energy          =      -0.0385424827830259 [Eh]
	 Opposite-Spin Energy      =      -0.0945328338587193 [Eh]
	 Correlation Energy        =      -0.1330753166417452 [Eh]
	 Total Energy              =    -599.1505922654581582 [Eh]
	 SCS Total Energy          =    -599.1438038437078148 [Eh]
                               Psi4 1.9 release
    Molecular point group: c1

    Geometry (in Bohr), charge = 1, multiplicity = 1:

       Center              X                  Y                   Z               Mass
    ------------   -----------------  -----------------  -----------------  -----------------
         K            0.000000000000     0.000000000000     0.000000000000    38.963706486400
         O            1.158167788866    -2.108811523813    -4.439063044733    15.994914619570
         H            0.805571350021    -2.933712882372    -6.040328146318     1.007825032230
         H            2.361607746520    -3.261733432955    -3.774283849963     1.007825032230
         O            0.428873344173    -2.474312902368     4.842442093747    15.994914619570
         H            0.498929271096    -1.213096458155     6.156663466053     1.007825032230
         H            2.019642906857    -3.270737977942     4.856902278059     1.007825032230
         O           -3.885475335184     1.738069934711    -2.242675943088    15.994914619570
         H           -4.153710620336     0.562108484648    -3.638323724414     1.007825032230
         H           -5.309690106349     2.004674386217    -1.107014792376     1.007825032230
         O           -3.734539130092    -3.930065312841    -0.209141659483    15.994914619570
         H           -3.275091906935    -5.765529842332    -0.220534818293     1.007825032230
         H           -5.109246856222    -3.681502076655    -1.418451106482     1.007825032230
         O            3.500124273407     3.009676093163     2.775113837840    15.994914619570
         H            4.657647665665     4.243877012687     1.965630754739     1.007825032230
         H            3.762329442493     3.087672649265     4.620941625404     1.007825032230
         O            5.190040206990    -2.193962583026     0.159164072643    15.994914619570
         H            5.774808397608    -1.296195274796    -1.268087488406     1.007825032230
         H            6.506882629432    -3.272191177333     0.855741688926     1.007825032230

  Charge       = 1
  Multiplicity = 1
  Basis Set: AUG-CC-PVTZ
    Blend: AUG-CC-PVTZ
  Basis Set: (AUG-CC-PVTZ AUX)
    Blend: AUG-CC-PVTZ-JKFIT + DEF2-UNIVERSAL-JKFIT

    Orbital Energies [Eh]
    ---------------------

    Doubly Occupied:

       1A   -133.577761     2A    -20.710664     3A    -20.703333
       4A    -20.701586     5A    -20.700813     6A    -20.697084
       7A    -20.688356     8A    -14.535910     9A    -11.565798
      10A    -11.565719    11A    -11.565602    12A     -1.799914
      13A     -1.501381    14A     -1.489870    15A     -1.479951
      16A     -1.479687    17A     -1.468433    18A     -1.463932
      19A     -1.012717    20A     -1.009552    21A     -1.009129
      22A     -0.872528    23A     -0.868991    24A     -0.849028
      25A     -0.846449    26A     -0.839689    27A     -0.834698
      28A     -0.745204    29A     -0.720560    30A     -0.712771
      31A     -0.710509    32A     -0.704822    33A     -0.702283
      34A     -0.659723    35A     -0.654972    36A     -0.648596
      37A     -0.636939    38A     -0.635358    39A     -0.633995

  @DF-RHF Final Energy: -1055.45470379762901

   => Energetics <=

    Nuclear Repulsion Energy =            455.7820728191971398
    One-Electron Energy =               -2354.4649256009133751
    Two-Electron Energy =                 843.2281489840873974
    Total Energy =                      -1055.4547037976290085
 Dipole X            :        -28.5815246           29.7972091            1.2156846
 Dipole Y            :         61.2797063          -62.4716169           -1.1919106
 Dipole Z            :         -8.3332316            8.0755707           -0.2576608
 Magnitude           :                                                    1.7218969
  Basis Set: (AUG-CC-PVTZ AUX)
    Blend: AUG-CC-PVTZ-RI + DEF2-QZVPP-RI
	 Reference Energy          =   -1055.4547037976290085 [Eh]
	 Singles Energy            =      -0.0000000000000000 [Eh]
	 Same-Spin Energy          =      -0.4570673102409781 [Eh]
	 Opposite-Spin Energy      =      -1.3954607075335081 [Eh]
	 Correlation Energy        =      -1.8525280177744863 [Eh]
	 Total Energy              =   -1057.3072318154033837 [Eh]

	 ================> DF-SCS-MP2 Energies <==================
	-----------------------------------------------------------
	 SCS Same-Spin Scale       =       0.3333333333333333 [-]
	 SCS Opposite-Spin Scale   =       1.2000000000000000 [-]
	 SCS Same-Spin Energy      =      -0.1523557700803260 [Eh]
	 SCS Opposite-Spin Energy  =      -1.6745528490402097 [Eh]
	 SCS Correlation Energy    =      -1.8269086191205357 [Eh]
	 SCS Total Energy          =   -1057.2816124167495673 [Eh]
	-----------------------------------------------------------

*** Psi4 exiting successfully. Buy a developer a beer!
