                               Psi4 1.9 release

  ==> Input File <==

--------------------------------------------------------------------------
MEMORY 60 GB

molecule dimer {
0 1
Gh(K)      0.000000     0.000000     0.000000
Gh(O)      0.819292    -2.789941     0.291306
Gh(H)      1.195094    -2.776841    -0.566002
Gh(H)     -0.077964    -3.026358     0.173959
O          1.764010    -0.126028     2.022779
H          1.754232     0.527948     2.711207
H          2.705527    -0.165887     1.849429
Gh(O)      0.734762    -1.062837    -2.508725
Gh(H)     -0.095661    -1.571347    -2.543715
Gh(H)      0.877683    -0.850644    -3.477691
Gh(O)     -1.962159    -1.257408    -1.533300
Gh(H)     -1.941275    -2.118908    -1.072393
Gh(H)     -2.659976    -0.760867    -1.081823
Gh(O)     -1.800433     2.262698     0.326586
Gh(H)     -2.152082     2.644699     1.205225
Gh(H)     -2.536440     1.995678    -0.220888
Gh(O)      2.083767     1.285735    -1.472343
Gh(H)      2.549628     1.827404    -0.889650
Gh(H)      2.615719     0.570403    -1.811064
Gh(O)     -2.043898    -0.136581     1.786181
Gh(H)     -2.602896    -0.897183     2.048392
Gh(H)     -2.544444     0.705464     1.976021

units ang
no_reorient
no_com
symmetry c1
}

set {
basis        aug-cc-pVTZ
scf_type     df
}

energy("mp2")
--------------------------------------------------------------------------

    Molecular point group: c1

    Geometry (in Angstrom), charge = 0, multiplicity = 1:

       Center              X                  Y                   Z               Mass
    ------------   -----------------  -----------------  -----------------  -----------------
      Gh(K)           0.000000000000     0.000000000000     0.000000000000    38.963706486400
      Gh(O)           0.819292000000    -2.789941000000     0.291306000000    15.994914619570
      Gh(H)           1.195094000000    -2.776841000000    -0.566002000000     1.007825032230
      Gh(H)          -0.077964000000    -3.026358000000     0.173959000000     1.007825032230
         O            1.764010000000    -0.126028000000     2.022779000000    15.994914619570
         H            1.754232000000     0.527948000000     2.711207000000     1.007825032230
         H            2.705527000000    -0.165887000000     1.849429000000     1.007825032230
      Gh(O)           0.734762000000    -1.062837000000    -2.508725000000    15.994914619570
      Gh(H)          -0.095661000000    -1.571347000000    -2.543715000000     1.007825032230
      Gh(H)           0.877683000000    -0.850644000000    -3.477691000000     1.007825032230
      Gh(O)          -1.962159000000    -1.257408000000    -1.533300000000    15.994914619570
      Gh(H)          -1.941275000000    -2.118908000000    -1.072393000000     1.007825032230
      Gh(H)          -2.659976000000    -0.760867000000    -1.081823000000     1.007825032230
      Gh(O)          -1.800433000000     2.262698000000     0.326586000000    15.994914619570
      Gh(H)          -2.152082000000     2.644699000000     1.205225000000     1.007825032230
      Gh(H)          -2.536440000000     1.995678000000    -0.220888000000     1.007825032230
      Gh(O)           2.083767000000     1.285735000000    -1.472343000000    15.994914619570
      Gh(H)           2.549628000000     1.827404000000    -0.889650000000     1.007825032230
      Gh(H)           2.615719000000     0.570403000000    -1.811064000000     1.007825032230
      Gh(O)          -2.043898000000    -0.136581000000     1.786181000000    15.994914619570
      Gh(H)          -2.602896000000    -0.897183000000     2.048392000000     1.007825032230
      Gh(H)          -2.544444000000     0.705464000000     1.976021000000     1.007825032230

  Charge       = 0
  Multiplicity = 1
  Basis Set: AUG-CC-PVTZ
    Blend: AUG-CC-PVTZ
  Basis Set: (AUG-CC-PVTZ AUX)
    Blend: AUG-CC-PVTZ-JKFIT + DEF2-UNIVERSAL-JKFIT

    Orbital Energies [Eh]
    ---------------------

    Doubly Occupied:

       1A    -20.568417     2A     -1.358810     3A     -0.710047
       4A     -0.594864     5A     -0.511955

  @DF-RHF Final Energy:   -76.05990557502679

   => Energetics <=

    Nuclear Repulsion Energy =              9.2390653454493741
    One-Electron Energy =                -123.1097544524234308
    Two-Electron Energy =                  37.8107835319472727
    Total Energy =                        -76.0599055750267894
 Dipole X            :        -34.4840257           35.0956894            0.6116637
 Dipole Y            :          1.6256695           -1.2210711            0.4045984
 Dipole Z            :        -38.8585081           39.1983396            0.3398315
 Magnitude           :                                                    0.8082808
  Basis Set: (AUG-CC-PVTZ AUX)
    Blend: AUG-CC-PVTZ-RI + DEF2-QZVPP-RI
	 Reference Energy          =     -76.0599055750267894 [Eh]
	 Singles Energy            =      -0.0000000000000000 [Eh]
	 Same-Spin Energy          =      -0.0684459394069889 [Eh]
	 Opposite-Spin Energy      =      -0.2157215875355782 [Eh]
	 Correlation Energy        =      -0.2841675269425671 [Eh]
	 Total Energy              =     -76.3440731019693573 [Eh]

	 ================> DF-SCS-MP2 Energies <==================
	-----------------------------------------------------------
	 SCS Same-Spin Scale       =       0.3333333333333333 [-]
	 SCS Opposite-Spin Scale   =       1.2000000000000000 [-]
	 SCS Same-Spin Energy      =      -0.0228153131356630 [Eh]
	 SCS Opposite-Spin Energy  =      -0.2588659050426939 [Eh]
	 SCS Correlation Energy    =      -0.2816812181783568 [Eh]
	 SCS Total Energy          =     -76.3415867932051526 [Eh]
	-----------------------------------------------------------

*** Psi4 exiting successfully. Buy a developer a beer!
