                               Psi4 1.9 release

  ==> Input File <==

--------------------------------------------------------------------------
MEMORY 60 GB

molecule dimer {
0 1
Gh(K)      0.000000     0.000000     0.000000
Gh(O)      0.381547    -2.552558    -1.504867
Gh(H)      1.305011    -2.508122    -1.562112
Gh(H)      0.195752    -3.068888    -0.743103
Gh(O)     -2.152753    -1.918638    -0.513085
Gh(H)     -3.032715    -1.893013    -0.107358
Gh(H)     -2.129564    -2.762877    -0.889215
Gh(O)      1.881209    -1.325987     1.692441
Gh(H)      2.801171    -1.317073     1.472737
Gh(H)      1.822881    -1.212799     2.637718
O         -0.856008     2.370718     1.286842
H         -1.091753     2.561565     2.221772
H         -0.547518     3.153373     0.860940
Gh(O)     -0.195392     1.168538    -2.406268
Gh(H)      0.427603     1.930953    -2.467495
Gh(H)     -0.179593     0.694044    -3.196332

units ang
no_reorient
no_com
symmetry c1
}

set {
basis        aug-cc-pVTZ
scf_type     df
}

energy("mp2")
--------------------------------------------------------------------------

    Molecular point group: c1

    Geometry (in Angstrom), charge = 0, multiplicity = 1:

       Center              X                  Y                   Z               Mass
    ------------   -----------------  -----------------  -----------------  -----------------
      Gh(K)           0.000000000000     0.000000000000     0.000000000000    38.963706486400
      Gh(O)           0.381547000000    -2.552558000000    -1.504867000000    15.994914619570
      Gh(H)           1.305011000000    -2.508122000000    -1.562112000000     1.007825032230
      Gh(H)           0.195752000000    -3.068888000000    -0.743103000000     1.007825032230
      Gh(O)          -2.152753000000    -1.918638000000    -0.513085000000    15.994914619570
      Gh(H)          -3.032715000000    -1.893013000000    -0.107358000000     1.007825032230
      Gh(H)          -2.129564000000    -2.762877000000    -0.889215000000     1.007825032230
      Gh(O)           1.881209000000    -1.325987000000     1.692441000000    15.994914619570
      Gh(H)           2.801171000000    -1.317073000000     1.472737000000     1.007825032230
      Gh(H)           1.822881000000    -1.212799000000     2.637718000000     1.007825032230
         O           -0.856008000000     2.370718000000     1.286842000000    15.994914619570
         H           -1.091753000000     2.561565000000     2.221772000000     1.007825032230
         H           -0.547518000000     3.153373000000     0.860940000000     1.007825032230
      Gh(O)          -0.195392000000     1.168538000000    -2.406268000000    15.994914619570
      Gh(H)           0.427603000000     1.930953000000    -2.467495000000     1.007825032230
      Gh(H)          -0.179593000000     0.694044000000    -3.196332000000     1.007825032230

  Charge       = 0
  Multiplicity = 1
  Basis Set: AUG-CC-PVTZ
    Blend: AUG-CC-PVTZ
  Basis Set: (AUG-CC-PVTZ AUX)
    Blend: AUG-CC-PVTZ-JKFIT + DEF2-UNIVERSAL-JKFIT

    Orbital Energies [Eh]
    ---------------------

    Doubly Occupied:

       1A    -20.565379     2A     -1.347016     3A     -0.725483
       4A     -0.572516     5A     -0.508141

  @DF-RHF Final Energy:   -76.05888700262733

   => Energetics <=

    Nuclear Repulsion Energy =              9.1315296557427814
    One-Electron Energy =                -122.9437615128430963
    Two-Electron Energy =                  37.7533448544729850
    Total Energy =                        -76.0588870026273298
 Dipole X            :         16.0896993          -16.0387387            0.0509606
 Dipole Y            :        -45.9803051           46.6397296            0.6594245
 Dipole Z            :        -24.9410824           25.2797130            0.3386306
 Magnitude           :                                                    0.7430399
  Basis Set: (AUG-CC-PVTZ AUX)
    Blend: AUG-CC-PVTZ-RI + DEF2-QZVPP-RI
	 Reference Energy          =     -76.0588870026273298 [Eh]
	 Singles Energy            =      -0.0000000000000000 [Eh]
	 Same-Spin Energy          =      -0.0683921004188611 [Eh]
	 Opposite-Spin Energy      =      -0.2154673599082698 [Eh]
	 Correlation Energy        =      -0.2838594603271309 [Eh]
	 Total Energy              =     -76.3427464629544659 [Eh]

	 ================> DF-SCS-MP2 Energies <==================
	-----------------------------------------------------------
	 SCS Same-Spin Scale       =       0.3333333333333333 [-]
	 SCS Opposite-Spin Scale   =       1.2000000000000000 [-]
	 SCS Same-Spin Energy      =      -0.0227973668062870 [Eh]
	 SCS Opposite-Spin Energy  =      -0.2585608318899238 [Eh]
	 SCS Correlation Energy    =      -0.2813581986962108 [Eh]
	 SCS Total Energy          =     -76.3402452013235404 [Eh]
	-----------------------------------------------------------

*** Psi4 exiting successfully. Buy a developer a beer!
