                               Psi4 1.9 release

  ==> Input File <==

--------------------------------------------------------------------------
MEMORY 60 GB

molecule dimer {
1 1
K          0.000000     0.000000     0.000000
Gh(O)      1.561623    -1.801787     1.465392
Gh(H)      1.495913    -1.409150     2.361074
Gh(H)      2.405619    -2.025458     1.077899
Gh(O)     -1.424639    -0.655851     2.090662
Gh(H)     -0.921701    -0.097964     2.672960
Gh(H)     -2.396934    -0.579047     2.394294
Gh(O)     -0.430437    -1.342300    -2.594784
Gh(H)     -0.028298    -2.177339    -2.869167
Gh(H)     -0.070011    -0.628832    -3.155245
Gh(O)      1.871301     1.921050    -0.065534
Gh(H)      2.359953     2.169210     0.749252
Gh(H)      2.507104     1.476286    -0.655249

units ang
no_reorient
no_com
symmetry c1
}

set {
basis        aug-cc-pVTZ
scf_type     df
}

energy("mp2")
--------------------------------------------------------------------------

    Molecular point group: c1

    Geometry (in Angstrom), charge = 1, multiplicity = 1:

       Center              X                  Y                   Z               Mass
    ------------   -----------------  -----------------  -----------------  -----------------
         K            0.000000000000     0.000000000000     0.000000000000    38.963706486400
      Gh(O)           1.561623000000    -1.801787000000     1.465392000000    15.994914619570
      Gh(H)           1.495913000000    -1.409150000000     2.361074000000     1.007825032230
      Gh(H)           2.405619000000    -2.025458000000     1.077899000000     1.007825032230
      Gh(O)          -1.424639000000    -0.655851000000     2.090662000000    15.994914619570
      Gh(H)          -0.921701000000    -0.097964000000     2.672960000000     1.007825032230
      Gh(H)          -2.396934000000    -0.579047000000     2.394294000000     1.007825032230
      Gh(O)          -0.430437000000    -1.342300000000    -2.594784000000    15.994914619570
      Gh(H)          -0.028298000000    -2.177339000000    -2.869167000000     1.007825032230
      Gh(H)          -0.070011000000    -0.628832000000    -3.155245000000     1.007825032230
      Gh(O)           1.871301000000     1.921050000000    -0.065534000000    15.994914619570
      Gh(H)           2.359953000000     2.169210000000     0.749252000000     1.007825032230
      Gh(H)           2.507104000000     1.476286000000    -0.655249000000     1.007825032230

  Charge       = 1
  Multiplicity = 1
  Basis Set: AUG-CC-PVTZ
    Blend: AUG-CC-PVTZ
  Basis Set: (AUG-CC-PVTZ AUX)
    Blend: AUG-CC-PVTZ-JKFIT + DEF2-UNIVERSAL-JKFIT

    Orbital Energies [Eh]
    ---------------------

    Doubly Occupied:

       1A   -133.752809     2A    -14.708439     3A    -11.738502
       4A    -11.738501     5A    -11.738500     6A     -1.963991
       7A     -1.170687     8A     -1.170669     9A     -1.170647

  @DF-RHF Final Energy:  -599.01751474147636

   => Energetics <=

    Nuclear Repulsion Energy =              0.0000000000000000
    One-Electron Energy =                -819.7295399438525010
    Two-Electron Energy =                 220.7120252023761964
    Total Energy =                       -599.0175147414763615
 Dipole X            :          0.0002021            0.0000000            0.0002021
 Dipole Y            :         -0.0000885            0.0000000           -0.0000885
 Dipole Z            :          0.0001664            0.0000000            0.0001664
 Magnitude           :                                                    0.0002764
  Basis Set: (AUG-CC-PVTZ AUX)
    Blend: AUG-CC-PVTZ-RI + DEF2-QZVPP-RI
	 Reference Energy          =    -599.0175147414763615 [Eh]
	 Singles Energy            =      -0.0000000000000000 [Eh]
	 Same-Spin Energy          =      -0.0349921915818979 [Eh]
	 Opposite-Spin Energy      =      -0.0843914030715316 [Eh]
	 Correlation Energy        =      -0.1193835946534295 [Eh]
	 Total Energy              =    -599.1368983361297751 [Eh]

	 ================> DF-SCS-MP2 Energies <==================
	-----------------------------------------------------------
	 SCS Same-Spin Scale       =       0.3333333333333333 [-]
	 SCS Opposite-Spin Scale   =       1.2000000000000000 [-]
	 SCS Same-Spin Energy      =      -0.0116640638606326 [Eh]
	 SCS Opposite-Spin Energy  =      -0.1012696836858379 [Eh]
	 SCS Correlation Energy    =      -0.1129337475464705 [Eh]
	 SCS Total Energy          =    -599.1304484890227968 [Eh]
	-----------------------------------------------------------

*** Psi4 exiting successfully. Buy a developer a beer!
