                               Psi4 1.9 release

  ==> Input File <==

--------------------------------------------------------------------------
MEMORY 60 GB

molecule dimer {
1 1
K          0.000000     0.000000     0.000000
O         -1.761971     1.679819    -1.384796
H         -1.993530     1.859311    -2.310131
H         -1.491064     2.551322    -1.061033
O         -1.934913    -2.329125     0.427012
H         -2.429676    -2.843944    -0.200316
H         -2.478147    -1.527226     0.550138
O         -0.769395    -1.744512    -2.140743
H         -0.280499    -2.412102    -1.484121
H         -1.513491    -2.237356    -2.422087
O          0.163245     3.037506     0.036371
H          0.343344     3.833379    -0.472962
H          0.088329     3.252112     0.940310
O          2.337800     1.279403    -0.997110
H          2.614134     2.061165    -0.590317
H          1.747208     1.653313    -1.667772
O          0.977425    -0.442696     2.492052
H          1.859603    -0.903416     2.580845
H          0.477952    -0.770092     3.245807

units ang
no_reorient
no_com
symmetry c1
}

set {
basis        aug-cc-pVTZ
scf_type     df
}

energy("mp2")
--------------------------------------------------------------------------

    Molecular point group: c1

    Geometry (in Angstrom), charge = 1, multiplicity = 1:

       Center              X                  Y                   Z               Mass
    ------------   -----------------  -----------------  -----------------  -----------------
         K            0.000000000000     0.000000000000     0.000000000000    38.963706486400
         O           -1.761971000000     1.679819000000    -1.384796000000    15.994914619570
         H           -1.993530000000     1.859311000000    -2.310131000000     1.007825032230
         H           -1.491064000000     2.551322000000    -1.061033000000     1.007825032230
         O           -1.934913000000    -2.329125000000     0.427012000000    15.994914619570
         H           -2.429676000000    -2.843944000000    -0.200316000000     1.007825032230
         H           -2.478147000000    -1.527226000000     0.550138000000     1.007825032230
         O           -0.769395000000    -1.744512000000    -2.140743000000    15.994914619570
         H           -0.280499000000    -2.412102000000    -1.484121000000     1.007825032230
         H           -1.513491000000    -2.237356000000    -2.422087000000     1.007825032230
         O            0.163245000000     3.037506000000     0.036371000000    15.994914619570
         H            0.343344000000     3.833379000000    -0.472962000000     1.007825032230
         H            0.088329000000     3.252112000000     0.940310000000     1.007825032230
         O            2.337800000000     1.279403000000    -0.997110000000    15.994914619570
         H            2.614134000000     2.061165000000    -0.590317000000     1.007825032230
         H            1.747208000000     1.653313000000    -1.667772000000     1.007825032230
         O            0.977425000000    -0.442696000000     2.492052000000    15.994914619570
         H            1.859603000000    -0.903416000000     2.580845000000     1.007825032230
         H            0.477952000000    -0.770092000000     3.245807000000     1.007825032230

  Charge       = 1
  Multiplicity = 1
  Basis Set: AUG-CC-PVTZ
    Blend: AUG-CC-PVTZ
  Basis Set: (AUG-CC-PVTZ AUX)
    Blend: AUG-CC-PVTZ-JKFIT + DEF2-UNIVERSAL-JKFIT

    Orbital Energies [Eh]
    ---------------------

    Doubly Occupied:

       1A   -133.609481     2A    -20.723017     3A    -20.714589
       4A    -20.703101     5A    -20.700039     6A    -20.694395
       7A    -20.693532     8A    -14.566876     9A    -11.596875
      10A    -11.596741    11A    -11.596634    12A     -1.828354
      13A     -1.521908    14A     -1.493216    15A     -1.489947
      16A     -1.489657    17A     -1.477633    18A     -1.468457
      19A     -1.039788    20A     -1.037594    21A     -1.035759
      22A     -0.898374    23A     -0.851848    24A     -0.848577
      25A     -0.842781    26A     -0.841389    27A     -0.827345
      28A     -0.748311    29A     -0.736937    30A     -0.728852
      31A     -0.725528    32A     -0.722663    33A     -0.712218
      34A     -0.676735    35A     -0.663382    36A     -0.657266
      37A     -0.641052    38A     -0.638579    39A     -0.624523

  @DF-RHF Final Energy: -1055.44185460330073

   => Energetics <=

    Nuclear Repulsion Energy =            447.8435192027764060
    One-Electron Energy =               -2337.6428346875627540
    Two-Electron Energy =                 834.3574608814856219
    Total Energy =                      -1055.4418546033007260
 Dipole X            :         20.0070116          -20.7082028           -0.7011913
 Dipole Y            :        -29.6919071           30.9152127            1.2233056
 Dipole Z            :         29.3926831          -29.1572477            0.2354354
 Magnitude           :                                                    1.4295368
  Basis Set: (AUG-CC-PVTZ AUX)
    Blend: AUG-CC-PVTZ-RI + DEF2-QZVPP-RI
	 Reference Energy          =   -1055.4418546033007260 [Eh]
	 Singles Energy            =      -0.0000000000000000 [Eh]
	 Same-Spin Energy          =      -0.4564998027261178 [Eh]
	 Opposite-Spin Energy      =      -1.3940236610797501 [Eh]
	 Correlation Energy        =      -1.8505234638058679 [Eh]
	 Total Energy              =   -1057.2923780671064833 [Eh]

	 ================> DF-SCS-MP2 Energies <==================
	-----------------------------------------------------------
	 SCS Same-Spin Scale       =       0.3333333333333333 [-]
	 SCS Opposite-Spin Scale   =       1.2000000000000000 [-]
	 SCS Same-Spin Energy      =      -0.1521666009087059 [Eh]
	 SCS Opposite-Spin Energy  =      -1.6728283932957000 [Eh]
	 SCS Correlation Energy    =      -1.8249949942044059 [Eh]
	 SCS Total Energy          =   -1057.2668495975051428 [Eh]
	-----------------------------------------------------------

*** Psi4 exiting successfully. Buy a developer a beer!
