                               Psi4 1.9 release

  ==> Input File <==

--------------------------------------------------------------------------
MEMORY 60 GB

molecule dimer {
0 1
Gh(K)      0.000000     0.000000     0.000000
Gh(O)     -2.448527    -0.291095    -1.019181
Gh(H)     -2.813473     0.376710    -0.455549
Gh(H)     -2.996059    -1.063636    -0.906107
Gh(O)     -0.359694    -2.647424     0.173385
Gh(H)     -0.129317    -3.280336    -0.543745
Gh(H)     -0.768006    -3.148797     0.926610
O          2.782323     0.361715    -0.387797
H          3.104084     1.127188     0.048438
H          3.129044    -0.410494     0.120079
Gh(O)      1.143816     0.172493     2.326214
Gh(H)      2.118111     0.190490     2.431222
Gh(H)      0.790123    -0.238853     3.124352
Gh(O)     -0.785943     2.820602    -0.803775
Gh(H)     -1.653070     3.218136    -0.938106
Gh(H)     -0.338429     3.318736    -0.088312

units ang
no_reorient
no_com
symmetry c1
}

set {
basis        aug-cc-pVTZ
scf_type     df
}

energy("mp2")
--------------------------------------------------------------------------

    Molecular point group: c1

    Geometry (in Angstrom), charge = 0, multiplicity = 1:

       Center              X                  Y                   Z               Mass
    ------------   -----------------  -----------------  -----------------  -----------------
      Gh(K)           0.000000000000     0.000000000000     0.000000000000    38.963706486400
      Gh(O)          -2.448527000000    -0.291095000000    -1.019181000000    15.994914619570
      Gh(H)          -2.813473000000     0.376710000000    -0.455549000000     1.007825032230
      Gh(H)          -2.996059000000    -1.063636000000    -0.906107000000     1.007825032230
      Gh(O)          -0.359694000000    -2.647424000000     0.173385000000    15.994914619570
      Gh(H)          -0.129317000000    -3.280336000000    -0.543745000000     1.007825032230
      Gh(H)          -0.768006000000    -3.148797000000     0.926610000000     1.007825032230
         O            2.782323000000     0.361715000000    -0.387797000000    15.994914619570
         H            3.104084000000     1.127188000000     0.048438000000     1.007825032230
         H            3.129044000000    -0.410494000000     0.120079000000     1.007825032230
      Gh(O)           1.143816000000     0.172493000000     2.326214000000    15.994914619570
      Gh(H)           2.118111000000     0.190490000000     2.431222000000     1.007825032230
      Gh(H)           0.790123000000    -0.238853000000     3.124352000000     1.007825032230
      Gh(O)          -0.785943000000     2.820602000000    -0.803775000000    15.994914619570
      Gh(H)          -1.653070000000     3.218136000000    -0.938106000000     1.007825032230
      Gh(H)          -0.338429000000     3.318736000000    -0.088312000000     1.007825032230

  Charge       = 0
  Multiplicity = 1
  Basis Set: AUG-CC-PVTZ
    Blend: AUG-CC-PVTZ
  Basis Set: (AUG-CC-PVTZ AUX)
    Blend: AUG-CC-PVTZ-JKFIT + DEF2-UNIVERSAL-JKFIT

    Orbital Energies [Eh]
    ---------------------

    Doubly Occupied:

       1A    -20.567138     2A     -1.350195     3A     -0.718217
       4A     -0.580411     5A     -0.509456

  @DF-RHF Final Energy:   -76.05911973745003

   => Energetics <=

    Nuclear Repulsion Energy =              9.1456600492914983
    One-Electron Energy =                -122.9587236370766590
    Two-Electron Energy =                  37.7539438503351192
    Total Energy =                        -76.0591197374500467
 Dipole X            :        -53.3959381           53.8415325            0.4455944
 Dipole Y            :         -6.8190865            6.8226937            0.0036072
 Dipole Z            :          6.1730348           -5.5441900            0.6288448
 Magnitude           :                                                    0.7707225
  Basis Set: (AUG-CC-PVTZ AUX)
    Blend: AUG-CC-PVTZ-RI + DEF2-QZVPP-RI
	 Reference Energy          =     -76.0591197374500325 [Eh]
	 Singles Energy            =      -0.0000000000000000 [Eh]
	 Same-Spin Energy          =      -0.0684380038635265 [Eh]
	 Opposite-Spin Energy      =      -0.2157906236095519 [Eh]
	 Correlation Energy        =      -0.2842286274730784 [Eh]
	 Total Energy              =     -76.3433483649231164 [Eh]

	 ================> DF-SCS-MP2 Energies <==================
	-----------------------------------------------------------
	 SCS Same-Spin Scale       =       0.3333333333333333 [-]
	 SCS Opposite-Spin Scale   =       1.2000000000000000 [-]
	 SCS Same-Spin Energy      =      -0.0228126679545088 [Eh]
	 SCS Opposite-Spin Energy  =      -0.2589487483314623 [Eh]
	 SCS Correlation Energy    =      -0.2817614162859711 [Eh]
	 SCS Total Energy          =     -76.3408811537360066 [Eh]
	-----------------------------------------------------------

*** Psi4 exiting successfully. Buy a developer a beer!
