                               Psi4 1.9 release

  ==> Input File <==

--------------------------------------------------------------------------
MEMORY 60 GB

molecule dimer {
0 1
Gh(K)      0.000000     0.000000     0.000000
O          1.478006     0.717897    -1.948128
H          1.494997     0.601610    -2.908738
H          2.334047     1.201082    -1.842671
Gh(O)     -2.661762     0.783294    -0.605565
Gh(H)     -3.465178     1.092006    -0.190818
Gh(H)     -2.885772     0.543165    -1.519228
Gh(O)     -0.002906     2.840525    -0.171305
Gh(H)     -0.856087     3.028844    -0.630236
Gh(H)      0.477889     3.665808    -0.151625

units ang
no_reorient
no_com
symmetry c1
}

set {
basis        aug-cc-pVTZ
scf_type     df
}

energy("mp2")
--------------------------------------------------------------------------

    Molecular point group: c1

    Geometry (in Angstrom), charge = 0, multiplicity = 1:

       Center              X                  Y                   Z               Mass
    ------------   -----------------  -----------------  -----------------  -----------------
      Gh(K)           0.000000000000     0.000000000000     0.000000000000    38.963706486400
         O            1.478006000000     0.717897000000    -1.948128000000    15.994914619570
         H            1.494997000000     0.601610000000    -2.908738000000     1.007825032230
         H            2.334047000000     1.201082000000    -1.842671000000     1.007825032230
      Gh(O)          -2.661762000000     0.783294000000    -0.605565000000    15.994914619570
      Gh(H)          -3.465178000000     1.092006000000    -0.190818000000     1.007825032230
      Gh(H)          -2.885772000000     0.543165000000    -1.519228000000     1.007825032230
      Gh(O)          -0.002906000000     2.840525000000    -0.171305000000    15.994914619570
      Gh(H)          -0.856087000000     3.028844000000    -0.630236000000     1.007825032230
      Gh(H)           0.477889000000     3.665808000000    -0.151625000000     1.007825032230

  Charge       = 0
  Multiplicity = 1
  Basis Set: AUG-CC-PVTZ
    Blend: AUG-CC-PVTZ
  Basis Set: (AUG-CC-PVTZ AUX)
    Blend: AUG-CC-PVTZ-JKFIT + DEF2-UNIVERSAL-JKFIT

    Orbital Energies [Eh]
    ---------------------

    Doubly Occupied:

       1A    -20.573322     2A     -1.347284     3A     -0.695025
       4A     -0.592396     5A     -0.510414

  @DF-RHF Final Energy:   -76.05717777740612

   => Energetics <=

    Nuclear Repulsion Energy =              9.0132691747606586
    One-Electron Energy =                -122.7040078874209854
    Two-Electron Energy =                  37.6335609352542164
    Total Energy =                        -76.0571777774061104
 Dipole X            :        -29.0183655           29.5800569            0.5616914
 Dipole Y            :        -14.0245427           14.2596239            0.2350812
 Dipole Z            :         37.8747847          -38.4302887           -0.5555040
 Magnitude           :                                                    0.8242239
  Basis Set: (AUG-CC-PVTZ AUX)
    Blend: AUG-CC-PVTZ-RI + DEF2-QZVPP-RI
	 Reference Energy          =     -76.0571777774061246 [Eh]
	 Singles Energy            =      -0.0000000000000000 [Eh]
	 Same-Spin Energy          =      -0.0688975210827897 [Eh]
	 Opposite-Spin Energy      =      -0.2169581331405399 [Eh]
	 Correlation Energy        =      -0.2858556542233296 [Eh]
	 Total Energy              =     -76.3430334316294505 [Eh]

	 ================> DF-SCS-MP2 Energies <==================
	-----------------------------------------------------------
	 SCS Same-Spin Scale       =       0.3333333333333333 [-]
	 SCS Opposite-Spin Scale   =       1.2000000000000000 [-]
	 SCS Same-Spin Energy      =      -0.0229658403609299 [Eh]
	 SCS Opposite-Spin Energy  =      -0.2603497597686479 [Eh]
	 SCS Correlation Energy    =      -0.2833156001295778 [Eh]
	 SCS Total Energy          =     -76.3404933775357080 [Eh]
	-----------------------------------------------------------

*** Psi4 exiting successfully. Buy a developer a beer!
