                               Psi4 1.9 release

  ==> Input File <==

--------------------------------------------------------------------------
MEMORY 60 GB

molecule dimer {
0 1
Gh(K)      0.000000     0.000000     0.000000
Gh(O)     -2.443974    -0.924940    -0.753874
Gh(H)     -2.879080    -0.982845    -1.566392
Gh(H)     -3.075308    -0.759627    -0.078308
Gh(O)      2.258221     2.031931    -0.252422
Gh(H)      3.160911     2.340982    -0.304247
Gh(H)      1.773997     2.842941    -0.220350
Gh(O)      0.816379    -1.772428    -1.854739
Gh(H)      0.355731    -1.803103    -2.682501
Gh(H)      1.790593    -1.660283    -2.009260
Gh(O)      0.385784    -2.386352     1.285565
Gh(H)     -0.034250    -3.134856     0.744614
Gh(H)     -0.166993    -2.412580     2.018828
O          0.888475     0.436632     2.558956
H          0.580862     0.364340     3.467400
H          1.708919     0.935211     2.674296

units ang
no_reorient
no_com
symmetry c1
}

set {
basis        aug-cc-pVTZ
scf_type     df
}

energy("mp2")
--------------------------------------------------------------------------

    Molecular point group: c1

    Geometry (in Angstrom), charge = 0, multiplicity = 1:

       Center              X                  Y                   Z               Mass
    ------------   -----------------  -----------------  -----------------  -----------------
      Gh(K)           0.000000000000     0.000000000000     0.000000000000    38.963706486400
      Gh(O)          -2.443974000000    -0.924940000000    -0.753874000000    15.994914619570
      Gh(H)          -2.879080000000    -0.982845000000    -1.566392000000     1.007825032230
      Gh(H)          -3.075308000000    -0.759627000000    -0.078308000000     1.007825032230
      Gh(O)           2.258221000000     2.031931000000    -0.252422000000    15.994914619570
      Gh(H)           3.160911000000     2.340982000000    -0.304247000000     1.007825032230
      Gh(H)           1.773997000000     2.842941000000    -0.220350000000     1.007825032230
      Gh(O)           0.816379000000    -1.772428000000    -1.854739000000    15.994914619570
      Gh(H)           0.355731000000    -1.803103000000    -2.682501000000     1.007825032230
      Gh(H)           1.790593000000    -1.660283000000    -2.009260000000     1.007825032230
      Gh(O)           0.385784000000    -2.386352000000     1.285565000000    15.994914619570
      Gh(H)          -0.034250000000    -3.134856000000     0.744614000000     1.007825032230
      Gh(H)          -0.166993000000    -2.412580000000     2.018828000000     1.007825032230
         O            0.888475000000     0.436632000000     2.558956000000    15.994914619570
         H            0.580862000000     0.364340000000     3.467400000000     1.007825032230
         H            1.708919000000     0.935211000000     2.674296000000     1.007825032230

  Charge       = 0
  Multiplicity = 1
  Basis Set: AUG-CC-PVTZ
    Blend: AUG-CC-PVTZ
  Basis Set: (AUG-CC-PVTZ AUX)
    Blend: AUG-CC-PVTZ-JKFIT + DEF2-UNIVERSAL-JKFIT

    Orbital Energies [Eh]
    ---------------------

    Doubly Occupied:

       1A    -20.569723     2A     -1.352138     3A     -0.707762
       4A     -0.589662     5A     -0.510660

  @DF-RHF Final Energy:   -76.05966310815207

   => Energetics <=

    Nuclear Repulsion Energy =              9.1340419817038274
    One-Electron Energy =                -122.9275171193318954
    Two-Electron Energy =                  37.7338120294759989
    Total Energy =                        -76.0596631081520655
 Dipole X            :        -17.4230239           17.7588543            0.3358305
 Dipole Y            :         -8.7770179            9.0567147            0.2796968
 Dipole Z            :        -49.6193551           50.2919314            0.6725764
 Magnitude           :                                                    0.8021044
  Basis Set: (AUG-CC-PVTZ AUX)
    Blend: AUG-CC-PVTZ-RI + DEF2-QZVPP-RI
	 Reference Energy          =     -76.0596631081520655 [Eh]
	 Singles Energy            =      -0.0000000000000000 [Eh]
	 Same-Spin Energy          =      -0.0685769820609913 [Eh]
	 Opposite-Spin Energy      =      -0.2160762197080880 [Eh]
	 Correlation Energy        =      -0.2846532017690793 [Eh]
	 Total Energy              =     -76.3443163099211404 [Eh]

	 ================> DF-SCS-MP2 Energies <==================
	-----------------------------------------------------------
	 SCS Same-Spin Scale       =       0.3333333333333333 [-]
	 SCS Opposite-Spin Scale   =       1.2000000000000000 [-]
	 SCS Same-Spin Energy      =      -0.0228589940203304 [Eh]
	 SCS Opposite-Spin Energy  =      -0.2592914636497056 [Eh]
	 SCS Correlation Energy    =      -0.2821504576700360 [Eh]
	 SCS Total Energy          =     -76.3418135658221075 [Eh]
	-----------------------------------------------------------

*** Psi4 exiting successfully. Buy a developer a beer!
