                               Psi4 1.9 release

  ==> Input File <==

--------------------------------------------------------------------------
MEMORY 60 GB

molecule dimer {
0 1
Gh(K)      0.000000     0.000000     0.000000
Gh(O)     -2.854442     0.584840    -0.122179
Gh(H)     -3.265333    -0.153361     0.306368
Gh(H)     -3.159443     1.375887     0.435029
Gh(O)      1.793507     2.390251     0.448386
Gh(H)      1.484797     2.937877    -0.247414
Gh(H)      2.760113     2.530882     0.485450
Gh(O)     -0.012318     1.515708    -2.116487
Gh(H)     -0.444712     1.661309    -2.931489
Gh(H)      0.234305     2.352957    -1.751290
Gh(O)     -0.359420    -0.604796     2.633990
Gh(H)      0.279877    -0.081645     3.137778
Gh(H)     -0.226378    -1.549243     2.698047
O          2.595565    -1.054409     0.246960
H          2.113393    -1.851888    -0.056301
H          3.361367    -1.381693     0.744870
Gh(O)      0.402821    -2.381732    -1.341749
Gh(H)     -0.585953    -2.453448    -1.264600
Gh(H)      0.751084    -2.951825    -2.024247

units ang
no_reorient
no_com
symmetry c1
}

set {
basis        aug-cc-pVTZ
scf_type     df
}

energy("mp2")
--------------------------------------------------------------------------

    Molecular point group: c1

    Geometry (in Angstrom), charge = 0, multiplicity = 1:

       Center              X                  Y                   Z               Mass
    ------------   -----------------  -----------------  -----------------  -----------------
      Gh(K)           0.000000000000     0.000000000000     0.000000000000    38.963706486400
      Gh(O)          -2.854442000000     0.584840000000    -0.122179000000    15.994914619570
      Gh(H)          -3.265333000000    -0.153361000000     0.306368000000     1.007825032230
      Gh(H)          -3.159443000000     1.375887000000     0.435029000000     1.007825032230
      Gh(O)           1.793507000000     2.390251000000     0.448386000000    15.994914619570
      Gh(H)           1.484797000000     2.937877000000    -0.247414000000     1.007825032230
      Gh(H)           2.760113000000     2.530882000000     0.485450000000     1.007825032230
      Gh(O)          -0.012318000000     1.515708000000    -2.116487000000    15.994914619570
      Gh(H)          -0.444712000000     1.661309000000    -2.931489000000     1.007825032230
      Gh(H)           0.234305000000     2.352957000000    -1.751290000000     1.007825032230
      Gh(O)          -0.359420000000    -0.604796000000     2.633990000000    15.994914619570
      Gh(H)           0.279877000000    -0.081645000000     3.137778000000     1.007825032230
      Gh(H)          -0.226378000000    -1.549243000000     2.698047000000     1.007825032230
         O            2.595565000000    -1.054409000000     0.246960000000    15.994914619570
         H            2.113393000000    -1.851888000000    -0.056301000000     1.007825032230
         H            3.361367000000    -1.381693000000     0.744870000000     1.007825032230
      Gh(O)           0.402821000000    -2.381732000000    -1.341749000000    15.994914619570
      Gh(H)          -0.585953000000    -2.453448000000    -1.264600000000     1.007825032230
      Gh(H)           0.751084000000    -2.951825000000    -2.024247000000     1.007825032230

  Charge       = 0
  Multiplicity = 1
  Basis Set: AUG-CC-PVTZ
    Blend: AUG-CC-PVTZ
  Basis Set: (AUG-CC-PVTZ AUX)
    Blend: AUG-CC-PVTZ-JKFIT + DEF2-UNIVERSAL-JKFIT

    Orbital Energies [Eh]
    ---------------------

    Doubly Occupied:

       1A    -20.569611     2A     -1.343565     3A     -0.710482
       4A     -0.578900     5A     -0.508477

  @DF-RHF Final Energy:   -76.05887143978785

   => Energetics <=

    Nuclear Repulsion Energy =              9.0228861690897091
    One-Electron Energy =                -122.7414422673408154
    Two-Electron Energy =                  37.6596846584632559
    Total Energy =                        -76.0588714397878505
 Dipole X            :        -49.3963817           49.5850529            0.1886712
 Dipole Y            :         21.3086815          -22.0509364           -0.7422549
 Dipole Z            :         -4.9054622            5.0347009            0.1292387
 Magnitude           :                                                    0.7766864
  Basis Set: (AUG-CC-PVTZ AUX)
    Blend: AUG-CC-PVTZ-RI + DEF2-QZVPP-RI
	 Reference Energy          =     -76.0588714397878505 [Eh]
	 Singles Energy            =      -0.0000000000000000 [Eh]
	 Same-Spin Energy          =      -0.0686880671963928 [Eh]
	 Opposite-Spin Energy      =      -0.2166382911406429 [Eh]
	 Correlation Energy        =      -0.2853263583370357 [Eh]
	 Total Energy              =     -76.3441977981248812 [Eh]

	 ================> DF-SCS-MP2 Energies <==================
	-----------------------------------------------------------
	 SCS Same-Spin Scale       =       0.3333333333333333 [-]
	 SCS Opposite-Spin Scale   =       1.2000000000000000 [-]
	 SCS Same-Spin Energy      =      -0.0228960223987976 [Eh]
	 SCS Opposite-Spin Energy  =      -0.2599659493687714 [Eh]
	 SCS Correlation Energy    =      -0.2828619717675690 [Eh]
	 SCS Total Energy          =     -76.3417334115554240 [Eh]
	-----------------------------------------------------------

*** Psi4 exiting successfully. Buy a developer a beer!
