                               Psi4 1.9 release

  ==> Input File <==

--------------------------------------------------------------------------
MEMORY 60 GB

molecule dimer {
1 1
K          0.000000     0.000000     0.000000
O          1.049228    -1.669034    -1.809341
H          0.923341    -2.503424    -2.246637
H          1.822074    -1.314072    -2.217799
O          0.777158     2.541027     1.485150
H         -0.123721     2.501866     1.834386
H          1.422271     2.295998     2.224463
O         -1.106748    -2.271704     0.894727
H         -1.448829    -2.837095     0.154476
H         -1.856099    -1.950414     1.369169
O         -2.252317     0.862623    -0.772996
H         -2.036068     1.820633    -0.928033
H         -2.394966     0.348962    -1.611608
O          0.750638     2.227854    -1.391270
H          0.979748     2.389688    -2.328740
H          1.502881     2.481555    -0.734025
O         -0.867467    -0.146222     2.839508
H         -1.441843    -0.931366     3.114854
H         -0.010479    -0.244914     3.268704

units ang
no_reorient
no_com
symmetry c1
}

set {
basis        aug-cc-pVTZ
scf_type     df
}

energy("mp2")
--------------------------------------------------------------------------

    Molecular point group: c1

    Geometry (in Angstrom), charge = 1, multiplicity = 1:

       Center              X                  Y                   Z               Mass
    ------------   -----------------  -----------------  -----------------  -----------------
         K            0.000000000000     0.000000000000     0.000000000000    38.963706486400
         O            1.049228000000    -1.669034000000    -1.809341000000    15.994914619570
         H            0.923341000000    -2.503424000000    -2.246637000000     1.007825032230
         H            1.822074000000    -1.314072000000    -2.217799000000     1.007825032230
         O            0.777158000000     2.541027000000     1.485150000000    15.994914619570
         H           -0.123721000000     2.501866000000     1.834386000000     1.007825032230
         H            1.422271000000     2.295998000000     2.224463000000     1.007825032230
         O           -1.106748000000    -2.271704000000     0.894727000000    15.994914619570
         H           -1.448829000000    -2.837095000000     0.154476000000     1.007825032230
         H           -1.856099000000    -1.950414000000     1.369169000000     1.007825032230
         O           -2.252317000000     0.862623000000    -0.772996000000    15.994914619570
         H           -2.036068000000     1.820633000000    -0.928033000000     1.007825032230
         H           -2.394966000000     0.348962000000    -1.611608000000     1.007825032230
         O            0.750638000000     2.227854000000    -1.391270000000    15.994914619570
         H            0.979748000000     2.389688000000    -2.328740000000     1.007825032230
         H            1.502881000000     2.481555000000    -0.734025000000     1.007825032230
         O           -0.867467000000    -0.146222000000     2.839508000000    15.994914619570
         H           -1.441843000000    -0.931366000000     3.114854000000     1.007825032230
         H           -0.010479000000    -0.244914000000     3.268704000000     1.007825032230

  Charge       = 1
  Multiplicity = 1
  Basis Set: AUG-CC-PVTZ
    Blend: AUG-CC-PVTZ
  Basis Set: (AUG-CC-PVTZ AUX)
    Blend: AUG-CC-PVTZ-JKFIT + DEF2-UNIVERSAL-JKFIT

    Orbital Energies [Eh]
    ---------------------

    Doubly Occupied:

       1A   -133.582843     2A    -20.712619     3A    -20.709693
       4A    -20.707947     5A    -20.706780     6A    -20.705628
       7A    -20.701421     8A    -14.541413     9A    -11.571252
      10A    -11.571135    11A    -11.571063    12A     -1.806991
      13A     -1.509844    14A     -1.493111    15A     -1.478724
      16A     -1.475058    17A     -1.473954    18A     -1.460451
      19A     -1.019381    20A     -1.017983    21A     -1.016441
      22A     -0.872286    23A     -0.868315    24A     -0.854619
      25A     -0.846120    26A     -0.843607    27A     -0.842877
      28A     -0.746209    29A     -0.725620    30A     -0.720455
      31A     -0.709832    32A     -0.708239    33A     -0.698420
      34A     -0.663000    35A     -0.656084    36A     -0.649129
      37A     -0.648597    38A     -0.647264    39A     -0.639910

  @DF-RHF Final Energy: -1055.43745678430196

   => Energetics <=

    Nuclear Repulsion Energy =            460.5527376312275578
    One-Electron Energy =               -2363.6317475324167390
    Two-Electron Energy =                 847.6415531168871667
    Total Energy =                      -1055.4374567843019577
 Dipole X            :         30.2724783          -29.9668120            0.3056663
 Dipole Y            :        -27.8264598           27.2380758           -0.5883840
 Dipole Z            :        -22.7988872           22.4224206           -0.3764666
 Magnitude           :                                                    0.7624662
  Basis Set: (AUG-CC-PVTZ AUX)
    Blend: AUG-CC-PVTZ-RI + DEF2-QZVPP-RI
	 Reference Energy          =   -1055.4374567843019577 [Eh]
	 Singles Energy            =      -0.0000000000000000 [Eh]
	 Same-Spin Energy          =      -0.4595766105715163 [Eh]
	 Opposite-Spin Energy      =      -1.4006964044592631 [Eh]
	 Correlation Energy        =      -1.8602730150307794 [Eh]
	 Total Energy              =   -1057.2977297993327284 [Eh]

	 ================> DF-SCS-MP2 Energies <==================
	-----------------------------------------------------------
	 SCS Same-Spin Scale       =       0.3333333333333333 [-]
	 SCS Opposite-Spin Scale   =       1.2000000000000000 [-]
	 SCS Same-Spin Energy      =      -0.1531922035238387 [Eh]
	 SCS Opposite-Spin Energy  =      -1.6808356853511157 [Eh]
	 SCS Correlation Energy    =      -1.8340278888749544 [Eh]
	 SCS Total Energy          =   -1057.2714846731769285 [Eh]
	-----------------------------------------------------------

*** Psi4 exiting successfully. Buy a developer a beer!
