                               Psi4 1.9 release

  ==> Input File <==

--------------------------------------------------------------------------
MEMORY 60 GB

molecule dimer {
1 1
K          0.000000     0.000000     0.000000
O          2.647151     0.635208    -0.063948
H          3.176416     0.412019    -0.876904
H          2.688399     1.610574    -0.061644
O         -0.552549     2.635117    -0.327416
H         -1.025355     2.455382    -1.183466
H          0.041728     3.368381    -0.523783
O          0.103987    -2.445141    -1.042328
H          0.471228    -3.061895    -1.668102
H         -0.831370    -2.576863    -0.923120
O         -0.166398    -1.185570     2.324774
H          0.376489    -1.802467     2.829484
H         -0.728296    -0.765177     2.958806
O          0.808663     0.043536    -2.584883
H          0.577317    -0.776855    -3.083703
H          1.748074     0.235442    -2.782063

units ang
no_reorient
no_com
symmetry c1
}

set {
basis        aug-cc-pVTZ
scf_type     df
}

energy("mp2")
--------------------------------------------------------------------------

    Molecular point group: c1

    Geometry (in Angstrom), charge = 1, multiplicity = 1:

       Center              X                  Y                   Z               Mass
    ------------   -----------------  -----------------  -----------------  -----------------
         K            0.000000000000     0.000000000000     0.000000000000    38.963706486400
         O            2.647151000000     0.635208000000    -0.063948000000    15.994914619570
         H            3.176416000000     0.412019000000    -0.876904000000     1.007825032230
         H            2.688399000000     1.610574000000    -0.061644000000     1.007825032230
         O           -0.552549000000     2.635117000000    -0.327416000000    15.994914619570
         H           -1.025355000000     2.455382000000    -1.183466000000     1.007825032230
         H            0.041728000000     3.368381000000    -0.523783000000     1.007825032230
         O            0.103987000000    -2.445141000000    -1.042328000000    15.994914619570
         H            0.471228000000    -3.061895000000    -1.668102000000     1.007825032230
         H           -0.831370000000    -2.576863000000    -0.923120000000     1.007825032230
         O           -0.166398000000    -1.185570000000     2.324774000000    15.994914619570
         H            0.376489000000    -1.802467000000     2.829484000000     1.007825032230
         H           -0.728296000000    -0.765177000000     2.958806000000     1.007825032230
         O            0.808663000000     0.043536000000    -2.584883000000    15.994914619570
         H            0.577317000000    -0.776855000000    -3.083703000000     1.007825032230
         H            1.748074000000     0.235442000000    -2.782063000000     1.007825032230

  Charge       = 1
  Multiplicity = 1
  Basis Set: AUG-CC-PVTZ
    Blend: AUG-CC-PVTZ
  Basis Set: (AUG-CC-PVTZ AUX)
    Blend: AUG-CC-PVTZ-JKFIT + DEF2-UNIVERSAL-JKFIT

    Orbital Energies [Eh]
    ---------------------

    Doubly Occupied:

       1A   -133.591317     2A    -20.715618     3A    -20.714884
       4A    -20.713792     5A    -20.711337     6A    -20.706212
       7A    -14.549683     8A    -11.579565     9A    -11.579417
      10A    -11.579373    11A     -1.814500    12A     -1.504473
      13A     -1.498124    14A     -1.489839    15A     -1.489148
      16A     -1.486036    17A     -1.026679    18A     -1.025359
      19A     -1.024641    20A     -0.886015    21A     -0.863392
      22A     -0.857513    23A     -0.852507    24A     -0.840844
      25A     -0.738187    26A     -0.733624    27A     -0.732592
      28A     -0.728523    29A     -0.726654    30A     -0.671782
      31A     -0.659154    32A     -0.656353    33A     -0.654778
      34A     -0.645955

  @DF-RHF Final Energy:  -979.38828155017836

   => Energetics <=

    Nuclear Repulsion Energy =            357.3735952385818564
    One-Electron Energy =               -2053.4280102128313956
    Two-Electron Energy =                 716.6661334240711767
    Total Energy =                       -979.3882815501783625
 Dipole X            :        -54.4507227           55.2205602            0.7698375
 Dipole Y            :          6.1896721           -6.4935884           -0.3039163
 Dipole Z            :         34.3523634          -35.6495001           -1.2971366
 Magnitude           :                                                    1.5386937
  Basis Set: (AUG-CC-PVTZ AUX)
    Blend: AUG-CC-PVTZ-RI + DEF2-QZVPP-RI
	 Reference Energy          =    -979.3882815501783625 [Eh]
	 Singles Energy            =      -0.0000000000000000 [Eh]
	 Same-Spin Energy          =      -0.3867326025282235 [Eh]
	 Opposite-Spin Energy      =      -1.1761113508600880 [Eh]
	 Correlation Energy        =      -1.5628439533883114 [Eh]
	 Total Energy              =    -980.9511255035666863 [Eh]

	 ================> DF-SCS-MP2 Energies <==================
	-----------------------------------------------------------
	 SCS Same-Spin Scale       =       0.3333333333333333 [-]
	 SCS Opposite-Spin Scale   =       1.2000000000000000 [-]
	 SCS Same-Spin Energy      =      -0.1289108675094078 [Eh]
	 SCS Opposite-Spin Energy  =      -1.4113336210321055 [Eh]
	 SCS Correlation Energy    =      -1.5402444885415134 [Eh]
	 SCS Total Energy          =    -980.9285260387198377 [Eh]
	-----------------------------------------------------------

*** Psi4 exiting successfully. Buy a developer a beer!
