                               Psi4 1.9 release

  ==> Input File <==

--------------------------------------------------------------------------
MEMORY 60 GB

molecule dimer {
0 1
Gh(K)      0.000000     0.000000     0.000000
Gh(O)      0.075155    -1.723621    -2.222691
Gh(H)      0.160553    -2.664415    -2.167190
Gh(H)      0.364851    -1.484375    -3.131935
Gh(O)      1.231668    -2.456321     1.234605
Gh(H)      1.127068    -3.384287     0.950491
Gh(H)      0.887056    -2.271199     2.158531
Gh(O)     -2.591511    -1.086420     0.720781
Gh(H)     -3.095590    -1.651979     1.265500
Gh(H)     -3.189225    -0.757403     0.067002
Gh(O)      0.999639     2.617895     0.271985
Gh(H)      0.388983     3.122801     0.770979
Gh(H)      1.638461     2.439843     1.007245
O          1.255850     0.564449     2.393699
H          1.293308     0.072444     3.193687
H          1.888924     1.216741     2.629633

units ang
no_reorient
no_com
symmetry c1
}

set {
basis        aug-cc-pVTZ
scf_type     df
}

energy("mp2")
--------------------------------------------------------------------------

    Molecular point group: c1

    Geometry (in Angstrom), charge = 0, multiplicity = 1:

       Center              X                  Y                   Z               Mass
    ------------   -----------------  -----------------  -----------------  -----------------
      Gh(K)           0.000000000000     0.000000000000     0.000000000000    38.963706486400
      Gh(O)           0.075155000000    -1.723621000000    -2.222691000000    15.994914619570
      Gh(H)           0.160553000000    -2.664415000000    -2.167190000000     1.007825032230
      Gh(H)           0.364851000000    -1.484375000000    -3.131935000000     1.007825032230
      Gh(O)           1.231668000000    -2.456321000000     1.234605000000    15.994914619570
      Gh(H)           1.127068000000    -3.384287000000     0.950491000000     1.007825032230
      Gh(H)           0.887056000000    -2.271199000000     2.158531000000     1.007825032230
      Gh(O)          -2.591511000000    -1.086420000000     0.720781000000    15.994914619570
      Gh(H)          -3.095590000000    -1.651979000000     1.265500000000     1.007825032230
      Gh(H)          -3.189225000000    -0.757403000000     0.067002000000     1.007825032230
      Gh(O)           0.999639000000     2.617895000000     0.271985000000    15.994914619570
      Gh(H)           0.388983000000     3.122801000000     0.770979000000     1.007825032230
      Gh(H)           1.638461000000     2.439843000000     1.007245000000     1.007825032230
         O            1.255850000000     0.564449000000     2.393699000000    15.994914619570
         H            1.293308000000     0.072444000000     3.193687000000     1.007825032230
         H            1.888924000000     1.216741000000     2.629633000000     1.007825032230

  Charge       = 0
  Multiplicity = 1
  Basis Set: AUG-CC-PVTZ
    Blend: AUG-CC-PVTZ
  Basis Set: (AUG-CC-PVTZ AUX)
    Blend: AUG-CC-PVTZ-JKFIT + DEF2-UNIVERSAL-JKFIT

    Orbital Energies [Eh]
    ---------------------

    Doubly Occupied:

       1A    -20.566895     2A     -1.368815     3A     -0.711862
       4A     -0.603222     5A     -0.513883

  @DF-RHF Final Energy:   -76.05886824993019

   => Energetics <=

    Nuclear Repulsion Energy =              9.3877513406214401
    One-Electron Energy =                -123.3638802971847923
    Two-Electron Energy =                  37.9172607066331722
    Total Energy =                        -76.0588682499301854
 Dipole X            :        -24.5574164           24.9992474            0.4418310
 Dipole Y            :        -10.8635578           10.9694387            0.1058809
 Dipole Z            :        -46.5094140           47.1919642            0.6825502
 Magnitude           :                                                    0.8199392
  Basis Set: (AUG-CC-PVTZ AUX)
    Blend: AUG-CC-PVTZ-RI + DEF2-QZVPP-RI
	 Reference Energy          =     -76.0588682499301854 [Eh]
	 Singles Energy            =      -0.0000000000000000 [Eh]
	 Same-Spin Energy          =      -0.0682843311390491 [Eh]
	 Opposite-Spin Energy      =      -0.2151902533184344 [Eh]
	 Correlation Energy        =      -0.2834745844574835 [Eh]
	 Total Energy              =     -76.3423428343876651 [Eh]

	 ================> DF-SCS-MP2 Energies <==================
	-----------------------------------------------------------
	 SCS Same-Spin Scale       =       0.3333333333333333 [-]
	 SCS Opposite-Spin Scale   =       1.2000000000000000 [-]
	 SCS Same-Spin Energy      =      -0.0227614437130164 [Eh]
	 SCS Opposite-Spin Energy  =      -0.2582283039821213 [Eh]
	 SCS Correlation Energy    =      -0.2809897476951377 [Eh]
	 SCS Total Energy          =     -76.3398579976253160 [Eh]
	-----------------------------------------------------------

*** Psi4 exiting successfully. Buy a developer a beer!
