                               Psi4 1.9 release

  ==> Input File <==

--------------------------------------------------------------------------
MEMORY 60 GB

molecule dimer {
0 1
Gh(K)      0.000000     0.000000     0.000000
O          1.994248    -0.017398     1.891531
H          1.707381    -0.444684     2.688689
H          2.464755     0.808222     2.122342
Gh(O)     -0.735496     2.189679     1.691371
Gh(H)     -0.954476     2.443049     2.639599
Gh(H)     -0.466618     3.047346     1.358724
Gh(O)      1.549750     2.058046    -0.852344
Gh(H)      1.913323     2.259444    -1.747396
Gh(H)      2.335189     2.116884    -0.306564
Gh(O)     -1.132510     0.224565    -2.466410
Gh(H)     -0.537321     0.540552    -3.138504
Gh(H)     -1.916525     0.761111    -2.341546
Gh(O)      1.250518    -2.229136    -0.395405
Gh(H)      1.391367    -3.033811    -0.861489
Gh(H)      1.939666    -2.169610     0.267770

units ang
no_reorient
no_com
symmetry c1
}

set {
basis        aug-cc-pVTZ
scf_type     df
}

energy("mp2")
--------------------------------------------------------------------------

    Molecular point group: c1

    Geometry (in Angstrom), charge = 0, multiplicity = 1:

       Center              X                  Y                   Z               Mass
    ------------   -----------------  -----------------  -----------------  -----------------
      Gh(K)           0.000000000000     0.000000000000     0.000000000000    38.963706486400
         O            1.994248000000    -0.017398000000     1.891531000000    15.994914619570
         H            1.707381000000    -0.444684000000     2.688689000000     1.007825032230
         H            2.464755000000     0.808222000000     2.122342000000     1.007825032230
      Gh(O)          -0.735496000000     2.189679000000     1.691371000000    15.994914619570
      Gh(H)          -0.954476000000     2.443049000000     2.639599000000     1.007825032230
      Gh(H)          -0.466618000000     3.047346000000     1.358724000000     1.007825032230
      Gh(O)           1.549750000000     2.058046000000    -0.852344000000    15.994914619570
      Gh(H)           1.913323000000     2.259444000000    -1.747396000000     1.007825032230
      Gh(H)           2.335189000000     2.116884000000    -0.306564000000     1.007825032230
      Gh(O)          -1.132510000000     0.224565000000    -2.466410000000    15.994914619570
      Gh(H)          -0.537321000000     0.540552000000    -3.138504000000     1.007825032230
      Gh(H)          -1.916525000000     0.761111000000    -2.341546000000     1.007825032230
      Gh(O)           1.250518000000    -2.229136000000    -0.395405000000    15.994914619570
      Gh(H)           1.391367000000    -3.033811000000    -0.861489000000     1.007825032230
      Gh(H)           1.939666000000    -2.169610000000     0.267770000000     1.007825032230

  Charge       = 0
  Multiplicity = 1
  Basis Set: AUG-CC-PVTZ
    Blend: AUG-CC-PVTZ
  Basis Set: (AUG-CC-PVTZ AUX)
    Blend: AUG-CC-PVTZ-JKFIT + DEF2-UNIVERSAL-JKFIT

    Orbital Energies [Eh]
    ---------------------

    Doubly Occupied:

       1A    -20.565997     2A     -1.347364     3A     -0.723008
       4A     -0.574732     5A     -0.508445

  @DF-RHF Final Energy:   -76.05951203674711

   => Energetics <=

    Nuclear Repulsion Energy =              9.1277783390102964
    One-Electron Energy =                -122.9354843326851352
    Two-Electron Energy =                  37.7481939569277358
    Total Energy =                        -76.0595120367471083
 Dipole X            :        -37.9114289           38.0328548            0.1214259
 Dipole Y            :         -0.1598540            0.4239676            0.2641137
 Dipole Z            :        -36.9949091           37.6873354            0.6924263
 Magnitude           :                                                    0.7509690
  Basis Set: (AUG-CC-PVTZ AUX)
    Blend: AUG-CC-PVTZ-RI + DEF2-QZVPP-RI
	 Reference Energy          =     -76.0595120367471083 [Eh]
	 Singles Energy            =      -0.0000000000000000 [Eh]
	 Same-Spin Energy          =      -0.0684308459551405 [Eh]
	 Opposite-Spin Energy      =      -0.2157413322589661 [Eh]
	 Correlation Energy        =      -0.2841721782141066 [Eh]
	 Total Energy              =     -76.3436842149612147 [Eh]

	 ================> DF-SCS-MP2 Energies <==================
	-----------------------------------------------------------
	 SCS Same-Spin Scale       =       0.3333333333333333 [-]
	 SCS Opposite-Spin Scale   =       1.2000000000000000 [-]
	 SCS Same-Spin Energy      =      -0.0228102819850468 [Eh]
	 SCS Opposite-Spin Energy  =      -0.2588895987107592 [Eh]
	 SCS Correlation Energy    =      -0.2816998806958061 [Eh]
	 SCS Total Energy          =     -76.3412119174429193 [Eh]
	-----------------------------------------------------------

*** Psi4 exiting successfully. Buy a developer a beer!
