                               Psi4 1.9 release

  ==> Input File <==

--------------------------------------------------------------------------
MEMORY 60 GB

molecule dimer {
1 1
K          0.000000     0.000000     0.000000
O          2.076023    -1.563908     0.741741
H          2.860617    -0.996316     0.828705
H          1.615351    -1.618906     1.563939
O         -1.095486     0.399597     2.643072
H         -0.801901     1.238172     2.228137
H         -2.076198     0.356254     2.753986
O         -2.028741     1.602653    -1.083314
H         -2.848075     1.047294    -0.966116
H         -1.766923     1.523944    -2.040760
O          0.327369     2.348814     1.409380
H          0.118789     3.251871     1.602415
H          1.209539     2.243806     1.770572
O          2.277164     1.411722    -0.881632
H          2.742637     1.640937    -0.087027
H          2.895810     0.946922    -1.465846
O          0.049667    -1.666994    -2.004447
H         -0.029129    -1.163117    -2.830753
H          0.898871    -2.063134    -2.055004

units ang
no_reorient
no_com
symmetry c1
}

set {
basis        aug-cc-pVTZ
scf_type     df
}

energy("mp2")
--------------------------------------------------------------------------

    Molecular point group: c1

    Geometry (in Angstrom), charge = 1, multiplicity = 1:

       Center              X                  Y                   Z               Mass
    ------------   -----------------  -----------------  -----------------  -----------------
         K            0.000000000000     0.000000000000     0.000000000000    38.963706486400
         O            2.076023000000    -1.563908000000     0.741741000000    15.994914619570
         H            2.860617000000    -0.996316000000     0.828705000000     1.007825032230
         H            1.615351000000    -1.618906000000     1.563939000000     1.007825032230
         O           -1.095486000000     0.399597000000     2.643072000000    15.994914619570
         H           -0.801901000000     1.238172000000     2.228137000000     1.007825032230
         H           -2.076198000000     0.356254000000     2.753986000000     1.007825032230
         O           -2.028741000000     1.602653000000    -1.083314000000    15.994914619570
         H           -2.848075000000     1.047294000000    -0.966116000000     1.007825032230
         H           -1.766923000000     1.523944000000    -2.040760000000     1.007825032230
         O            0.327369000000     2.348814000000     1.409380000000    15.994914619570
         H            0.118789000000     3.251871000000     1.602415000000     1.007825032230
         H            1.209539000000     2.243806000000     1.770572000000     1.007825032230
         O            2.277164000000     1.411722000000    -0.881632000000    15.994914619570
         H            2.742637000000     1.640937000000    -0.087027000000     1.007825032230
         H            2.895810000000     0.946922000000    -1.465846000000     1.007825032230
         O            0.049667000000    -1.666994000000    -2.004447000000    15.994914619570
         H           -0.029129000000    -1.163117000000    -2.830753000000     1.007825032230
         H            0.898871000000    -2.063134000000    -2.055004000000     1.007825032230

  Charge       = 1
  Multiplicity = 1
  Basis Set: AUG-CC-PVTZ
    Blend: AUG-CC-PVTZ
  Basis Set: (AUG-CC-PVTZ AUX)
    Blend: AUG-CC-PVTZ-JKFIT + DEF2-UNIVERSAL-JKFIT

    Orbital Energies [Eh]
    ---------------------

    Doubly Occupied:

       1A   -133.597465     2A    -20.735294     3A    -20.722389
       4A    -20.716371     5A    -20.714707     6A    -20.712927
       7A    -20.679439     8A    -14.555882     9A    -11.585703
      10A    -11.585662    11A    -11.585549    12A     -1.820920
      13A     -1.533298    14A     -1.509745    15A     -1.506508
      16A     -1.505036    17A     -1.478109    18A     -1.453381
      19A     -1.033910    20A     -1.030751    21A     -1.030423
      22A     -0.893028    23A     -0.882650    24A     -0.879372
      25A     -0.867790    26A     -0.850657    27A     -0.843910
      28A     -0.765336    29A     -0.740052    30A     -0.739926
      31A     -0.729873    32A     -0.719268    33A     -0.697379
      34A     -0.675681    35A     -0.669295    36A     -0.663245
      37A     -0.661484    38A     -0.652910    39A     -0.625166

  @DF-RHF Final Energy: -1055.44514959834942

   => Energetics <=

    Nuclear Repulsion Energy =            464.1853934902573542
    One-Electron Energy =               -2369.9600936731344518
    Two-Electron Energy =                 850.3295505845277376
    Total Energy =                      -1055.4451495983494169
 Dipole X            :        -32.1103063           33.3864642            1.2761579
 Dipole Y            :        -49.1474440           50.3853878            1.2379438
 Dipole Z            :        -15.2774226           14.9300609           -0.3473617
 Magnitude           :                                                    1.8115584
  Basis Set: (AUG-CC-PVTZ AUX)
    Blend: AUG-CC-PVTZ-RI + DEF2-QZVPP-RI
	 Reference Energy          =   -1055.4451495983494169 [Eh]
	 Singles Energy            =      -0.0000000000000000 [Eh]
	 Same-Spin Energy          =      -0.4596875430223737 [Eh]
	 Opposite-Spin Energy      =      -1.4001115769738146 [Eh]
	 Correlation Energy        =      -1.8597991199961883 [Eh]
	 Total Energy              =   -1057.3049487183457131 [Eh]

	 ================> DF-SCS-MP2 Energies <==================
	-----------------------------------------------------------
	 SCS Same-Spin Scale       =       0.3333333333333333 [-]
	 SCS Opposite-Spin Scale   =       1.2000000000000000 [-]
	 SCS Same-Spin Energy      =      -0.1532291810074579 [Eh]
	 SCS Opposite-Spin Energy  =      -1.6801338923685776 [Eh]
	 SCS Correlation Energy    =      -1.8333630733760355 [Eh]
	 SCS Total Energy          =   -1057.2785126717253661 [Eh]
	-----------------------------------------------------------

*** Psi4 exiting successfully. Buy a developer a beer!
