                               Psi4 1.9 release

  ==> Input File <==

--------------------------------------------------------------------------
MEMORY 60 GB

molecule dimer {
0 1
Gh(K)      0.000000     0.000000     0.000000
Gh(O)      1.752063    -1.955740    -0.896493
Gh(H)      2.693070    -2.147140    -1.012955
Gh(H)      1.399783    -2.564561    -0.243759
O         -2.037636    -1.672138     0.117504
H         -2.427489    -2.365114     0.675856
H         -2.816892    -1.155028    -0.141307
Gh(O)      0.519565    -0.340148     2.890005
Gh(H)      0.272037     0.564577     2.764165
Gh(H)     -0.190010    -0.696801     3.468111
Gh(O)     -1.943971     1.609727     0.991987
Gh(H)     -2.039868     2.479130     0.578168
Gh(H)     -2.271273     1.714132     1.898834
Gh(O)     -0.866082     1.453293    -2.302765
Gh(H)     -0.118946     2.054102    -2.495125
Gh(H)     -1.462586     2.104021    -1.901122

units ang
no_reorient
no_com
symmetry c1
}

set {
basis        aug-cc-pVTZ
scf_type     df
}

energy("mp2")
--------------------------------------------------------------------------

    Molecular point group: c1

    Geometry (in Angstrom), charge = 0, multiplicity = 1:

       Center              X                  Y                   Z               Mass
    ------------   -----------------  -----------------  -----------------  -----------------
      Gh(K)           0.000000000000     0.000000000000     0.000000000000    38.963706486400
      Gh(O)           1.752063000000    -1.955740000000    -0.896493000000    15.994914619570
      Gh(H)           2.693070000000    -2.147140000000    -1.012955000000     1.007825032230
      Gh(H)           1.399783000000    -2.564561000000    -0.243759000000     1.007825032230
         O           -2.037636000000    -1.672138000000     0.117504000000    15.994914619570
         H           -2.427489000000    -2.365114000000     0.675856000000     1.007825032230
         H           -2.816892000000    -1.155028000000    -0.141307000000     1.007825032230
      Gh(O)           0.519565000000    -0.340148000000     2.890005000000    15.994914619570
      Gh(H)           0.272037000000     0.564577000000     2.764165000000     1.007825032230
      Gh(H)          -0.190010000000    -0.696801000000     3.468111000000     1.007825032230
      Gh(O)          -1.943971000000     1.609727000000     0.991987000000    15.994914619570
      Gh(H)          -2.039868000000     2.479130000000     0.578168000000     1.007825032230
      Gh(H)          -2.271273000000     1.714132000000     1.898834000000     1.007825032230
      Gh(O)          -0.866082000000     1.453293000000    -2.302765000000    15.994914619570
      Gh(H)          -0.118946000000     2.054102000000    -2.495125000000     1.007825032230
      Gh(H)          -1.462586000000     2.104021000000    -1.901122000000     1.007825032230

  Charge       = 0
  Multiplicity = 1
  Basis Set: AUG-CC-PVTZ
    Blend: AUG-CC-PVTZ
  Basis Set: (AUG-CC-PVTZ AUX)
    Blend: AUG-CC-PVTZ-JKFIT + DEF2-UNIVERSAL-JKFIT

    Orbital Energies [Eh]
    ---------------------

    Doubly Occupied:

       1A    -20.570517     2A     -1.348185     3A     -0.705833
       4A     -0.586789     5A     -0.509903

  @DF-RHF Final Energy:   -76.05918784479206

   => Energetics <=

    Nuclear Repulsion Energy =              9.0701110964305993
    One-Electron Energy =                -122.8161426371675873
    Two-Electron Energy =                  37.6868436959449298
    Total Energy =                        -76.0591878447920635
 Dipole X            :         39.9489352          -40.7150357           -0.7661005
 Dipole Y            :         31.8159323          -31.9311672           -0.1152349
 Dipole Z            :         -2.5905616            2.7865542            0.1959927
 Magnitude           :                                                    0.7991259
  Basis Set: (AUG-CC-PVTZ AUX)
    Blend: AUG-CC-PVTZ-RI + DEF2-QZVPP-RI
	 Reference Energy          =     -76.0591878447920635 [Eh]
	 Singles Energy            =      -0.0000000000000000 [Eh]
	 Same-Spin Energy          =      -0.0686732164786012 [Eh]
	 Opposite-Spin Energy      =      -0.2164073126420419 [Eh]
	 Correlation Energy        =      -0.2850805291206431 [Eh]
	 Total Energy              =     -76.3442683739127119 [Eh]

	 ================> DF-SCS-MP2 Energies <==================
	-----------------------------------------------------------
	 SCS Same-Spin Scale       =       0.3333333333333333 [-]
	 SCS Opposite-Spin Scale   =       1.2000000000000000 [-]
	 SCS Same-Spin Energy      =      -0.0228910721595337 [Eh]
	 SCS Opposite-Spin Energy  =      -0.2596887751704502 [Eh]
	 SCS Correlation Energy    =      -0.2825798473299839 [Eh]
	 SCS Total Energy          =     -76.3417676921220476 [Eh]
	-----------------------------------------------------------

*** Psi4 exiting successfully. Buy a developer a beer!
