                               Psi4 1.9 release

  ==> Input File <==

--------------------------------------------------------------------------
MEMORY 60 GB

molecule dimer {
1 1
K      0.000000     0.000000     0.000000
--
0 1
O      0.819292    -2.789941     0.291306
H      1.195094    -2.776841    -0.566002
H     -0.077964    -3.026358     0.173959
O      1.764010    -0.126028     2.022779
H      1.754232     0.527948     2.711207
H      2.705527    -0.165887     1.849429
O      0.734762    -1.062837    -2.508725
H     -0.095661    -1.571347    -2.543715
H      0.877683    -0.850644    -3.477691
O     -1.962159    -1.257408    -1.533300
H     -1.941275    -2.118908    -1.072393
H     -2.659976    -0.760867    -1.081823
O     -1.800433     2.262698     0.326586
H     -2.152082     2.644699     1.205225
H     -2.536440     1.995678    -0.220888
O      2.083767     1.285735    -1.472343
H      2.549628     1.827404    -0.889650
H      2.615719     0.570403    -1.811064
O     -2.043898    -0.136581     1.786181
H     -2.602896    -0.897183     2.048392
H     -2.544444     0.705464     1.976021

units ang
no_reorient
no_com
symmetry c1
}

set {
basis        aug-cc-pVTZ
scf_type     df
}

energy("mp2", bsse_type="cp")
--------------------------------------------------------------------------

                               Psi4 1.9 release
    Molecular point group: c1
  Charge       = 0
  Multiplicity = 1
  Basis Set: AUG-CC-PVTZ
    Blend: AUG-CC-PVTZ
  Basis Set: (AUG-CC-PVTZ AUX)
    Blend: AUG-CC-PVTZ-JKFIT + DEF2-UNIVERSAL-JKFIT
  @DF-RHF Final Energy:  -532.37910273588375
    Total Energy =                       -532.3791027358837482
 Dipole X            :         10.2215584          -11.6220557           -1.4004972
 Dipole Y            :         34.9227647          -34.9435588           -0.0207941
 Dipole Z            :         19.9850413          -19.6514906            0.3335507
 Magnitude           :                                                    1.4398198
  Basis Set: (AUG-CC-PVTZ AUX)
    Blend: AUG-CC-PVTZ-RI + DEF2-QZVPP-RI
	 Reference Energy          =    -532.3791027358837482 [Eh]
	 Singles Energy            =      -0.0000000000000000 [Eh]
	 Same-Spin Energy          =      -0.4856399202913934 [Eh]
	 Opposite-Spin Energy      =      -1.5205324796048010 [Eh]
	 Correlation Energy        =      -2.0061723998961942 [Eh]
	 Total Energy              =    -534.3852751357799207 [Eh]
	 SCS Total Energy          =    -534.3656216848399936 [Eh]
                               Psi4 1.9 release
    Molecular point group: c1
  Multiplicity = 1
  Basis Set: AUG-CC-PVTZ
    Blend: AUG-CC-PVTZ
  Basis Set: (AUG-CC-PVTZ AUX)
    Blend: AUG-CC-PVTZ-JKFIT + DEF2-UNIVERSAL-JKFIT
  @DF-RHF Final Energy:  -599.01751762357230
    Total Energy =                       -599.0175176235723029
  Basis Set: (AUG-CC-PVTZ AUX)
	 Singles Energy            =      -0.0000000000000000 [Eh]
	 Same-Spin Energy          =      -0.0398977016358003 [Eh]
	 Opposite-Spin Energy      =      -0.0983062381732765 [Eh]
	 Correlation Energy        =      -0.1382039398090768 [Eh]
	 Total Energy              =    -599.1557215633813485 [Eh]
	 SCS Total Energy          =    -599.1487843432588534 [Eh]
                               Psi4 1.9 release
    Molecular point group: c1

    Geometry (in Bohr), charge = 1, multiplicity = 1:

       Center              X                  Y                   Z               Mass
    ------------   -----------------  -----------------  -----------------  -----------------
         K            0.000000000000     0.000000000000     0.000000000000    38.963706486400
         O            1.548237496779    -5.272224396186     0.550488558703    15.994914619570
         H            2.258400354178    -5.247468983942    -1.069588766461     1.007825032230
         H           -0.147330607645    -5.718987777588     0.328734867059     1.007825032230
         O            3.333495782569    -0.238158404139     3.822498322327    15.994914619570
         H            3.315018040514     0.997677128483     5.123438699424     1.007825032230
         H            5.112705055032    -0.313480997774     3.494914298479     1.007825032230
         O            1.388498947394    -2.008470846003    -4.740803174089    15.994914619570
         H           -0.180773090887    -2.969415478060    -4.806924691219     1.007825032230
         H            1.658580494970    -1.607484190264    -6.571883538970     1.007825032230
         O           -3.707943124602    -2.376156747960    -2.897517068164    15.994914619570
         H           -3.668478084198    -4.004155805042    -2.026529068858     1.007825032230
         H           -5.026626140291    -1.437830247899    -2.044349186221     1.007825032230
         O           -3.402325277236     4.275879524621     0.617158096409    15.994914619570
         H           -4.066845579528     4.997756794272     2.277545169555     1.007825032230
         H           -4.793176933656     3.771284854601    -0.417417824400     1.007825032230
         O            3.937748939267     2.429687019916    -2.782325032735    15.994914619570
         H            4.818098641799     3.453293080566    -1.681194847514     1.007825032230
         H            4.942992531156     1.077905451140    -3.422414955676     1.007825032230
         O           -3.862407448371    -0.258100683941     3.375392900496    15.994914619570
         H           -4.918760573050    -1.695430154417     3.870899877579     1.007825032230
         H           -4.808302301564     1.333133751370     3.734138508153     1.007825032230

  Charge       = 1
  Multiplicity = 1
  Basis Set: AUG-CC-PVTZ
    Blend: AUG-CC-PVTZ
  Basis Set: (AUG-CC-PVTZ AUX)
    Blend: AUG-CC-PVTZ-JKFIT + DEF2-UNIVERSAL-JKFIT

    Orbital Energies [Eh]
    ---------------------

    Doubly Occupied:

       1A   -133.576576     2A    -20.731085     3A    -20.719720
       4A    -20.714885     5A    -20.698205     6A    -20.694948
       7A    -20.689496     8A    -20.678361     9A    -14.534704
      10A    -11.564578    11A    -11.564495    12A    -11.564420
      13A     -1.798787    14A     -1.513156    15A     -1.493610
      16A     -1.492115    17A     -1.488716    18A     -1.482124
      19A     -1.479759    20A     -1.470018    21A     -1.011167
      22A     -1.009336    23A     -1.007749    24A     -0.877677
      25A     -0.866428    26A     -0.864833    27A     -0.860750
      28A     -0.853918    29A     -0.838619    30A     -0.827444
      31A     -0.750869    32A     -0.733661    33A     -0.729616
      34A     -0.719835    35A     -0.718324    36A     -0.711366
      37A     -0.695639    38A     -0.678625    39A     -0.667103
      40A     -0.647018    41A     -0.644748    42A     -0.642201
      43A     -0.637163    44A     -0.630953

  @DF-RHF Final Energy: -1131.50583011399999

   => Energetics <=

    Nuclear Repulsion Energy =            579.3951536750557807
    One-Electron Energy =               -2704.6523584938959175
    Two-Electron Energy =                 993.7513747048404866
    Total Energy =                      -1131.5058301139997639
 Dipole X            :         10.1989734          -11.6220557           -1.4230823
 Dipole Y            :         34.8052734          -34.9435588           -0.1382854
 Dipole Z            :         19.9604195          -19.6514906            0.3089289
 Magnitude           :                                                    1.4627793
  Basis Set: (AUG-CC-PVTZ AUX)
    Blend: AUG-CC-PVTZ-RI + DEF2-QZVPP-RI
	 Reference Energy          =   -1131.5058301139999912 [Eh]
	 Singles Energy            =      -0.0000000000000000 [Eh]
	 Same-Spin Energy          =      -0.5299497834284959 [Eh]
	 Opposite-Spin Energy      =      -1.6189073831740974 [Eh]
	 Correlation Energy        =      -2.1488571666025935 [Eh]
	 Total Energy              =   -1133.6546872806025021 [Eh]

	 ================> DF-SCS-MP2 Energies <==================
	-----------------------------------------------------------
	 SCS Same-Spin Scale       =       0.3333333333333333 [-]
	 SCS Opposite-Spin Scale   =       1.2000000000000000 [-]
	 SCS Same-Spin Energy      =      -0.1766499278094986 [Eh]
	 SCS Opposite-Spin Energy  =      -1.9426888598089169 [Eh]
	 SCS Correlation Energy    =      -2.1193387876184158 [Eh]
	 SCS Total Energy          =   -1133.6251689016185082 [Eh]
	-----------------------------------------------------------

*** Psi4 exiting successfully. Buy a developer a beer!
