                               Psi4 1.9 release

  ==> Input File <==

--------------------------------------------------------------------------
MEMORY 60 GB

molecule dimer {
0 1
Gh(K)      0.000000     0.000000     0.000000
Gh(O)      2.014013    -0.279703    -1.888881
Gh(H)      3.005208    -0.295363    -1.835973
Gh(H)      1.699269     0.613752    -2.030273
Gh(O)      0.082691    -2.431143     0.831079
Gh(H)     -0.605822    -3.008170     1.093025
Gh(H)      0.806277    -2.617354     1.392155
Gh(O)      0.852450     2.369236    -1.112997
Gh(H)      0.649638     2.424980    -2.052198
Gh(H)      1.809668     2.651018    -1.046812
Gh(O)     -1.193213     1.995766     1.576577
Gh(H)     -2.103942     1.982930     1.219885
Gh(H)     -1.169090     2.215535     2.486101
O          2.364288     0.103389     1.226266
H          2.966756    -0.556210     0.863653
H          2.914997     0.928049     1.020854
Gh(O)     -1.864427    -0.250800    -2.008152
Gh(H)     -1.879585     0.539119    -2.581299
Gh(H)     -2.686209    -0.323600    -1.550985
Gh(O)     -2.311800    -0.876132     1.478322
Gh(H)     -2.741898    -0.025471     1.369603
Gh(H)     -2.307840    -0.999897     2.401276

units ang
no_reorient
no_com
symmetry c1
}

set {
basis        aug-cc-pVTZ
scf_type     df
}

energy("mp2")
--------------------------------------------------------------------------

    Molecular point group: c1

    Geometry (in Angstrom), charge = 0, multiplicity = 1:

       Center              X                  Y                   Z               Mass
    ------------   -----------------  -----------------  -----------------  -----------------
      Gh(K)           0.000000000000     0.000000000000     0.000000000000    38.963706486400
      Gh(O)           2.014013000000    -0.279703000000    -1.888881000000    15.994914619570
      Gh(H)           3.005208000000    -0.295363000000    -1.835973000000     1.007825032230
      Gh(H)           1.699269000000     0.613752000000    -2.030273000000     1.007825032230
      Gh(O)           0.082691000000    -2.431143000000     0.831079000000    15.994914619570
      Gh(H)          -0.605822000000    -3.008170000000     1.093025000000     1.007825032230
      Gh(H)           0.806277000000    -2.617354000000     1.392155000000     1.007825032230
      Gh(O)           0.852450000000     2.369236000000    -1.112997000000    15.994914619570
      Gh(H)           0.649638000000     2.424980000000    -2.052198000000     1.007825032230
      Gh(H)           1.809668000000     2.651018000000    -1.046812000000     1.007825032230
      Gh(O)          -1.193213000000     1.995766000000     1.576577000000    15.994914619570
      Gh(H)          -2.103942000000     1.982930000000     1.219885000000     1.007825032230
      Gh(H)          -1.169090000000     2.215535000000     2.486101000000     1.007825032230
         O            2.364288000000     0.103389000000     1.226266000000    15.994914619570
         H            2.966756000000    -0.556210000000     0.863653000000     1.007825032230
         H            2.914997000000     0.928049000000     1.020854000000     1.007825032230
      Gh(O)          -1.864427000000    -0.250800000000    -2.008152000000    15.994914619570
      Gh(H)          -1.879585000000     0.539119000000    -2.581299000000     1.007825032230
      Gh(H)          -2.686209000000    -0.323600000000    -1.550985000000     1.007825032230
      Gh(O)          -2.311800000000    -0.876132000000     1.478322000000    15.994914619570
      Gh(H)          -2.741898000000    -0.025471000000     1.369603000000     1.007825032230
      Gh(H)          -2.307840000000    -0.999897000000     2.401276000000     1.007825032230

  Charge       = 0
  Multiplicity = 1
  Basis Set: AUG-CC-PVTZ
    Blend: AUG-CC-PVTZ
  Basis Set: (AUG-CC-PVTZ AUX)
    Blend: AUG-CC-PVTZ-JKFIT + DEF2-UNIVERSAL-JKFIT

    Orbital Energies [Eh]
    ---------------------

    Doubly Occupied:

       1A    -20.575084     2A     -1.342948     3A     -0.689102
       4A     -0.590994     5A     -0.509836

  @DF-RHF Final Energy:   -76.05480719126029

   => Energetics <=

    Nuclear Repulsion Energy =              8.9256710572607414
    One-Electron Energy =                -122.5450268185081768
    Two-Electron Energy =                  37.5645485699871386
    Total Energy =                        -76.0548071912602950
 Dipole X            :        -46.1181179           46.8577567            0.7396388
 Dipole Y            :         -2.1697611            2.2656890            0.0959279
 Dipole Z            :        -22.4646127           22.0996573           -0.3649554
 Magnitude           :                                                    0.8303374
  Basis Set: (AUG-CC-PVTZ AUX)
    Blend: AUG-CC-PVTZ-RI + DEF2-QZVPP-RI
	 Reference Energy          =     -76.0548071912602950 [Eh]
	 Singles Energy            =      -0.0000000000000000 [Eh]
	 Same-Spin Energy          =      -0.0691207940588442 [Eh]
	 Opposite-Spin Energy      =      -0.2179230448003867 [Eh]
	 Correlation Energy        =      -0.2870438388592309 [Eh]
	 Total Energy              =     -76.3418510301195283 [Eh]

	 ================> DF-SCS-MP2 Energies <==================
	-----------------------------------------------------------
	 SCS Same-Spin Scale       =       0.3333333333333333 [-]
	 SCS Opposite-Spin Scale   =       1.2000000000000000 [-]
	 SCS Same-Spin Energy      =      -0.0230402646862814 [Eh]
	 SCS Opposite-Spin Energy  =      -0.2615076537604640 [Eh]
	 SCS Correlation Energy    =      -0.2845479184467454 [Eh]
	 SCS Total Energy          =     -76.3393551097070429 [Eh]
	-----------------------------------------------------------

*** Psi4 exiting successfully. Buy a developer a beer!
