                               Psi4 1.9 release

  ==> Input File <==

--------------------------------------------------------------------------
MEMORY 60 GB

molecule dimer {
0 1
Gh(K)      0.000000     0.000000     0.000000
O         -0.210079     2.249880    -1.822263
H         -0.999905     2.747073    -2.188873
H          0.437892     2.910845    -1.624153
Gh(O)     -0.450115    -1.345599    -2.334771
Gh(H)     -1.257746    -1.369664    -2.796646
Gh(H)     -0.004945    -2.214472    -2.565938
Gh(O)      0.686051     1.202628     2.117488
Gh(H)      1.269892     0.636475     2.686024
Gh(H)      0.056161     1.684988     2.688453

units ang
no_reorient
no_com
symmetry c1
}

set {
basis        aug-cc-pVTZ
scf_type     df
}

energy("mp2")
--------------------------------------------------------------------------

    Molecular point group: c1

    Geometry (in Angstrom), charge = 0, multiplicity = 1:

       Center              X                  Y                   Z               Mass
    ------------   -----------------  -----------------  -----------------  -----------------
      Gh(K)           0.000000000000     0.000000000000     0.000000000000    38.963706486400
         O           -0.210079000000     2.249880000000    -1.822263000000    15.994914619570
         H           -0.999905000000     2.747073000000    -2.188873000000     1.007825032230
         H            0.437892000000     2.910845000000    -1.624153000000     1.007825032230
      Gh(O)          -0.450115000000    -1.345599000000    -2.334771000000    15.994914619570
      Gh(H)          -1.257746000000    -1.369664000000    -2.796646000000     1.007825032230
      Gh(H)          -0.004945000000    -2.214472000000    -2.565938000000     1.007825032230
      Gh(O)           0.686051000000     1.202628000000     2.117488000000    15.994914619570
      Gh(H)           1.269892000000     0.636475000000     2.686024000000     1.007825032230
      Gh(H)           0.056161000000     1.684988000000     2.688453000000     1.007825032230

  Charge       = 0
  Multiplicity = 1
  Basis Set: AUG-CC-PVTZ
    Blend: AUG-CC-PVTZ
  Basis Set: (AUG-CC-PVTZ AUX)
    Blend: AUG-CC-PVTZ-JKFIT + DEF2-UNIVERSAL-JKFIT

    Orbital Energies [Eh]
    ---------------------

    Doubly Occupied:

       1A    -20.569515     2A     -1.344719     3A     -0.710736
       4A     -0.579143     5A     -0.508659

  @DF-RHF Final Energy:   -76.05752358072638

   => Energetics <=

    Nuclear Repulsion Energy =              9.0350265023552385
    One-Electron Energy =                -122.7595518727897712
    Two-Electron Energy =                  37.6670017897081451
    Total Energy =                        -76.0575235807263823
 Dipole X            :          4.1530018           -4.2379848           -0.0849830
 Dipole Y            :        -43.9390113           44.7051716            0.7661603
 Dipole Z            :         34.6461325          -34.7541988           -0.1080663
 Magnitude           :                                                    0.7783971
  Basis Set: (AUG-CC-PVTZ AUX)
    Blend: AUG-CC-PVTZ-RI + DEF2-QZVPP-RI
	 Reference Energy          =     -76.0575235807263823 [Eh]
	 Singles Energy            =      -0.0000000000000000 [Eh]
	 Same-Spin Energy          =      -0.0686341556815563 [Eh]
	 Opposite-Spin Energy      =      -0.2162436533837021 [Eh]
	 Correlation Energy        =      -0.2848778090652584 [Eh]
	 Total Energy              =     -76.3424013897916467 [Eh]

	 ================> DF-SCS-MP2 Energies <==================
	-----------------------------------------------------------
	 SCS Same-Spin Scale       =       0.3333333333333333 [-]
	 SCS Opposite-Spin Scale   =       1.2000000000000000 [-]
	 SCS Same-Spin Energy      =      -0.0228780518938521 [Eh]
	 SCS Opposite-Spin Energy  =      -0.2594923840604425 [Eh]
	 SCS Correlation Energy    =      -0.2823704359542946 [Eh]
	 SCS Total Energy          =     -76.3398940166806739 [Eh]
	-----------------------------------------------------------

*** Psi4 exiting successfully. Buy a developer a beer!
