                               Psi4 1.9 release

  ==> Input File <==

--------------------------------------------------------------------------
MEMORY 60 GB

molecule dimer {
0 1
Gh(K)      0.000000     0.000000     0.000000
Gh(O)      1.478006     0.717897    -1.948128
Gh(H)      1.494997     0.601610    -2.908738
Gh(H)      2.334047     1.201082    -1.842671
Gh(O)     -2.661762     0.783294    -0.605565
Gh(H)     -3.465178     1.092006    -0.190818
Gh(H)     -2.885772     0.543165    -1.519228
O         -0.002906     2.840525    -0.171305
H         -0.856087     3.028844    -0.630236
H          0.477889     3.665808    -0.151625

units ang
no_reorient
no_com
symmetry c1
}

set {
basis        aug-cc-pVTZ
scf_type     df
}

energy("mp2")
--------------------------------------------------------------------------

    Molecular point group: c1

    Geometry (in Angstrom), charge = 0, multiplicity = 1:

       Center              X                  Y                   Z               Mass
    ------------   -----------------  -----------------  -----------------  -----------------
      Gh(K)           0.000000000000     0.000000000000     0.000000000000    38.963706486400
      Gh(O)           1.478006000000     0.717897000000    -1.948128000000    15.994914619570
      Gh(H)           1.494997000000     0.601610000000    -2.908738000000     1.007825032230
      Gh(H)           2.334047000000     1.201082000000    -1.842671000000     1.007825032230
      Gh(O)          -2.661762000000     0.783294000000    -0.605565000000    15.994914619570
      Gh(H)          -3.465178000000     1.092006000000    -0.190818000000     1.007825032230
      Gh(H)          -2.885772000000     0.543165000000    -1.519228000000     1.007825032230
         O           -0.002906000000     2.840525000000    -0.171305000000    15.994914619570
         H           -0.856087000000     3.028844000000    -0.630236000000     1.007825032230
         H            0.477889000000     3.665808000000    -0.151625000000     1.007825032230

  Charge       = 0
  Multiplicity = 1
  Basis Set: AUG-CC-PVTZ
    Blend: AUG-CC-PVTZ
  Basis Set: (AUG-CC-PVTZ AUX)
    Blend: AUG-CC-PVTZ-JKFIT + DEF2-UNIVERSAL-JKFIT

    Orbital Energies [Eh]
    ---------------------

    Doubly Occupied:

       1A    -20.568711     2A     -1.345519     3A     -0.713570
       4A     -0.578791     5A     -0.508706

  @DF-RHF Final Energy:   -76.05892092558524

   => Energetics <=

    Nuclear Repulsion Energy =              9.0615171617622394
    One-Electron Energy =                -122.8102777068830136
    Two-Electron Energy =                  37.6898396195355403
    Total Energy =                        -76.0589209255852268
 Dipole X            :          0.5159263           -0.7586230           -0.2426967
 Dipole Y            :        -54.9191862           55.5935732            0.6743870
 Dipole Z            :          3.7779434           -4.0672594           -0.2893160
 Magnitude           :                                                    0.7729187
  Basis Set: (AUG-CC-PVTZ AUX)
    Blend: AUG-CC-PVTZ-RI + DEF2-QZVPP-RI
	 Reference Energy          =     -76.0589209255852410 [Eh]
	 Singles Energy            =      -0.0000000000000000 [Eh]
	 Same-Spin Energy          =      -0.0685845418181481 [Eh]
	 Opposite-Spin Energy      =      -0.2161508207562461 [Eh]
	 Correlation Energy        =      -0.2847353625743941 [Eh]
	 Total Energy              =     -76.3436562881596359 [Eh]

	 ================> DF-SCS-MP2 Energies <==================
	-----------------------------------------------------------
	 SCS Same-Spin Scale       =       0.3333333333333333 [-]
	 SCS Opposite-Spin Scale   =       1.2000000000000000 [-]
	 SCS Same-Spin Energy      =      -0.0228615139393827 [Eh]
	 SCS Opposite-Spin Energy  =      -0.2593809849074953 [Eh]
	 SCS Correlation Energy    =      -0.2822424988468780 [Eh]
	 SCS Total Energy          =     -76.3411634244321249 [Eh]
	-----------------------------------------------------------

*** Psi4 exiting successfully. Buy a developer a beer!
