                               Psi4 1.9 release

  ==> Input File <==

--------------------------------------------------------------------------
MEMORY 60 GB

molecule dimer {
0 1
Gh(K)      0.000000     0.000000     0.000000
O          2.529918    -1.431771    -0.209555
H          3.170446    -0.706615    -0.323319
H          2.749458    -2.010204     0.519739
Gh(O)      1.813586     1.029246     2.230508
Gh(H)      1.419877     1.724132     2.765815
Gh(H)      2.307126     1.578543     1.545356
Gh(O)     -1.368704    -0.907145    -2.217904
Gh(H)     -1.940339    -1.698694    -2.000603
Gh(H)     -1.925491    -0.236454    -2.630828
Gh(O)      1.146945     2.118489    -1.194320
Gh(H)      1.871621     1.704285    -1.765925
Gh(H)      1.593857     2.809076    -0.560670
Gh(O)     -1.511741    -0.504052     2.510190
Gh(H)     -2.151551    -1.120327     2.142254
Gh(H)     -0.821208    -1.100007     2.922543

units ang
no_reorient
no_com
symmetry c1
}

set {
basis        aug-cc-pVTZ
scf_type     df
}

energy("mp2")
--------------------------------------------------------------------------

    Molecular point group: c1

    Geometry (in Angstrom), charge = 0, multiplicity = 1:

       Center              X                  Y                   Z               Mass
    ------------   -----------------  -----------------  -----------------  -----------------
      Gh(K)           0.000000000000     0.000000000000     0.000000000000    38.963706486400
         O            2.529918000000    -1.431771000000    -0.209555000000    15.994914619570
         H            3.170446000000    -0.706615000000    -0.323319000000     1.007825032230
         H            2.749458000000    -2.010204000000     0.519739000000     1.007825032230
      Gh(O)           1.813586000000     1.029246000000     2.230508000000    15.994914619570
      Gh(H)           1.419877000000     1.724132000000     2.765815000000     1.007825032230
      Gh(H)           2.307126000000     1.578543000000     1.545356000000     1.007825032230
      Gh(O)          -1.368704000000    -0.907145000000    -2.217904000000    15.994914619570
      Gh(H)          -1.940339000000    -1.698694000000    -2.000603000000     1.007825032230
      Gh(H)          -1.925491000000    -0.236454000000    -2.630828000000     1.007825032230
      Gh(O)           1.146945000000     2.118489000000    -1.194320000000    15.994914619570
      Gh(H)           1.871621000000     1.704285000000    -1.765925000000     1.007825032230
      Gh(H)           1.593857000000     2.809076000000    -0.560670000000     1.007825032230
      Gh(O)          -1.511741000000    -0.504052000000     2.510190000000    15.994914619570
      Gh(H)          -2.151551000000    -1.120327000000     2.142254000000     1.007825032230
      Gh(H)          -0.821208000000    -1.100007000000     2.922543000000     1.007825032230

  Charge       = 0
  Multiplicity = 1
  Basis Set: AUG-CC-PVTZ
    Blend: AUG-CC-PVTZ
  Basis Set: (AUG-CC-PVTZ AUX)
    Blend: AUG-CC-PVTZ-JKFIT + DEF2-UNIVERSAL-JKFIT

    Orbital Energies [Eh]
    ---------------------

    Doubly Occupied:

       1A    -20.564559     2A     -1.343787     3A     -0.728411
       4A     -0.567272     5A     -0.507108

  @DF-RHF Final Energy:   -76.05852518275415

   => Energetics <=

    Nuclear Repulsion Energy =              9.1010351241683285
    One-Electron Energy =                -122.8968414633035025
    Two-Electron Energy =                  37.7372811563810018
    Total Energy =                        -76.0585251827541668
 Dipole X            :        -48.8497417           49.4338144            0.5840726
 Dipole Y            :         26.8769785          -26.7792844            0.0976942
 Dipole Z            :          3.2161534           -2.7968325            0.4193209
 Magnitude           :                                                    0.7256135
  Basis Set: (AUG-CC-PVTZ AUX)
    Blend: AUG-CC-PVTZ-RI + DEF2-QZVPP-RI
	 Reference Energy          =     -76.0585251827541526 [Eh]
	 Singles Energy            =      -0.0000000000000000 [Eh]
	 Same-Spin Energy          =      -0.0684344508483302 [Eh]
	 Opposite-Spin Energy      =      -0.2156119892776027 [Eh]
	 Correlation Energy        =      -0.2840464401259329 [Eh]
	 Total Energy              =     -76.3425716228800866 [Eh]

	 ================> DF-SCS-MP2 Energies <==================
	-----------------------------------------------------------
	 SCS Same-Spin Scale       =       0.3333333333333333 [-]
	 SCS Opposite-Spin Scale   =       1.2000000000000000 [-]
	 SCS Same-Spin Energy      =      -0.0228114836161101 [Eh]
	 SCS Opposite-Spin Energy  =      -0.2587343871331232 [Eh]
	 SCS Correlation Energy    =      -0.2815458707492333 [Eh]
	 SCS Total Energy          =     -76.3400710535033795 [Eh]
	-----------------------------------------------------------

*** Psi4 exiting successfully. Buy a developer a beer!
