                               Psi4 1.9 release

  ==> Input File <==

--------------------------------------------------------------------------
MEMORY 60 GB

molecule dimer {
0 1
Gh(K)      0.000000     0.000000     0.000000
Gh(O)     -1.249687    -2.212479     0.364535
Gh(H)     -2.209513    -2.240427     0.194993
Gh(H)     -1.217501    -2.449956     1.323026
O         -0.848192     2.494283    -0.608818
H         -1.728060     2.614033    -0.331862
H         -0.360729     3.287164    -0.498154
Gh(O)     -0.354819     1.551553     2.420581
Gh(H)      0.571155     1.863402     2.412682
Gh(H)     -0.844927     2.239234     1.996701
Gh(O)      1.824471     1.246239    -1.492036
Gh(H)      2.780868     1.330448    -1.240610
Gh(H)      1.596086     1.819060    -2.215030

units ang
no_reorient
no_com
symmetry c1
}

set {
basis        aug-cc-pVTZ
scf_type     df
}

energy("mp2")
--------------------------------------------------------------------------

    Molecular point group: c1

    Geometry (in Angstrom), charge = 0, multiplicity = 1:

       Center              X                  Y                   Z               Mass
    ------------   -----------------  -----------------  -----------------  -----------------
      Gh(K)           0.000000000000     0.000000000000     0.000000000000    38.963706486400
      Gh(O)          -1.249687000000    -2.212479000000     0.364535000000    15.994914619570
      Gh(H)          -2.209513000000    -2.240427000000     0.194993000000     1.007825032230
      Gh(H)          -1.217501000000    -2.449956000000     1.323026000000     1.007825032230
         O           -0.848192000000     2.494283000000    -0.608818000000    15.994914619570
         H           -1.728060000000     2.614033000000    -0.331862000000     1.007825032230
         H           -0.360729000000     3.287164000000    -0.498154000000     1.007825032230
      Gh(O)          -0.354819000000     1.551553000000     2.420581000000    15.994914619570
      Gh(H)           0.571155000000     1.863402000000     2.412682000000     1.007825032230
      Gh(H)          -0.844927000000     2.239234000000     1.996701000000     1.007825032230
      Gh(O)           1.824471000000     1.246239000000    -1.492036000000    15.994914619570
      Gh(H)           2.780868000000     1.330448000000    -1.240610000000     1.007825032230
      Gh(H)           1.596086000000     1.819060000000    -2.215030000000     1.007825032230

  Charge       = 0
  Multiplicity = 1
  Basis Set: AUG-CC-PVTZ
    Blend: AUG-CC-PVTZ
  Basis Set: (AUG-CC-PVTZ AUX)
    Blend: AUG-CC-PVTZ-JKFIT + DEF2-UNIVERSAL-JKFIT

    Orbital Energies [Eh]
    ---------------------

    Doubly Occupied:

       1A    -20.560265     2A     -1.361759     3A     -0.742367
       4A     -0.577881     5A     -0.510708

  @DF-RHF Final Energy:   -76.06077998237723

   => Energetics <=

    Nuclear Repulsion Energy =              9.4130316176363280
    One-Electron Energy =                -123.4416603196665676
    Two-Electron Energy =                  37.9678487196530057
    Total Energy =                        -76.0607799823772268
 Dipole X            :         16.4992062          -16.7700438           -0.2708376
 Dipole Y            :        -48.2324577           48.8597401            0.6272824
 Dipole Z            :         11.0389914          -10.7724972            0.2664942
 Magnitude           :                                                    0.7333862
  Basis Set: (AUG-CC-PVTZ AUX)
    Blend: AUG-CC-PVTZ-RI + DEF2-QZVPP-RI
	 Reference Energy          =     -76.0607799823772268 [Eh]
	 Singles Energy            =      -0.0000000000000000 [Eh]
	 Same-Spin Energy          =      -0.0679206930834883 [Eh]
	 Opposite-Spin Energy      =      -0.2141986535089667 [Eh]
	 Correlation Energy        =      -0.2821193465924550 [Eh]
	 Total Energy              =     -76.3428993289696791 [Eh]

	 ================> DF-SCS-MP2 Energies <==================
	-----------------------------------------------------------
	 SCS Same-Spin Scale       =       0.3333333333333333 [-]
	 SCS Opposite-Spin Scale   =       1.2000000000000000 [-]
	 SCS Same-Spin Energy      =      -0.0226402310278294 [Eh]
	 SCS Opposite-Spin Energy  =      -0.2570383842107600 [Eh]
	 SCS Correlation Energy    =      -0.2796786152385894 [Eh]
	 SCS Total Energy          =     -76.3404585976158216 [Eh]
	-----------------------------------------------------------

*** Psi4 exiting successfully. Buy a developer a beer!
