                               Psi4 1.9 release

  ==> Input File <==

--------------------------------------------------------------------------
MEMORY 60 GB

molecule dimer {
0 1
Gh(K)      0.000000     0.000000     0.000000
Gh(O)      0.193604     2.456516    -0.745826
Gh(H)      1.027191     2.951756    -0.793227
Gh(H)     -0.562560     3.072946    -0.858144
Gh(O)     -1.232242    -2.233013     0.683210
Gh(H)     -1.372938    -2.937211    -0.025695
Gh(H)     -1.366802    -2.615033     1.557785
Gh(O)      2.594873     0.295506     0.744422
Gh(H)      2.858332     1.115974     1.121168
Gh(H)      3.402181    -0.102967     0.308189
Gh(O)      0.305749    -1.494227    -2.346204
Gh(H)     -0.487855    -1.900339    -2.732699
Gh(H)      0.656706    -2.159673    -1.779934
Gh(O)      0.354684     0.631866     2.696786
Gh(H)      0.743905     1.438358     3.041235
Gh(H)      0.890030    -0.053433     3.042617
O         -2.758490     0.097649    -0.258778
H         -3.113201     0.864523    -0.650413
H         -2.526952     0.402207     0.644990

units ang
no_reorient
no_com
symmetry c1
}

set {
basis        aug-cc-pVTZ
scf_type     df
}

energy("mp2")
--------------------------------------------------------------------------

    Molecular point group: c1

    Geometry (in Angstrom), charge = 0, multiplicity = 1:

       Center              X                  Y                   Z               Mass
    ------------   -----------------  -----------------  -----------------  -----------------
      Gh(K)           0.000000000000     0.000000000000     0.000000000000    38.963706486400
      Gh(O)           0.193604000000     2.456516000000    -0.745826000000    15.994914619570
      Gh(H)           1.027191000000     2.951756000000    -0.793227000000     1.007825032230
      Gh(H)          -0.562560000000     3.072946000000    -0.858144000000     1.007825032230
      Gh(O)          -1.232242000000    -2.233013000000     0.683210000000    15.994914619570
      Gh(H)          -1.372938000000    -2.937211000000    -0.025695000000     1.007825032230
      Gh(H)          -1.366802000000    -2.615033000000     1.557785000000     1.007825032230
      Gh(O)           2.594873000000     0.295506000000     0.744422000000    15.994914619570
      Gh(H)           2.858332000000     1.115974000000     1.121168000000     1.007825032230
      Gh(H)           3.402181000000    -0.102967000000     0.308189000000     1.007825032230
      Gh(O)           0.305749000000    -1.494227000000    -2.346204000000    15.994914619570
      Gh(H)          -0.487855000000    -1.900339000000    -2.732699000000     1.007825032230
      Gh(H)           0.656706000000    -2.159673000000    -1.779934000000     1.007825032230
      Gh(O)           0.354684000000     0.631866000000     2.696786000000    15.994914619570
      Gh(H)           0.743905000000     1.438358000000     3.041235000000     1.007825032230
      Gh(H)           0.890030000000    -0.053433000000     3.042617000000     1.007825032230
         O           -2.758490000000     0.097649000000    -0.258778000000    15.994914619570
         H           -3.113201000000     0.864523000000    -0.650413000000     1.007825032230
         H           -2.526952000000     0.402207000000     0.644990000000     1.007825032230

  Charge       = 0
  Multiplicity = 1
  Basis Set: AUG-CC-PVTZ
    Blend: AUG-CC-PVTZ
  Basis Set: (AUG-CC-PVTZ AUX)
    Blend: AUG-CC-PVTZ-JKFIT + DEF2-UNIVERSAL-JKFIT

    Orbital Energies [Eh]
    ---------------------

    Doubly Occupied:

       1A    -20.567473     2A     -1.355827     3A     -0.715086
       4A     -0.588163     5A     -0.510951

  @DF-RHF Final Energy:   -76.05930047958907

   => Energetics <=

    Nuclear Repulsion Energy =              9.2133194756917920
    One-Electron Energy =                -123.0702349971536620
    Two-Electron Energy =                  37.7976150418728167
    Total Energy =                        -76.0593004795890550
 Dipole X            :         52.2753739          -52.3606694           -0.0852955
 Dipole Y            :         -3.1574698            3.8700117            0.7125419
 Dipole Z            :          4.2537380           -3.9224044            0.3313336
 Magnitude           :                                                    0.7904260
  Basis Set: (AUG-CC-PVTZ AUX)
    Blend: AUG-CC-PVTZ-RI + DEF2-QZVPP-RI
	 Reference Energy          =     -76.0593004795890693 [Eh]
	 Singles Energy            =      -0.0000000000000000 [Eh]
	 Same-Spin Energy          =      -0.0684044080488306 [Eh]
	 Opposite-Spin Energy      =      -0.2157153832652492 [Eh]
	 Correlation Energy        =      -0.2841197913140799 [Eh]
	 Total Energy              =     -76.3434202709031524 [Eh]

	 ================> DF-SCS-MP2 Energies <==================
	-----------------------------------------------------------
	 SCS Same-Spin Scale       =       0.3333333333333333 [-]
	 SCS Opposite-Spin Scale   =       1.2000000000000000 [-]
	 SCS Same-Spin Energy      =      -0.0228014693496102 [Eh]
	 SCS Opposite-Spin Energy  =      -0.2588584599182991 [Eh]
	 SCS Correlation Energy    =      -0.2816599292679093 [Eh]
	 SCS Total Energy          =     -76.3409604088569722 [Eh]
	-----------------------------------------------------------

*** Psi4 exiting successfully. Buy a developer a beer!
