                               Psi4 1.9 release

  ==> Input File <==

--------------------------------------------------------------------------
MEMORY 60 GB

molecule dimer {
1 1
K          0.000000     0.000000     0.000000
Gh(O)      0.681155     2.280734     1.579374
Gh(H)      1.434766     2.011871     2.145198
Gh(H)      0.845222     3.254319     1.420636
Gh(O)     -1.480588    -0.767019     2.170820
Gh(H)     -1.496644    -0.560012     3.066086
Gh(H)     -1.412629    -1.742263     2.240040
Gh(O)      0.032695    -2.723352     0.280396
Gh(H)     -0.173080    -3.362364    -0.391988
Gh(H)     -0.080478    -3.178871     1.104535
Gh(O)     -1.492386    -0.320905    -2.637511
Gh(H)     -2.319056    -0.727991    -2.799845
Gh(H)     -1.445518     0.545652    -3.153064
Gh(O)      1.881515    -0.602297    -1.732872
Gh(H)      1.948772     0.342778    -2.034686
Gh(H)      1.337631    -1.036198    -2.474607

units ang
no_reorient
no_com
symmetry c1
}

set {
basis        aug-cc-pVTZ
scf_type     df
}

energy("mp2")
--------------------------------------------------------------------------

    Molecular point group: c1

    Geometry (in Angstrom), charge = 1, multiplicity = 1:

       Center              X                  Y                   Z               Mass
    ------------   -----------------  -----------------  -----------------  -----------------
         K            0.000000000000     0.000000000000     0.000000000000    38.963706486400
      Gh(O)           0.681155000000     2.280734000000     1.579374000000    15.994914619570
      Gh(H)           1.434766000000     2.011871000000     2.145198000000     1.007825032230
      Gh(H)           0.845222000000     3.254319000000     1.420636000000     1.007825032230
      Gh(O)          -1.480588000000    -0.767019000000     2.170820000000    15.994914619570
      Gh(H)          -1.496644000000    -0.560012000000     3.066086000000     1.007825032230
      Gh(H)          -1.412629000000    -1.742263000000     2.240040000000     1.007825032230
      Gh(O)           0.032695000000    -2.723352000000     0.280396000000    15.994914619570
      Gh(H)          -0.173080000000    -3.362364000000    -0.391988000000     1.007825032230
      Gh(H)          -0.080478000000    -3.178871000000     1.104535000000     1.007825032230
      Gh(O)          -1.492386000000    -0.320905000000    -2.637511000000    15.994914619570
      Gh(H)          -2.319056000000    -0.727991000000    -2.799845000000     1.007825032230
      Gh(H)          -1.445518000000     0.545652000000    -3.153064000000     1.007825032230
      Gh(O)           1.881515000000    -0.602297000000    -1.732872000000    15.994914619570
      Gh(H)           1.948772000000     0.342778000000    -2.034686000000     1.007825032230
      Gh(H)           1.337631000000    -1.036198000000    -2.474607000000     1.007825032230

  Charge       = 1
  Multiplicity = 1
  Basis Set: AUG-CC-PVTZ
    Blend: AUG-CC-PVTZ
  Basis Set: (AUG-CC-PVTZ AUX)
    Blend: AUG-CC-PVTZ-JKFIT + DEF2-UNIVERSAL-JKFIT

    Orbital Energies [Eh]
    ---------------------

    Doubly Occupied:

       1A   -133.752663     2A    -14.708328     3A    -11.738389
       4A    -11.738388     5A    -11.738387     6A     -1.963943
       7A     -1.170649     8A     -1.170635     9A     -1.170609

  @DF-RHF Final Energy:  -599.01751565845029

   => Energetics <=

    Nuclear Repulsion Energy =              0.0000000000000000
    One-Electron Energy =                -819.7310514958680869
    Two-Electron Energy =                 220.7135358374177940
    Total Energy =                       -599.0175156584502929
 Dipole X            :          0.0000337            0.0000000            0.0000337
 Dipole Y            :         -0.0001398            0.0000000           -0.0001398
 Dipole Z            :         -0.0000554            0.0000000           -0.0000554
 Magnitude           :                                                    0.0001541
  Basis Set: (AUG-CC-PVTZ AUX)
    Blend: AUG-CC-PVTZ-RI + DEF2-QZVPP-RI
	 Reference Energy          =    -599.0175156584502929 [Eh]
	 Singles Energy            =      -0.0000000000000000 [Eh]
	 Same-Spin Energy          =      -0.0365145625475089 [Eh]
	 Opposite-Spin Energy      =      -0.0886697326638458 [Eh]
	 Correlation Energy        =      -0.1251842952113547 [Eh]
	 Total Energy              =    -599.1426999536616904 [Eh]

	 ================> DF-SCS-MP2 Energies <==================
	-----------------------------------------------------------
	 SCS Same-Spin Scale       =       0.3333333333333333 [-]
	 SCS Opposite-Spin Scale   =       1.2000000000000000 [-]
	 SCS Same-Spin Energy      =      -0.0121715208491696 [Eh]
	 SCS Opposite-Spin Energy  =      -0.1064036791966150 [Eh]
	 SCS Correlation Energy    =      -0.1185752000457846 [Eh]
	 SCS Total Energy          =    -599.1360908584961180 [Eh]
	-----------------------------------------------------------

*** Psi4 exiting successfully. Buy a developer a beer!
