                               Psi4 1.9 release

  ==> Input File <==

--------------------------------------------------------------------------
MEMORY 60 GB

molecule dimer {
1 1
K      0.000000     0.000000     0.000000
--
0 1
O      1.649798    -2.297513     0.068375
H      0.966347    -3.009432     0.268920
H      2.415982    -2.455505     0.666808
O     -1.651512     1.316542     1.618952
H     -2.531349     1.240121     2.010840
H     -1.216179     2.096571     2.037483
O     -2.184128    -0.807746    -0.773576
H     -2.827219    -1.529499    -0.681704
H     -2.210682    -0.412574    -1.661052
O      1.487946     1.247924     2.225563
H      1.142883     1.150397     3.114392
H      2.490161     1.303890     2.274317

units ang
no_reorient
no_com
symmetry c1
}

set {
basis        aug-cc-pVTZ
scf_type     df
}

energy("mp2", bsse_type="cp")
--------------------------------------------------------------------------

                               Psi4 1.9 release
    Molecular point group: c1
  Charge       = 0
  Multiplicity = 1
  Basis Set: AUG-CC-PVTZ
    Blend: AUG-CC-PVTZ
  Basis Set: (AUG-CC-PVTZ AUX)
    Blend: AUG-CC-PVTZ-JKFIT + DEF2-UNIVERSAL-JKFIT
  @DF-RHF Final Energy:  -304.21930566032239
    Total Energy =                       -304.2193056603223908
 Dipole X            :         13.6613510          -13.8955795           -0.2342285
 Dipole Y            :         10.8839965          -11.2294613           -0.3454648
 Dipole Z            :        -61.5513530           62.6340578            1.0827048
 Magnitude           :                                                    1.1603701
  Basis Set: (AUG-CC-PVTZ AUX)
    Blend: AUG-CC-PVTZ-RI + DEF2-QZVPP-RI
	 Reference Energy          =    -304.2193056603223908 [Eh]
	 Singles Energy            =      -0.0000000000000000 [Eh]
	 Same-Spin Energy          =      -0.2762942188605677 [Eh]
	 Opposite-Spin Energy      =      -0.8682826347573585 [Eh]
	 Correlation Energy        =      -1.1445768536179262 [Eh]
	 Total Energy              =    -305.3638825139403252 [Eh]
	 SCS Total Energy          =    -305.3533428949847348 [Eh]
                               Psi4 1.9 release
    Molecular point group: c1
  Multiplicity = 1
  Basis Set: AUG-CC-PVTZ
    Blend: AUG-CC-PVTZ
  Basis Set: (AUG-CC-PVTZ AUX)
    Blend: AUG-CC-PVTZ-JKFIT + DEF2-UNIVERSAL-JKFIT
  @DF-RHF Final Energy:  -599.01751418880485
    Total Energy =                       -599.0175141888048529
  Basis Set: (AUG-CC-PVTZ AUX)
	 Singles Energy            =      -0.0000000000000000 [Eh]
	 Same-Spin Energy          =      -0.0353221150969296 [Eh]
	 Opposite-Spin Energy      =      -0.0855162737134709 [Eh]
	 Correlation Energy        =      -0.1208383888104004 [Eh]
	 Total Energy              =    -599.1383525776152510 [Eh]
	 SCS Total Energy          =    -599.1319077556266848 [Eh]
                               Psi4 1.9 release
    Molecular point group: c1

    Geometry (in Bohr), charge = 1, multiplicity = 1:

       Center              X                  Y                   Z               Mass
    ------------   -----------------  -----------------  -----------------  -----------------
         K            0.000000000000     0.000000000000     0.000000000000    38.963706486400
         O            3.117666382328    -4.341670339679     0.129210023828    15.994914619570
         H            1.826131172158    -5.687002273189     0.508185149658     1.007825032230
         H            4.565544304036    -4.640231949692     1.260084498264     1.007825032230
         O           -3.120905372907     2.487903812663     3.059375890262    15.994914619570
         H           -4.783556337952     2.343489052429     3.799936882116     1.007825032230
         H           -2.298245229533     3.961944992577     3.850284855276     1.007825032230
         O           -4.127403742944    -1.526418718934    -1.461846777227    15.994914619570
         H           -5.342669606691    -2.890334219162    -1.288233858629     1.007825032230
         H           -4.177583530479    -0.779651866485    -3.138933360144     1.007825032230
         O            2.811810429470     2.358234585386     4.205704544952    15.994914619570
         H            2.159735863442     2.173935265548     5.885347927317     1.007825032230
         H            4.705722298296     2.463994997723     4.297836252473     1.007825032230

  Charge       = 1
  Multiplicity = 1
  Basis Set: AUG-CC-PVTZ
    Blend: AUG-CC-PVTZ
  Basis Set: (AUG-CC-PVTZ AUX)
    Blend: AUG-CC-PVTZ-JKFIT + DEF2-UNIVERSAL-JKFIT

    Orbital Energies [Eh]
    ---------------------

    Doubly Occupied:

       1A   -133.613604     2A    -20.724582     3A    -20.716275
       4A    -20.713066     5A    -20.711162     6A    -14.571665
       7A    -11.601617     8A    -11.601442     9A    -11.601364
      10A     -1.835306    11A     -1.507379    12A     -1.488617
      13A     -1.484416    14A     -1.479398    15A     -1.046775
      16A     -1.046454    17A     -1.043438    18A     -0.885996
      19A     -0.860893    20A     -0.852648    21A     -0.846962
      22A     -0.741649    23A     -0.728793    24A     -0.723900
      25A     -0.723051    26A     -0.672743    27A     -0.656239
      28A     -0.654645    29A     -0.652861

  @DF-RHF Final Energy:  -903.31970309438589

   => Energetics <=

    Nuclear Repulsion Energy =            254.8814109251088951
    One-Electron Energy =               -1744.8283379161171069
    Two-Electron Energy =                 586.6272238966223540
    Total Energy =                       -903.3197030943858863
 Dipole X            :         13.4723307          -13.8955795           -0.4232488
 Dipole Y            :         10.7834387          -11.2294613           -0.4460226
 Dipole Z            :        -61.2372600           62.6340578            1.3967978
 Magnitude           :                                                    1.5261454
  Basis Set: (AUG-CC-PVTZ AUX)
    Blend: AUG-CC-PVTZ-RI + DEF2-QZVPP-RI
	 Reference Energy          =    -903.3197030943858863 [Eh]
	 Singles Energy            =      -0.0000000000000000 [Eh]
	 Same-Spin Energy          =      -0.3144015212910167 [Eh]
	 Opposite-Spin Energy      =      -0.9530067258193651 [Eh]
	 Correlation Energy        =      -1.2674082471103818 [Eh]
	 Total Energy              =    -904.5871113414963247 [Eh]

	 ================> DF-SCS-MP2 Energies <==================
	-----------------------------------------------------------
	 SCS Same-Spin Scale       =       0.3333333333333333 [-]
	 SCS Opposite-Spin Scale   =       1.2000000000000000 [-]
	 SCS Same-Spin Energy      =      -0.1048005070970056 [Eh]
	 SCS Opposite-Spin Energy  =      -1.1436080709832381 [Eh]
	 SCS Correlation Energy    =      -1.2484085780802436 [Eh]
	 SCS Total Energy          =    -904.5681116724661024 [Eh]
	-----------------------------------------------------------

*** Psi4 exiting successfully. Buy a developer a beer!
