                               Psi4 1.9 release

  ==> Input File <==

--------------------------------------------------------------------------
MEMORY 60 GB

molecule dimer {
1 1
K          0.000000     0.000000     0.000000
O         -1.333192     2.296700    -0.143276
H         -1.880572     2.324349     0.647278
H         -0.939747     3.150442    -0.123998
O          1.513983    -2.323742    -0.943847
H          2.366267    -2.226553    -1.343372
H          0.936856    -2.841776    -1.569285
O         -2.132906    -0.990787    -1.068623
H         -2.264157    -1.131510    -1.972940
H         -2.972426    -0.581761    -0.773426
O         -1.301569    -1.185610     1.910969
H         -1.209146    -1.149223     2.904024
H         -2.251409    -1.284523     1.765089
O         -0.090714     1.371623     2.527585
H          0.344682     2.259132     2.564693
H         -0.971008     1.365010     2.948526
O          1.429543     1.188070    -2.089276
H          2.048565     0.859537    -2.779898
H          1.883227     1.964633    -1.731157

units ang
no_reorient
no_com
symmetry c1
}

set {
basis        aug-cc-pVTZ
scf_type     df
}

energy("mp2")
--------------------------------------------------------------------------

    Molecular point group: c1

    Geometry (in Angstrom), charge = 1, multiplicity = 1:

       Center              X                  Y                   Z               Mass
    ------------   -----------------  -----------------  -----------------  -----------------
         K            0.000000000000     0.000000000000     0.000000000000    38.963706486400
         O           -1.333192000000     2.296700000000    -0.143276000000    15.994914619570
         H           -1.880572000000     2.324349000000     0.647278000000     1.007825032230
         H           -0.939747000000     3.150442000000    -0.123998000000     1.007825032230
         O            1.513983000000    -2.323742000000    -0.943847000000    15.994914619570
         H            2.366267000000    -2.226553000000    -1.343372000000     1.007825032230
         H            0.936856000000    -2.841776000000    -1.569285000000     1.007825032230
         O           -2.132906000000    -0.990787000000    -1.068623000000    15.994914619570
         H           -2.264157000000    -1.131510000000    -1.972940000000     1.007825032230
         H           -2.972426000000    -0.581761000000    -0.773426000000     1.007825032230
         O           -1.301569000000    -1.185610000000     1.910969000000    15.994914619570
         H           -1.209146000000    -1.149223000000     2.904024000000     1.007825032230
         H           -2.251409000000    -1.284523000000     1.765089000000     1.007825032230
         O           -0.090714000000     1.371623000000     2.527585000000    15.994914619570
         H            0.344682000000     2.259132000000     2.564693000000     1.007825032230
         H           -0.971008000000     1.365010000000     2.948526000000     1.007825032230
         O            1.429543000000     1.188070000000    -2.089276000000    15.994914619570
         H            2.048565000000     0.859537000000    -2.779898000000     1.007825032230
         H            1.883227000000     1.964633000000    -1.731157000000     1.007825032230

  Charge       = 1
  Multiplicity = 1
  Basis Set: AUG-CC-PVTZ
    Blend: AUG-CC-PVTZ
  Basis Set: (AUG-CC-PVTZ AUX)
    Blend: AUG-CC-PVTZ-JKFIT + DEF2-UNIVERSAL-JKFIT

    Orbital Energies [Eh]
    ---------------------

    Doubly Occupied:

       1A   -133.563129     2A    -20.705553     3A    -20.705152
       4A    -20.704365     5A    -20.703332     6A    -20.703154
       7A    -20.687079     8A    -14.521671     9A    -11.551503
      10A    -11.551398    11A    -11.551370    12A     -1.787107
      13A     -1.502092    14A     -1.500712    15A     -1.480944
      16A     -1.480016    17A     -1.475071    18A     -1.465586
      19A     -1.000968    20A     -0.997806    21A     -0.997574
      22A     -0.863536    23A     -0.861541    24A     -0.855272
      25A     -0.840083    26A     -0.836938    27A     -0.836656
      28A     -0.739191    29A     -0.736000    30A     -0.725518
      31A     -0.719205    32A     -0.708176    33A     -0.699970
      34A     -0.666356    35A     -0.655327    36A     -0.646524
      37A     -0.644707    38A     -0.637200    39A     -0.629866

  @DF-RHF Final Energy: -1055.45548195384663

   => Energetics <=

    Nuclear Repulsion Energy =            461.1791687642217994
    One-Electron Energy =               -2365.3939954801890053
    Two-Electron Energy =                 848.7593447621206906
    Total Energy =                      -1055.4554819538466290
 Dipole X            :         37.3845145          -38.2248283           -0.8403137
 Dipole Y            :         -9.2067041           10.5026991            1.2959950
 Dipole Z            :         -3.8993352            3.9377924            0.0384572
 Magnitude           :                                                    1.5450596
  Basis Set: (AUG-CC-PVTZ AUX)
    Blend: AUG-CC-PVTZ-RI + DEF2-QZVPP-RI
	 Reference Energy          =   -1055.4554819538466290 [Eh]
	 Singles Energy            =      -0.0000000000000000 [Eh]
	 Same-Spin Energy          =      -0.4578695817323316 [Eh]
	 Opposite-Spin Energy      =      -1.3968194826156428 [Eh]
	 Correlation Energy        =      -1.8546890643479745 [Eh]
	 Total Energy              =   -1057.3101710181945236 [Eh]

	 ================> DF-SCS-MP2 Energies <==================
	-----------------------------------------------------------
	 SCS Same-Spin Scale       =       0.3333333333333333 [-]
	 SCS Opposite-Spin Scale   =       1.2000000000000000 [-]
	 SCS Same-Spin Energy      =      -0.1526231939107772 [Eh]
	 SCS Opposite-Spin Energy  =      -1.6761833791387712 [Eh]
	 SCS Correlation Energy    =      -1.8288065730495484 [Eh]
	 SCS Total Energy          =   -1057.2842885268962618 [Eh]
	-----------------------------------------------------------

*** Psi4 exiting successfully. Buy a developer a beer!
