                               Psi4 1.9 release

  ==> Input File <==

--------------------------------------------------------------------------
MEMORY 60 GB

molecule dimer {
0 1
Gh(K)      0.000000     0.000000     0.000000
Gh(O)     -2.788678     0.406415     0.653974
Gh(H)     -3.199869     0.958424    -0.018216
Gh(H)     -2.648871     0.994298     1.339656
Gh(O)     -0.538075    -0.007256    -2.587985
Gh(H)     -1.178974     0.573219    -3.036130
Gh(H)     -0.622551    -0.842304    -3.100694
Gh(O)      1.217666    -2.504639    -1.246697
Gh(H)      2.075220    -2.521579    -1.694555
Gh(H)      1.096683    -3.374284    -0.758390
O         -0.231617     1.394607     2.438855
H         -0.561266     2.289091     2.589398
H          0.557946     1.311939     2.977921
Gh(O)      2.575424     0.453046    -0.769981
Gh(H)      2.519390    -0.471796    -0.995216
Gh(H)      3.471222     0.584527    -0.443942

units ang
no_reorient
no_com
symmetry c1
}

set {
basis        aug-cc-pVTZ
scf_type     df
}

energy("mp2")
--------------------------------------------------------------------------

    Molecular point group: c1

    Geometry (in Angstrom), charge = 0, multiplicity = 1:

       Center              X                  Y                   Z               Mass
    ------------   -----------------  -----------------  -----------------  -----------------
      Gh(K)           0.000000000000     0.000000000000     0.000000000000    38.963706486400
      Gh(O)          -2.788678000000     0.406415000000     0.653974000000    15.994914619570
      Gh(H)          -3.199869000000     0.958424000000    -0.018216000000     1.007825032230
      Gh(H)          -2.648871000000     0.994298000000     1.339656000000     1.007825032230
      Gh(O)          -0.538075000000    -0.007256000000    -2.587985000000    15.994914619570
      Gh(H)          -1.178974000000     0.573219000000    -3.036130000000     1.007825032230
      Gh(H)          -0.622551000000    -0.842304000000    -3.100694000000     1.007825032230
      Gh(O)           1.217666000000    -2.504639000000    -1.246697000000    15.994914619570
      Gh(H)           2.075220000000    -2.521579000000    -1.694555000000     1.007825032230
      Gh(H)           1.096683000000    -3.374284000000    -0.758390000000     1.007825032230
         O           -0.231617000000     1.394607000000     2.438855000000    15.994914619570
         H           -0.561266000000     2.289091000000     2.589398000000     1.007825032230
         H            0.557946000000     1.311939000000     2.977921000000     1.007825032230
      Gh(O)           2.575424000000     0.453046000000    -0.769981000000    15.994914619570
      Gh(H)           2.519390000000    -0.471796000000    -0.995216000000     1.007825032230
      Gh(H)           3.471222000000     0.584527000000    -0.443942000000     1.007825032230

  Charge       = 0
  Multiplicity = 1
  Basis Set: AUG-CC-PVTZ
    Blend: AUG-CC-PVTZ
  Basis Set: (AUG-CC-PVTZ AUX)
    Blend: AUG-CC-PVTZ-JKFIT + DEF2-UNIVERSAL-JKFIT

    Orbital Energies [Eh]
    ---------------------

    Doubly Occupied:

       1A    -20.567379     2A     -1.349951     3A     -0.717546
       4A     -0.581288     5A     -0.509499

  @DF-RHF Final Energy:   -76.06030495423913

   => Energetics <=

    Nuclear Repulsion Energy =              9.1426911656250329
    One-Electron Energy =                -122.9546636137009727
    Two-Electron Energy =                  37.7516674938368055
    Total Energy =                        -76.0603049542391290
 Dipole X            :          3.8145268           -3.5078155            0.3067113
 Dipole Y            :        -27.3485514           27.8883627            0.5398113
 Dipole Z            :        -46.9313912           47.3908522            0.4594610
 Magnitude           :                                                    0.7723810
  Basis Set: (AUG-CC-PVTZ AUX)
    Blend: AUG-CC-PVTZ-RI + DEF2-QZVPP-RI
	 Reference Energy          =     -76.0603049542391290 [Eh]
	 Singles Energy            =      -0.0000000000000000 [Eh]
	 Same-Spin Energy          =      -0.0684456598930296 [Eh]
	 Opposite-Spin Energy      =      -0.2157137519000489 [Eh]
	 Correlation Energy        =      -0.2841594117930785 [Eh]
	 Total Energy              =     -76.3444643660322129 [Eh]

	 ================> DF-SCS-MP2 Energies <==================
	-----------------------------------------------------------
	 SCS Same-Spin Scale       =       0.3333333333333333 [-]
	 SCS Opposite-Spin Scale   =       1.2000000000000000 [-]
	 SCS Same-Spin Energy      =      -0.0228152199643432 [Eh]
	 SCS Opposite-Spin Energy  =      -0.2588565022800586 [Eh]
	 SCS Correlation Energy    =      -0.2816717222444018 [Eh]
	 SCS Total Energy          =     -76.3419766764835259 [Eh]
	-----------------------------------------------------------

*** Psi4 exiting successfully. Buy a developer a beer!
