                               Psi4 1.9 release

  ==> Input File <==

--------------------------------------------------------------------------
MEMORY 60 GB

molecule dimer {
1 1
K      0.000000     0.000000     0.000000
--
0 1
O     -1.578613    -2.113716     0.218354
H     -0.981947    -2.793452    -0.097712
H     -2.324957    -2.073157    -0.378677
O      1.295700    -2.515411    -0.325869
H      0.949642    -3.369730    -0.036852
H      2.279970    -2.442741    -0.095265
O      2.568601     0.147719    -0.427268
H      2.727281    -0.077392    -1.363704
H      3.370881     0.599596    -0.084938
O     -0.362166     2.669565     0.838638
H     -1.033657     3.293462     0.421097
H      0.445519     2.915189     0.370285

units ang
no_reorient
no_com
symmetry c1
}

set {
basis        aug-cc-pVTZ
scf_type     df
}

energy("mp2", bsse_type="cp")
--------------------------------------------------------------------------

                               Psi4 1.9 release
    Molecular point group: c1
  Charge       = 0
  Multiplicity = 1
  Basis Set: AUG-CC-PVTZ
    Blend: AUG-CC-PVTZ
  Basis Set: (AUG-CC-PVTZ AUX)
    Blend: AUG-CC-PVTZ-JKFIT + DEF2-UNIVERSAL-JKFIT
  @DF-RHF Final Energy:  -304.22014263266561
    Total Energy =                       -304.2201426326656701
 Dipole X            :        -38.2423744           39.3458138            1.1034394
 Dipole Y            :         34.7081793          -34.8521604           -0.1439811
 Dipole Z            :         -3.4115777            2.2016708           -1.2099070
 Magnitude           :                                                    1.6438321
  Basis Set: (AUG-CC-PVTZ AUX)
    Blend: AUG-CC-PVTZ-RI + DEF2-QZVPP-RI
	 Reference Energy          =    -304.2201426326656133 [Eh]
	 Singles Energy            =      -0.0000000000000000 [Eh]
	 Same-Spin Energy          =      -0.2769264980339574 [Eh]
	 Opposite-Spin Energy      =      -0.8689285398847193 [Eh]
	 Correlation Energy        =      -1.1458550379186767 [Eh]
	 Total Energy              =    -305.3659976705843064 [Eh]
	 SCS Total Energy          =    -305.3551657132052810 [Eh]
                               Psi4 1.9 release
    Molecular point group: c1
  Multiplicity = 1
  Basis Set: AUG-CC-PVTZ
    Blend: AUG-CC-PVTZ
  Basis Set: (AUG-CC-PVTZ AUX)
    Blend: AUG-CC-PVTZ-JKFIT + DEF2-UNIVERSAL-JKFIT
  @DF-RHF Final Energy:  -599.01751391521418
    Total Energy =                       -599.0175139152141810
  Basis Set: (AUG-CC-PVTZ AUX)
	 Singles Energy            =      -0.0000000000000000 [Eh]
	 Same-Spin Energy          =      -0.0348943423762607 [Eh]
	 Opposite-Spin Energy      =      -0.0846164667133421 [Eh]
	 Correlation Energy        =      -0.1195108090896028 [Eh]
	 Total Energy              =    -599.1370247243037284 [Eh]
	 SCS Total Energy          =    -599.1306851227288917 [Eh]
                               Psi4 1.9 release
    Molecular point group: c1

    Geometry (in Bohr), charge = 1, multiplicity = 1:

       Center              X                  Y                   Z               Mass
    ------------   -----------------  -----------------  -----------------  -----------------
         K            0.000000000000     0.000000000000     0.000000000000    38.963706486400
         O           -2.983146228087    -3.994344346998     0.412629258398    15.994914619570
         H           -1.855610899715    -5.278859224612    -0.184648919171     1.007825032230
         H           -4.393531983466    -3.917698945076    -0.715595820010     1.007825032230
         O            2.448518140756    -4.753437882964    -0.615803162777    15.994914619570
         H            1.794563297232    -6.367866816739    -0.069640187175     1.007825032230
         H            4.308518874260    -4.616111485427    -0.180024759342     1.007825032230
         O            4.853952415577     0.279148453527    -0.807419502172    15.994914619570
         H            5.153814157165    -0.146249684301    -2.577027076191     1.007825032230
         H            6.370041891509     1.133072225920    -0.160509557644     1.007825032230
         O           -0.684394551953     5.044746724108     1.584796138402    15.994914619570
         H           -1.953328637662     6.223741184603     0.795758002252     1.007825032230
         H            0.841908893688     5.508908813947     0.699737238365     1.007825032230

  Charge       = 1
  Multiplicity = 1
  Basis Set: AUG-CC-PVTZ
    Blend: AUG-CC-PVTZ
  Basis Set: (AUG-CC-PVTZ AUX)
    Blend: AUG-CC-PVTZ-JKFIT + DEF2-UNIVERSAL-JKFIT

    Orbital Energies [Eh]
    ---------------------

    Doubly Occupied:

       1A   -133.625000     2A    -20.737756     3A    -20.723812
       4A    -20.721163     5A    -20.715911     6A    -14.582911
       7A    -11.612891     8A    -11.612683     9A    -11.612640
      10A     -1.845863    11A     -1.514385    12A     -1.507321
      13A     -1.492208    14A     -1.491669    15A     -1.056903
      16A     -1.055867    17A     -1.053757    18A     -0.889517
      19A     -0.882784    20A     -0.859342    21A     -0.845698
      22A     -0.755361    23A     -0.738115    24A     -0.736524
      25A     -0.731166    26A     -0.683007    27A     -0.667904
      28A     -0.662773    29A     -0.660930

  @DF-RHF Final Energy:  -903.31329211410934

   => Energetics <=

    Nuclear Repulsion Energy =            257.0424025581377805
    One-Electron Energy =               -1748.5596574546027568
    Two-Electron Energy =                 588.2039627823555747
    Total Energy =                       -903.3132921141093448
 Dipole X            :        -38.0369258           39.3458138            1.3088880
 Dipole Y            :         34.5270894          -34.8521604           -0.3250710
 Dipole Z            :         -3.4050857            2.2016708           -1.2034150
 Magnitude           :                                                    1.8075028
  Basis Set: (AUG-CC-PVTZ AUX)
    Blend: AUG-CC-PVTZ-RI + DEF2-QZVPP-RI
	 Reference Energy          =    -903.3132921141093448 [Eh]
	 Singles Energy            =      -0.0000000000000000 [Eh]
	 Same-Spin Energy          =      -0.3146585568604144 [Eh]
	 Opposite-Spin Energy      =      -0.9532682431355147 [Eh]
	 Correlation Energy        =      -1.2679267999959292 [Eh]
	 Total Energy              =    -904.5812189141053068 [Eh]

	 ================> DF-SCS-MP2 Energies <==================
	-----------------------------------------------------------
	 SCS Same-Spin Scale       =       0.3333333333333333 [-]
	 SCS Opposite-Spin Scale   =       1.2000000000000000 [-]
	 SCS Same-Spin Energy      =      -0.1048861856201381 [Eh]
	 SCS Opposite-Spin Energy  =      -1.1439218917626177 [Eh]
	 SCS Correlation Energy    =      -1.2488080773827559 [Eh]
	 SCS Total Energy          =    -904.5621001914920498 [Eh]
	-----------------------------------------------------------

*** Psi4 exiting successfully. Buy a developer a beer!
