                               Psi4 1.9 release

  ==> Input File <==

--------------------------------------------------------------------------
MEMORY 60 GB

molecule dimer {
1 1
K          0.000000     0.000000     0.000000
O          1.222057     2.629778    -0.942752
H          2.033084     2.278229    -1.374565
H          1.530903     3.044932    -0.145782
O          1.418192     0.063385     2.461153
H          1.334880    -0.883214     2.511753
H          2.380928     0.237406     2.503441
O         -1.342006    -0.254400    -2.039800
H         -1.599213     0.440439    -2.740621
H         -1.348686    -1.184654    -2.470101
O         -2.518656    -0.508365     1.268620
H         -3.306194    -0.896204     0.868423
H         -2.210245    -1.248498     1.818523
O         -0.399968    -2.741441     0.315356
H         -0.976791    -3.128720     0.992102
H          0.291629    -3.407348     0.234052
O          2.429193    -0.853860    -1.110769
H          2.124910    -1.390245    -1.851640
H          2.833848    -0.050918    -1.580884

units ang
no_reorient
no_com
symmetry c1
}

set {
basis        aug-cc-pVTZ
scf_type     df
}

energy("mp2")
--------------------------------------------------------------------------

    Molecular point group: c1

    Geometry (in Angstrom), charge = 1, multiplicity = 1:

       Center              X                  Y                   Z               Mass
    ------------   -----------------  -----------------  -----------------  -----------------
         K            0.000000000000     0.000000000000     0.000000000000    38.963706486400
         O            1.222057000000     2.629778000000    -0.942752000000    15.994914619570
         H            2.033084000000     2.278229000000    -1.374565000000     1.007825032230
         H            1.530903000000     3.044932000000    -0.145782000000     1.007825032230
         O            1.418192000000     0.063385000000     2.461153000000    15.994914619570
         H            1.334880000000    -0.883214000000     2.511753000000     1.007825032230
         H            2.380928000000     0.237406000000     2.503441000000     1.007825032230
         O           -1.342006000000    -0.254400000000    -2.039800000000    15.994914619570
         H           -1.599213000000     0.440439000000    -2.740621000000     1.007825032230
         H           -1.348686000000    -1.184654000000    -2.470101000000     1.007825032230
         O           -2.518656000000    -0.508365000000     1.268620000000    15.994914619570
         H           -3.306194000000    -0.896204000000     0.868423000000     1.007825032230
         H           -2.210245000000    -1.248498000000     1.818523000000     1.007825032230
         O           -0.399968000000    -2.741441000000     0.315356000000    15.994914619570
         H           -0.976791000000    -3.128720000000     0.992102000000     1.007825032230
         H            0.291629000000    -3.407348000000     0.234052000000     1.007825032230
         O            2.429193000000    -0.853860000000    -1.110769000000    15.994914619570
         H            2.124910000000    -1.390245000000    -1.851640000000     1.007825032230
         H            2.833848000000    -0.050918000000    -1.580884000000     1.007825032230

  Charge       = 1
  Multiplicity = 1
  Basis Set: AUG-CC-PVTZ
    Blend: AUG-CC-PVTZ
  Basis Set: (AUG-CC-PVTZ AUX)
    Blend: AUG-CC-PVTZ-JKFIT + DEF2-UNIVERSAL-JKFIT

    Orbital Energies [Eh]
    ---------------------

    Doubly Occupied:

       1A   -133.580603     2A    -20.725810     3A    -20.723675
       4A    -20.718270     5A    -20.702175     6A    -20.701172
       7A    -20.698437     8A    -14.538970     9A    -11.568783
      10A    -11.568751    11A    -11.568667    12A     -1.803835
      13A     -1.509468    14A     -1.493160    15A     -1.484780
      16A     -1.483201    17A     -1.480630    18A     -1.470477
      19A     -1.016261    20A     -1.014547    21A     -1.013303
      22A     -0.867403    23A     -0.851549    24A     -0.849299
      25A     -0.844412    26A     -0.838761    27A     -0.833131
      28A     -0.752396    29A     -0.738325    30A     -0.723803
      31A     -0.721250    32A     -0.718083    33A     -0.716146
      34A     -0.670827    35A     -0.664504    36A     -0.655126
      37A     -0.646849    38A     -0.644763    39A     -0.640618

  @DF-RHF Final Energy: -1055.44312866604355

   => Energetics <=

    Nuclear Repulsion Energy =            452.0521716943175647
    One-Electron Energy =               -2346.5061497364240495
    Two-Electron Energy =                 839.0108493760628789
    Total Energy =                      -1055.4431286660435489
 Dipole X            :        -17.1365588           18.0649295            0.9283707
 Dipole Y            :         34.8543392          -36.8648132           -2.0104740
 Dipole Z            :          2.2109855           -3.0629342           -0.8519487
 Magnitude           :                                                    2.3726977
  Basis Set: (AUG-CC-PVTZ AUX)
    Blend: AUG-CC-PVTZ-RI + DEF2-QZVPP-RI
	 Reference Energy          =   -1055.4431286660435489 [Eh]
	 Singles Energy            =      -0.0000000000000000 [Eh]
	 Same-Spin Energy          =      -0.4584737069476346 [Eh]
	 Opposite-Spin Energy      =      -1.4008469296351298 [Eh]
	 Correlation Energy        =      -1.8593206365827644 [Eh]
	 Total Energy              =   -1057.3024493026262007 [Eh]

	 ================> DF-SCS-MP2 Energies <==================
	-----------------------------------------------------------
	 SCS Same-Spin Scale       =       0.3333333333333333 [-]
	 SCS Opposite-Spin Scale   =       1.2000000000000000 [-]
	 SCS Same-Spin Energy      =      -0.1528245689825448 [Eh]
	 SCS Opposite-Spin Energy  =      -1.6810163155621558 [Eh]
	 SCS Correlation Energy    =      -1.8338408845447007 [Eh]
	 SCS Total Energy          =   -1057.2769695505883192 [Eh]
	-----------------------------------------------------------

*** Psi4 exiting successfully. Buy a developer a beer!
