                               Psi4 1.9 release

  ==> Input File <==

--------------------------------------------------------------------------
MEMORY 60 GB

molecule dimer {
1 1
K      0.000000     0.000000     0.000000
--
0 1
O      2.647151     0.635208    -0.063948
H      3.176416     0.412019    -0.876904
H      2.688399     1.610574    -0.061644
O     -0.552549     2.635117    -0.327416
H     -1.025355     2.455382    -1.183466
H      0.041728     3.368381    -0.523783
O      0.103987    -2.445141    -1.042328
H      0.471228    -3.061895    -1.668102
H     -0.831370    -2.576863    -0.923120
O     -0.166398    -1.185570     2.324774
H      0.376489    -1.802467     2.829484
H     -0.728296    -0.765177     2.958806
O      0.808663     0.043536    -2.584883
H      0.577317    -0.776855    -3.083703
H      1.748074     0.235442    -2.782063

units ang
no_reorient
no_com
symmetry c1
}

set {
basis        aug-cc-pVTZ
scf_type     df
}

energy("mp2", bsse_type="cp")
--------------------------------------------------------------------------

                               Psi4 1.9 release
    Molecular point group: c1
  Charge       = 0
  Multiplicity = 1
  Basis Set: AUG-CC-PVTZ
    Blend: AUG-CC-PVTZ
  Basis Set: (AUG-CC-PVTZ AUX)
    Blend: AUG-CC-PVTZ-JKFIT + DEF2-UNIVERSAL-JKFIT
  @DF-RHF Final Energy:  -380.27545846134313
    Total Energy =                       -380.2754584613431348
 Dipole X            :        -54.7949205           55.2205602            0.4256397
 Dipole Y            :          6.2481864           -6.4935884           -0.2454021
 Dipole Z            :         34.5336382          -35.6495001           -1.1158619
 Magnitude           :                                                    1.2192371
  Basis Set: (AUG-CC-PVTZ AUX)
    Blend: AUG-CC-PVTZ-RI + DEF2-QZVPP-RI
	 Reference Energy          =    -380.2754584613431348 [Eh]
	 Singles Energy            =      -0.0000000000000000 [Eh]
	 Same-Spin Energy          =      -0.3454561121200785 [Eh]
	 Opposite-Spin Energy      =      -1.0847070017425819 [Eh]
	 Correlation Energy        =      -1.4301631138626605 [Eh]
	 Total Energy              =    -381.7056215752057824 [Eh]
	 SCS Total Energy          =    -381.6922589008075875 [Eh]
                               Psi4 1.9 release
    Molecular point group: c1
  Multiplicity = 1
  Basis Set: AUG-CC-PVTZ
    Blend: AUG-CC-PVTZ
  Basis Set: (AUG-CC-PVTZ AUX)
    Blend: AUG-CC-PVTZ-JKFIT + DEF2-UNIVERSAL-JKFIT
  @DF-RHF Final Energy:  -599.01751636316953
    Total Energy =                       -599.0175163631695341
  Basis Set: (AUG-CC-PVTZ AUX)
	 Singles Energy            =      -0.0000000000000000 [Eh]
	 Same-Spin Energy          =      -0.0376773977186126 [Eh]
	 Opposite-Spin Energy      =      -0.0920221746809776 [Eh]
	 Correlation Energy        =      -0.1296995723995902 [Eh]
	 Total Energy              =    -599.1472159355690792 [Eh]
	 SCS Total Energy          =    -599.1405021053595874 [Eh]
                               Psi4 1.9 release
    Molecular point group: c1

    Geometry (in Bohr), charge = 1, multiplicity = 1:

       Center              X                  Y                   Z               Mass
    ------------   -----------------  -----------------  -----------------  -----------------
         K            0.000000000000     0.000000000000     0.000000000000    38.963706486400
         O            5.002390402732     1.200369152700    -0.120844206271    15.994914619570
         H            6.002556300522     0.778603068485    -1.657108398318     1.007825032230
         H            5.080337825955     3.043543764783    -0.116490277278     1.007825032230
         O           -1.044166280896     4.979649438538    -0.618726569093    15.994914619570
         H           -1.937640131369     4.639999513379    -2.236426618791     1.007825032230
         H            0.078854491763     6.365317576196    -0.989806419171     1.007825032230
         O            0.196506950608    -4.620646828128    -1.969714452896    15.994914619570
         H            0.890491862647    -5.786142974909    -3.152255929328     1.007825032230
         H           -1.571061608922    -4.869565332826    -1.744443980933     1.007825032230
         O           -0.314446647824    -2.240402602559     4.393186163585    15.994914619570
         H            0.711461099247    -3.406168980176     5.346949836365     1.007825032230
         H           -1.376279978266    -1.445974967499     5.591332998361     1.007825032230
         O            1.528151597791     0.082271116598    -4.884720936352    15.994914619570
         H            1.090971017571    -1.468043189193    -5.827354122253     1.007825032230
         H            3.303381107034     0.444920898430    -5.257337133770     1.007825032230

  Charge       = 1
  Multiplicity = 1
  Basis Set: AUG-CC-PVTZ
    Blend: AUG-CC-PVTZ
  Basis Set: (AUG-CC-PVTZ AUX)
    Blend: AUG-CC-PVTZ-JKFIT + DEF2-UNIVERSAL-JKFIT

    Orbital Energies [Eh]
    ---------------------

    Doubly Occupied:

       1A   -133.591317     2A    -20.715618     3A    -20.714884
       4A    -20.713792     5A    -20.711337     6A    -20.706212
       7A    -14.549683     8A    -11.579565     9A    -11.579417
      10A    -11.579373    11A     -1.814500    12A     -1.504473
      13A     -1.498124    14A     -1.489839    15A     -1.489148
      16A     -1.486036    17A     -1.026679    18A     -1.025359
      19A     -1.024641    20A     -0.886015    21A     -0.863392
      22A     -0.857513    23A     -0.852507    24A     -0.840844
      25A     -0.738187    26A     -0.733624    27A     -0.732592
      28A     -0.728523    29A     -0.726654    30A     -0.671782
      31A     -0.659154    32A     -0.656353    33A     -0.654778
      34A     -0.645955

  @DF-RHF Final Energy:  -979.38828155017939

   => Energetics <=

    Nuclear Repulsion Energy =            357.3735952385818564
    One-Electron Energy =               -2053.4280102125894700
    Two-Electron Energy =                 716.6661334238282279
    Total Energy =                       -979.3882815501793857
 Dipole X            :        -54.4507227           55.2205602            0.7698375
 Dipole Y            :          6.1896721           -6.4935884           -0.3039163
 Dipole Z            :         34.3523634          -35.6495001           -1.2971366
 Magnitude           :                                                    1.5386937
  Basis Set: (AUG-CC-PVTZ AUX)
    Blend: AUG-CC-PVTZ-RI + DEF2-QZVPP-RI
	 Reference Energy          =    -979.3882815501793857 [Eh]
	 Singles Energy            =      -0.0000000000000000 [Eh]
	 Same-Spin Energy          =      -0.3867326025284568 [Eh]
	 Opposite-Spin Energy      =      -1.1761113508604253 [Eh]
	 Correlation Energy        =      -1.5628439533888820 [Eh]
	 Total Energy              =    -980.9511255035682780 [Eh]

	 ================> DF-SCS-MP2 Energies <==================
	-----------------------------------------------------------
	 SCS Same-Spin Scale       =       0.3333333333333333 [-]
	 SCS Opposite-Spin Scale   =       1.2000000000000000 [-]
	 SCS Same-Spin Energy      =      -0.1289108675094856 [Eh]
	 SCS Opposite-Spin Energy  =      -1.4113336210325103 [Eh]
	 SCS Correlation Energy    =      -1.5402444885419959 [Eh]
	 SCS Total Energy          =    -980.9285260387214294 [Eh]
	-----------------------------------------------------------

*** Psi4 exiting successfully. Buy a developer a beer!
