                               Psi4 1.9 release

  ==> Input File <==

--------------------------------------------------------------------------
MEMORY 60 GB

molecule dimer {
0 1
Gh(K)      0.000000     0.000000     0.000000
Gh(O)     -2.253676    -1.392416     0.421368
Gh(H)     -3.137956    -1.215387     0.063811
Gh(H)     -2.021472    -2.191510    -0.025516
O         -0.318217     0.409348    -2.718643
H          0.311346     1.085045    -3.064275
H         -0.323786    -0.455586    -3.131456
Gh(O)      1.052869    -1.442679     2.266862
Gh(H)      1.475362    -2.293476     2.206604
Gh(H)      1.643426    -0.997578     2.931710
Gh(O)      0.676884    -2.513134    -0.722992
Gh(H)     -0.026309    -3.165808    -0.916704
Gh(H)      1.255836    -2.918566    -0.007824

units ang
no_reorient
no_com
symmetry c1
}

set {
basis        aug-cc-pVTZ
scf_type     df
}

energy("mp2")
--------------------------------------------------------------------------

    Molecular point group: c1

    Geometry (in Angstrom), charge = 0, multiplicity = 1:

       Center              X                  Y                   Z               Mass
    ------------   -----------------  -----------------  -----------------  -----------------
      Gh(K)           0.000000000000     0.000000000000     0.000000000000    38.963706486400
      Gh(O)          -2.253676000000    -1.392416000000     0.421368000000    15.994914619570
      Gh(H)          -3.137956000000    -1.215387000000     0.063811000000     1.007825032230
      Gh(H)          -2.021472000000    -2.191510000000    -0.025516000000     1.007825032230
         O           -0.318217000000     0.409348000000    -2.718643000000    15.994914619570
         H            0.311346000000     1.085045000000    -3.064275000000     1.007825032230
         H           -0.323786000000    -0.455586000000    -3.131456000000     1.007825032230
      Gh(O)           1.052869000000    -1.442679000000     2.266862000000    15.994914619570
      Gh(H)           1.475362000000    -2.293476000000     2.206604000000     1.007825032230
      Gh(H)           1.643426000000    -0.997578000000     2.931710000000     1.007825032230
      Gh(O)           0.676884000000    -2.513134000000    -0.722992000000    15.994914619570
      Gh(H)          -0.026309000000    -3.165808000000    -0.916704000000     1.007825032230
      Gh(H)           1.255836000000    -2.918566000000    -0.007824000000     1.007825032230

  Charge       = 0
  Multiplicity = 1
  Basis Set: AUG-CC-PVTZ
    Blend: AUG-CC-PVTZ
  Basis Set: (AUG-CC-PVTZ AUX)
    Blend: AUG-CC-PVTZ-JKFIT + DEF2-UNIVERSAL-JKFIT

    Orbital Energies [Eh]
    ---------------------

    Doubly Occupied:

       1A    -20.562975     2A     -1.337112     3A     -0.732797
       4A     -0.556185     5A     -0.504762

  @DF-RHF Final Energy:   -76.05488685129185

   => Energetics <=

    Nuclear Repulsion Energy =              9.0275329279252841
    One-Electron Energy =                -122.7771744088739467
    Two-Electron Energy =                  37.6947546296568063
    Total Energy =                        -76.0548868512918546
 Dipole X            :          5.2631014           -4.8342520            0.4288493
 Dipole Y            :         -7.5106085            7.3779500           -0.1326585
 Dipole Z            :         52.2853063          -52.8081604           -0.5228541
 Magnitude           :                                                    0.6891200
  Basis Set: (AUG-CC-PVTZ AUX)
    Blend: AUG-CC-PVTZ-RI + DEF2-QZVPP-RI
	 Reference Energy          =     -76.0548868512918546 [Eh]
	 Singles Energy            =      -0.0000000000000000 [Eh]
	 Same-Spin Energy          =      -0.0685757345063363 [Eh]
	 Opposite-Spin Energy      =      -0.2157748970827545 [Eh]
	 Correlation Energy        =      -0.2843506315890908 [Eh]
	 Total Energy              =     -76.3392374828809466 [Eh]

	 ================> DF-SCS-MP2 Energies <==================
	-----------------------------------------------------------
	 SCS Same-Spin Scale       =       0.3333333333333333 [-]
	 SCS Opposite-Spin Scale   =       1.2000000000000000 [-]
	 SCS Same-Spin Energy      =      -0.0228585781687788 [Eh]
	 SCS Opposite-Spin Energy  =      -0.2589298764993054 [Eh]
	 SCS Correlation Energy    =      -0.2817884546680841 [Eh]
	 SCS Total Energy          =     -76.3366753059599432 [Eh]
	-----------------------------------------------------------

*** Psi4 exiting successfully. Buy a developer a beer!
