                               Psi4 1.9 release

  ==> Input File <==

--------------------------------------------------------------------------
MEMORY 60 GB

molecule dimer {
1 1
K          0.000000     0.000000     0.000000
Gh(O)      1.071555     0.954094    -2.190576
Gh(H)      0.988044     0.627626    -3.082246
Gh(H)      2.033843     1.175330    -2.123700
Gh(O)      0.274950    -2.378870     1.386517
Gh(H)      1.061758    -2.885643     1.678485
Gh(H)     -0.286488    -2.176641     2.185497
Gh(O)     -2.600308    -0.631598     1.158703
Gh(H)     -3.127240     0.272988     1.162722
Gh(H)     -3.320091    -1.304406     1.282020
Gh(O)      1.663337     0.245190     1.974484
Gh(H)      1.864456    -0.680749     1.983483
Gh(H)      0.980603     0.492300     2.612029
Gh(O)     -1.135864     2.411578    -0.478100
Gh(H)     -1.659332     3.079461    -0.022507
Gh(H)     -0.274050     2.843524    -0.678120

units ang
no_reorient
no_com
symmetry c1
}

set {
basis        aug-cc-pVTZ
scf_type     df
}

energy("mp2")
--------------------------------------------------------------------------

    Molecular point group: c1

    Geometry (in Angstrom), charge = 1, multiplicity = 1:

       Center              X                  Y                   Z               Mass
    ------------   -----------------  -----------------  -----------------  -----------------
         K            0.000000000000     0.000000000000     0.000000000000    38.963706486400
      Gh(O)           1.071555000000     0.954094000000    -2.190576000000    15.994914619570
      Gh(H)           0.988044000000     0.627626000000    -3.082246000000     1.007825032230
      Gh(H)           2.033843000000     1.175330000000    -2.123700000000     1.007825032230
      Gh(O)           0.274950000000    -2.378870000000     1.386517000000    15.994914619570
      Gh(H)           1.061758000000    -2.885643000000     1.678485000000     1.007825032230
      Gh(H)          -0.286488000000    -2.176641000000     2.185497000000     1.007825032230
      Gh(O)          -2.600308000000    -0.631598000000     1.158703000000    15.994914619570
      Gh(H)          -3.127240000000     0.272988000000     1.162722000000     1.007825032230
      Gh(H)          -3.320091000000    -1.304406000000     1.282020000000     1.007825032230
      Gh(O)           1.663337000000     0.245190000000     1.974484000000    15.994914619570
      Gh(H)           1.864456000000    -0.680749000000     1.983483000000     1.007825032230
      Gh(H)           0.980603000000     0.492300000000     2.612029000000     1.007825032230
      Gh(O)          -1.135864000000     2.411578000000    -0.478100000000    15.994914619570
      Gh(H)          -1.659332000000     3.079461000000    -0.022507000000     1.007825032230
      Gh(H)          -0.274050000000     2.843524000000    -0.678120000000     1.007825032230

  Charge       = 1
  Multiplicity = 1
  Basis Set: AUG-CC-PVTZ
    Blend: AUG-CC-PVTZ
  Basis Set: (AUG-CC-PVTZ AUX)
    Blend: AUG-CC-PVTZ-JKFIT + DEF2-UNIVERSAL-JKFIT

    Orbital Energies [Eh]
    ---------------------

    Doubly Occupied:

       1A   -133.752545     2A    -14.708239     3A    -11.738300
       4A    -11.738298     5A    -11.738297     6A     -1.963906
       7A     -1.170626     8A     -1.170603     9A     -1.170582

  @DF-RHF Final Energy:  -599.01751613981082

   => Energetics <=

    Nuclear Repulsion Energy =              0.0000000000000000
    One-Electron Energy =                -819.7322397378941332
    Two-Electron Energy =                 220.7147235980833671
    Total Energy =                       -599.0175161398108230
 Dipole X            :          0.0000529            0.0000000            0.0000529
 Dipole Y            :          0.0000712            0.0000000            0.0000712
 Dipole Z            :          0.0001130            0.0000000            0.0001130
 Magnitude           :                                                    0.0001436
  Basis Set: (AUG-CC-PVTZ AUX)
    Blend: AUG-CC-PVTZ-RI + DEF2-QZVPP-RI
	 Reference Energy          =    -599.0175161398108230 [Eh]
	 Singles Energy            =      -0.0000000000000000 [Eh]
	 Same-Spin Energy          =      -0.0376704383656744 [Eh]
	 Opposite-Spin Energy      =      -0.0920437995518471 [Eh]
	 Correlation Energy        =      -0.1297142379175216 [Eh]
	 Total Energy              =    -599.1472303777283059 [Eh]

	 ================> DF-SCS-MP2 Energies <==================
	-----------------------------------------------------------
	 SCS Same-Spin Scale       =       0.3333333333333333 [-]
	 SCS Opposite-Spin Scale   =       1.2000000000000000 [-]
	 SCS Same-Spin Energy      =      -0.0125568127885581 [Eh]
	 SCS Opposite-Spin Energy  =      -0.1104525594622166 [Eh]
	 SCS Correlation Energy    =      -0.1230093722507747 [Eh]
	 SCS Total Energy          =    -599.1405255120615720 [Eh]
	-----------------------------------------------------------

*** Psi4 exiting successfully. Buy a developer a beer!
