                               Psi4 1.9 release

  ==> Input File <==

--------------------------------------------------------------------------
MEMORY 60 GB

molecule dimer {
0 1
Gh(K)      0.000000     0.000000     0.000000
Gh(O)     -1.879920     2.131600     0.557926
Gh(H)     -2.648079     2.548980     0.056049
Gh(H)     -1.887437     2.455367     1.426203
O          1.152182     1.581044    -1.769112
H          1.909533     1.935900    -1.263555
H          1.466093     1.448690    -2.624702
Gh(O)      0.223121    -2.711640     0.645294
Gh(H)      0.828753    -2.906869     1.403819
Gh(H)     -0.563140    -3.220153     0.851557
Gh(O)      1.524854     2.013421     1.098941
Gh(H)      1.225291     2.922636     1.209810
Gh(H)      2.238959     2.172119     0.523577
Gh(O)     -0.474255    -1.111893    -2.327802
Gh(H)     -1.177610    -1.416111    -2.945593
Gh(H)      0.329445    -1.642755    -2.406746
Gh(O)     -2.305451    -0.792312     1.710421
Gh(H)     -2.440067    -1.648183     2.196214
Gh(H)     -2.692466    -0.773457     0.838942

units ang
no_reorient
no_com
symmetry c1
}

set {
basis        aug-cc-pVTZ
scf_type     df
}

energy("mp2")
--------------------------------------------------------------------------

    Molecular point group: c1

    Geometry (in Angstrom), charge = 0, multiplicity = 1:

       Center              X                  Y                   Z               Mass
    ------------   -----------------  -----------------  -----------------  -----------------
      Gh(K)           0.000000000000     0.000000000000     0.000000000000    38.963706486400
      Gh(O)          -1.879920000000     2.131600000000     0.557926000000    15.994914619570
      Gh(H)          -2.648079000000     2.548980000000     0.056049000000     1.007825032230
      Gh(H)          -1.887437000000     2.455367000000     1.426203000000     1.007825032230
         O            1.152182000000     1.581044000000    -1.769112000000    15.994914619570
         H            1.909533000000     1.935900000000    -1.263555000000     1.007825032230
         H            1.466093000000     1.448690000000    -2.624702000000     1.007825032230
      Gh(O)           0.223121000000    -2.711640000000     0.645294000000    15.994914619570
      Gh(H)           0.828753000000    -2.906869000000     1.403819000000     1.007825032230
      Gh(H)          -0.563140000000    -3.220153000000     0.851557000000     1.007825032230
      Gh(O)           1.524854000000     2.013421000000     1.098941000000    15.994914619570
      Gh(H)           1.225291000000     2.922636000000     1.209810000000     1.007825032230
      Gh(H)           2.238959000000     2.172119000000     0.523577000000     1.007825032230
      Gh(O)          -0.474255000000    -1.111893000000    -2.327802000000    15.994914619570
      Gh(H)          -1.177610000000    -1.416111000000    -2.945593000000     1.007825032230
      Gh(H)           0.329445000000    -1.642755000000    -2.406746000000     1.007825032230
      Gh(O)          -2.305451000000    -0.792312000000     1.710421000000    15.994914619570
      Gh(H)          -2.440067000000    -1.648183000000     2.196214000000     1.007825032230
      Gh(H)          -2.692466000000    -0.773457000000     0.838942000000     1.007825032230

  Charge       = 0
  Multiplicity = 1
  Basis Set: AUG-CC-PVTZ
    Blend: AUG-CC-PVTZ
  Basis Set: (AUG-CC-PVTZ AUX)
    Blend: AUG-CC-PVTZ-JKFIT + DEF2-UNIVERSAL-JKFIT

    Orbital Energies [Eh]
    ---------------------

    Doubly Occupied:

       1A    -20.564968     2A     -1.357779     3A     -0.724592
       4A     -0.584072     5A     -0.510761

  @DF-RHF Final Energy:   -76.05945713214979

   => Energetics <=

    Nuclear Repulsion Energy =              9.2786914272807230
    One-Electron Energy =                -123.1919493627106590
    Two-Electron Energy =                  37.8538008032801443
    Total Energy =                        -76.0594571321497881
 Dipole X            :        -23.0814657           23.7974761            0.7160104
 Dipole Y            :        -30.1514752           30.2978694            0.1463941
 Dipole Z            :         33.8493559          -34.0928382           -0.2434823
 Magnitude           :                                                    0.7703153
  Basis Set: (AUG-CC-PVTZ AUX)
    Blend: AUG-CC-PVTZ-RI + DEF2-QZVPP-RI
	 Reference Energy          =     -76.0594571321497881 [Eh]
	 Singles Energy            =      -0.0000000000000000 [Eh]
	 Same-Spin Energy          =      -0.0682341108577134 [Eh]
	 Opposite-Spin Energy      =      -0.2153446768738370 [Eh]
	 Correlation Energy        =      -0.2835787877315504 [Eh]
	 Total Energy              =     -76.3430359198813449 [Eh]

	 ================> DF-SCS-MP2 Energies <==================
	-----------------------------------------------------------
	 SCS Same-Spin Scale       =       0.3333333333333333 [-]
	 SCS Opposite-Spin Scale   =       1.2000000000000000 [-]
	 SCS Same-Spin Energy      =      -0.0227447036192378 [Eh]
	 SCS Opposite-Spin Energy  =      -0.2584136122486044 [Eh]
	 SCS Correlation Energy    =      -0.2811583158678422 [Eh]
	 SCS Total Energy          =     -76.3406154480176298 [Eh]
	-----------------------------------------------------------

*** Psi4 exiting successfully. Buy a developer a beer!
