                               Psi4 1.9 release

  ==> Input File <==

--------------------------------------------------------------------------
MEMORY 60 GB

molecule dimer {
1 1
K          0.000000     0.000000     0.000000
O         -1.879920     2.131600     0.557926
H         -2.648079     2.548980     0.056049
H         -1.887437     2.455367     1.426203
O          1.152182     1.581044    -1.769112
H          1.909533     1.935900    -1.263555
H          1.466093     1.448690    -2.624702
O          0.223121    -2.711640     0.645294
H          0.828753    -2.906869     1.403819
H         -0.563140    -3.220153     0.851557
O          1.524854     2.013421     1.098941
H          1.225291     2.922636     1.209810
H          2.238959     2.172119     0.523577
O         -0.474255    -1.111893    -2.327802
H         -1.177610    -1.416111    -2.945593
H          0.329445    -1.642755    -2.406746
O         -2.305451    -0.792312     1.710421
H         -2.440067    -1.648183     2.196214
H         -2.692466    -0.773457     0.838942

units ang
no_reorient
no_com
symmetry c1
}

set {
basis        aug-cc-pVTZ
scf_type     df
}

energy("mp2")
--------------------------------------------------------------------------

    Molecular point group: c1

    Geometry (in Angstrom), charge = 1, multiplicity = 1:

       Center              X                  Y                   Z               Mass
    ------------   -----------------  -----------------  -----------------  -----------------
         K            0.000000000000     0.000000000000     0.000000000000    38.963706486400
         O           -1.879920000000     2.131600000000     0.557926000000    15.994914619570
         H           -2.648079000000     2.548980000000     0.056049000000     1.007825032230
         H           -1.887437000000     2.455367000000     1.426203000000     1.007825032230
         O            1.152182000000     1.581044000000    -1.769112000000    15.994914619570
         H            1.909533000000     1.935900000000    -1.263555000000     1.007825032230
         H            1.466093000000     1.448690000000    -2.624702000000     1.007825032230
         O            0.223121000000    -2.711640000000     0.645294000000    15.994914619570
         H            0.828753000000    -2.906869000000     1.403819000000     1.007825032230
         H           -0.563140000000    -3.220153000000     0.851557000000     1.007825032230
         O            1.524854000000     2.013421000000     1.098941000000    15.994914619570
         H            1.225291000000     2.922636000000     1.209810000000     1.007825032230
         H            2.238959000000     2.172119000000     0.523577000000     1.007825032230
         O           -0.474255000000    -1.111893000000    -2.327802000000    15.994914619570
         H           -1.177610000000    -1.416111000000    -2.945593000000     1.007825032230
         H            0.329445000000    -1.642755000000    -2.406746000000     1.007825032230
         O           -2.305451000000    -0.792312000000     1.710421000000    15.994914619570
         H           -2.440067000000    -1.648183000000     2.196214000000     1.007825032230
         H           -2.692466000000    -0.773457000000     0.838942000000     1.007825032230

  Charge       = 1
  Multiplicity = 1
  Basis Set: AUG-CC-PVTZ
    Blend: AUG-CC-PVTZ
  Basis Set: (AUG-CC-PVTZ AUX)
    Blend: AUG-CC-PVTZ-JKFIT + DEF2-UNIVERSAL-JKFIT

    Orbital Energies [Eh]
    ---------------------

    Doubly Occupied:

       1A   -133.579182     2A    -20.709064     3A    -20.707036
       4A    -20.703945     5A    -20.703153     6A    -20.689809
       7A    -20.689103     8A    -14.537338     9A    -11.567260
      10A    -11.567104    11A    -11.567042    12A     -1.801413
      13A     -1.511336    14A     -1.499193    15A     -1.485672
      16A     -1.480713    17A     -1.472162    18A     -1.465634
      19A     -1.013907    20A     -1.012045    21A     -1.010807
      22A     -0.876853    23A     -0.860624    24A     -0.851757
      25A     -0.848503    26A     -0.845194    27A     -0.843292
      28A     -0.748608    29A     -0.731194    30A     -0.728054
      31A     -0.713057    32A     -0.706953    33A     -0.690839
      34A     -0.659016    35A     -0.656777    36A     -0.653645
      37A     -0.646280    38A     -0.634155    39A     -0.629212

  @DF-RHF Final Energy: -1055.44793276479686

   => Energetics <=

    Nuclear Repulsion Energy =            457.1541142623107135
    One-Electron Energy =               -2357.0102200336173155
    Two-Electron Energy =                 844.4081730065097418
    Total Energy =                      -1055.4479327647968603
 Dipole X            :         32.9333651          -33.0446524           -0.1112873
 Dipole Y            :        -20.4826099           20.3295300           -0.1530798
 Dipole Z            :          2.2074896           -2.6627772           -0.4552876
 Magnitude           :                                                    0.4930569
  Basis Set: (AUG-CC-PVTZ AUX)
    Blend: AUG-CC-PVTZ-RI + DEF2-QZVPP-RI
	 Reference Energy          =   -1055.4479327647968603 [Eh]
	 Singles Energy            =      -0.0000000000000000 [Eh]
	 Same-Spin Energy          =      -0.4569218452884130 [Eh]
	 Opposite-Spin Energy      =      -1.3946583769970000 [Eh]
	 Correlation Energy        =      -1.8515802222854130 [Eh]
	 Total Energy              =   -1057.2995129870823803 [Eh]

	 ================> DF-SCS-MP2 Energies <==================
	-----------------------------------------------------------
	 SCS Same-Spin Scale       =       0.3333333333333333 [-]
	 SCS Opposite-Spin Scale   =       1.2000000000000000 [-]
	 SCS Same-Spin Energy      =      -0.1523072817628043 [Eh]
	 SCS Opposite-Spin Energy  =      -1.6735900523964000 [Eh]
	 SCS Correlation Energy    =      -1.8258973341592044 [Eh]
	 SCS Total Energy          =   -1057.2738300989560685 [Eh]
	-----------------------------------------------------------

*** Psi4 exiting successfully. Buy a developer a beer!
