                               Psi4 1.9 release

  ==> Input File <==

--------------------------------------------------------------------------
MEMORY 60 GB

molecule dimer {
0 1
Gh(K)      0.000000     0.000000     0.000000
Gh(O)     -1.624696     1.170589    -1.773297
Gh(H)     -2.481887     0.884131    -1.505250
Gh(H)     -1.740444     1.131366    -2.691646
Gh(O)      1.825084     2.002345    -0.856271
Gh(H)      2.736729     1.760906    -0.931498
Gh(H)      1.835268     2.896585    -0.440370
O          2.864344    -0.844859     0.005723
H          2.698983    -1.133793    -0.900163
H          3.529909    -0.153569    -0.092673
Gh(O)      0.154222    -1.854253     2.188230
Gh(H)      0.676628    -2.434760     1.536156
Gh(H)      0.442297    -1.788222     3.119830
Gh(O)     -1.619276     1.879651     1.526773
Gh(H)     -1.466252     1.473301     2.383724
Gh(H)     -2.509648     2.026489     1.441369
Gh(O)     -0.827346    -1.993974    -1.708939
Gh(H)     -1.116939    -1.685994    -2.556826
Gh(H)     -1.616419    -2.415908    -1.284760

units ang
no_reorient
no_com
symmetry c1
}

set {
basis        aug-cc-pVTZ
scf_type     df
}

energy("mp2")
--------------------------------------------------------------------------

    Molecular point group: c1

    Geometry (in Angstrom), charge = 0, multiplicity = 1:

       Center              X                  Y                   Z               Mass
    ------------   -----------------  -----------------  -----------------  -----------------
      Gh(K)           0.000000000000     0.000000000000     0.000000000000    38.963706486400
      Gh(O)          -1.624696000000     1.170589000000    -1.773297000000    15.994914619570
      Gh(H)          -2.481887000000     0.884131000000    -1.505250000000     1.007825032230
      Gh(H)          -1.740444000000     1.131366000000    -2.691646000000     1.007825032230
      Gh(O)           1.825084000000     2.002345000000    -0.856271000000    15.994914619570
      Gh(H)           2.736729000000     1.760906000000    -0.931498000000     1.007825032230
      Gh(H)           1.835268000000     2.896585000000    -0.440370000000     1.007825032230
         O            2.864344000000    -0.844859000000     0.005723000000    15.994914619570
         H            2.698983000000    -1.133793000000    -0.900163000000     1.007825032230
         H            3.529909000000    -0.153569000000    -0.092673000000     1.007825032230
      Gh(O)           0.154222000000    -1.854253000000     2.188230000000    15.994914619570
      Gh(H)           0.676628000000    -2.434760000000     1.536156000000     1.007825032230
      Gh(H)           0.442297000000    -1.788222000000     3.119830000000     1.007825032230
      Gh(O)          -1.619276000000     1.879651000000     1.526773000000    15.994914619570
      Gh(H)          -1.466252000000     1.473301000000     2.383724000000     1.007825032230
      Gh(H)          -2.509648000000     2.026489000000     1.441369000000     1.007825032230
      Gh(O)          -0.827346000000    -1.993974000000    -1.708939000000    15.994914619570
      Gh(H)          -1.116939000000    -1.685994000000    -2.556826000000     1.007825032230
      Gh(H)          -1.616419000000    -2.415908000000    -1.284760000000     1.007825032230

  Charge       = 0
  Multiplicity = 1
  Basis Set: AUG-CC-PVTZ
    Blend: AUG-CC-PVTZ
  Basis Set: (AUG-CC-PVTZ AUX)
    Blend: AUG-CC-PVTZ-JKFIT + DEF2-UNIVERSAL-JKFIT

    Orbital Energies [Eh]
    ---------------------

    Doubly Occupied:

       1A    -20.568743     2A     -1.350156     3A     -0.712029
       4A     -0.584964     5A     -0.509939

  @DF-RHF Final Energy:   -76.06003226018193

   => Energetics <=

    Nuclear Repulsion Energy =              9.1236685305196801
    One-Electron Energy =                -122.9157371631316664
    Two-Electron Energy =                  37.7320363724300591
    Total Energy =                        -76.0600322601819272
 Dipole X            :        -54.7429966           55.0735055            0.3305089
 Dipole Y            :         15.4708592          -15.2051786            0.2656806
 Dipole Z            :          1.1265894           -1.7896689           -0.6630795
 Magnitude           :                                                    0.7870811
  Basis Set: (AUG-CC-PVTZ AUX)
    Blend: AUG-CC-PVTZ-RI + DEF2-QZVPP-RI
	 Reference Energy          =     -76.0600322601819272 [Eh]
	 Singles Energy            =      -0.0000000000000000 [Eh]
	 Same-Spin Energy          =      -0.0685419167267253 [Eh]
	 Opposite-Spin Energy      =      -0.2161249949727836 [Eh]
	 Correlation Energy        =      -0.2846669116995090 [Eh]
	 Total Energy              =     -76.3446991718814303 [Eh]

	 ================> DF-SCS-MP2 Energies <==================
	-----------------------------------------------------------
	 SCS Same-Spin Scale       =       0.3333333333333333 [-]
	 SCS Opposite-Spin Scale   =       1.2000000000000000 [-]
	 SCS Same-Spin Energy      =      -0.0228473055755751 [Eh]
	 SCS Opposite-Spin Energy  =      -0.2593499939673404 [Eh]
	 SCS Correlation Energy    =      -0.2821972995429155 [Eh]
	 SCS Total Energy          =     -76.3422295597248421 [Eh]
	-----------------------------------------------------------

*** Psi4 exiting successfully. Buy a developer a beer!
