                               Psi4 1.9 release

  ==> Input File <==

--------------------------------------------------------------------------
MEMORY 60 GB

molecule dimer {
1 1
K          0.000000     0.000000     0.000000
O         -0.884192     1.970622     1.647785
H         -1.347598     2.832663     1.776305
H         -0.910421     1.461029     2.511078
O          1.732463    -1.946278     1.003026
H          2.428694    -1.633923     0.375693
H          1.250224    -2.688478     0.576902
O          0.339742    -2.049983    -1.517259
H          1.255807    -1.951855    -1.805876
H         -0.043822    -2.742772    -2.064470
O         -2.568170    -0.255539     0.443239
H         -3.487635    -0.547337     0.522851
H         -2.411796     0.586593     0.985116
O         -1.514408     0.603461    -2.260019
H         -1.635852     0.242743    -3.138612
H         -1.484450     1.566521    -2.316759
O         -0.662160    -1.145485     2.641416
H          0.095372    -1.722406     2.715579
H         -1.429032    -1.705154     2.649019
O          2.172705     1.960527     0.162383
H          3.008128     2.179055    -0.195332
H          1.946524     2.806233     0.714730

units ang
no_reorient
no_com
symmetry c1
}

set {
basis        aug-cc-pVTZ
scf_type     df
}

energy("mp2")
--------------------------------------------------------------------------

    Molecular point group: c1

    Geometry (in Angstrom), charge = 1, multiplicity = 1:

       Center              X                  Y                   Z               Mass
    ------------   -----------------  -----------------  -----------------  -----------------
         K            0.000000000000     0.000000000000     0.000000000000    38.963706486400
         O           -0.884192000000     1.970622000000     1.647785000000    15.994914619570
         H           -1.347598000000     2.832663000000     1.776305000000     1.007825032230
         H           -0.910421000000     1.461029000000     2.511078000000     1.007825032230
         O            1.732463000000    -1.946278000000     1.003026000000    15.994914619570
         H            2.428694000000    -1.633923000000     0.375693000000     1.007825032230
         H            1.250224000000    -2.688478000000     0.576902000000     1.007825032230
         O            0.339742000000    -2.049983000000    -1.517259000000    15.994914619570
         H            1.255807000000    -1.951855000000    -1.805876000000     1.007825032230
         H           -0.043822000000    -2.742772000000    -2.064470000000     1.007825032230
         O           -2.568170000000    -0.255539000000     0.443239000000    15.994914619570
         H           -3.487635000000    -0.547337000000     0.522851000000     1.007825032230
         H           -2.411796000000     0.586593000000     0.985116000000     1.007825032230
         O           -1.514408000000     0.603461000000    -2.260019000000    15.994914619570
         H           -1.635852000000     0.242743000000    -3.138612000000     1.007825032230
         H           -1.484450000000     1.566521000000    -2.316759000000     1.007825032230
         O           -0.662160000000    -1.145485000000     2.641416000000    15.994914619570
         H            0.095372000000    -1.722406000000     2.715579000000     1.007825032230
         H           -1.429032000000    -1.705154000000     2.649019000000     1.007825032230
         O            2.172705000000     1.960527000000     0.162383000000    15.994914619570
         H            3.008128000000     2.179055000000    -0.195332000000     1.007825032230
         H            1.946524000000     2.806233000000     0.714730000000     1.007825032230

  Charge       = 1
  Multiplicity = 1
  Basis Set: AUG-CC-PVTZ
    Blend: AUG-CC-PVTZ
  Basis Set: (AUG-CC-PVTZ AUX)
    Blend: AUG-CC-PVTZ-JKFIT + DEF2-UNIVERSAL-JKFIT

    Orbital Energies [Eh]
    ---------------------

    Doubly Occupied:

       1A   -133.563597     2A    -20.715204     3A    -20.712832
       4A    -20.698425     5A    -20.697089     6A    -20.681982
       7A    -20.676705     8A    -20.676693     9A    -14.522073
      10A    -11.551922    11A    -11.551840    12A    -11.551753
      13A     -1.787447    14A     -1.503706    15A     -1.479886
      16A     -1.472951    17A     -1.470311    18A     -1.467891
      19A     -1.467535    20A     -1.447383    21A     -1.003651
      22A     -0.997553    23A     -0.996696    24A     -0.870411
      25A     -0.850019    26A     -0.845641    27A     -0.842811
      28A     -0.835560    29A     -0.825627    30A     -0.825388
      31A     -0.740063    32A     -0.720895    33A     -0.716677
      34A     -0.712315    35A     -0.702714    36A     -0.701123
      37A     -0.684923    38A     -0.664339    39A     -0.650395
      40A     -0.641236    41A     -0.636938    42A     -0.632695
      43A     -0.626015    44A     -0.610644

  @DF-RHF Final Energy: -1131.51577021266735

   => Energetics <=

    Nuclear Repulsion Energy =            585.8315291616781906
    One-Electron Energy =               -2718.6314802887850419
    Two-Electron Energy =                1001.2841809144393892
    Total Energy =                      -1131.5157702126675758
 Dipole X            :         26.0272320          -26.1500622           -0.1228303
 Dipole Y            :         15.7157487          -15.5306915            0.1850572
 Dipole Z            :        -38.9170287           38.3062452           -0.6107835
 Magnitude           :                                                    0.6499153
  Basis Set: (AUG-CC-PVTZ AUX)
    Blend: AUG-CC-PVTZ-RI + DEF2-QZVPP-RI
	 Reference Energy          =   -1131.5157702126673485 [Eh]
	 Singles Energy            =      -0.0000000000000000 [Eh]
	 Same-Spin Energy          =      -0.5324157175612105 [Eh]
	 Opposite-Spin Energy      =      -1.6237917762616552 [Eh]
	 Correlation Energy        =      -2.1562074938228655 [Eh]
	 Total Energy              =   -1133.6719777064902246 [Eh]

	 ================> DF-SCS-MP2 Energies <==================
	-----------------------------------------------------------
	 SCS Same-Spin Scale       =       0.3333333333333333 [-]
	 SCS Opposite-Spin Scale   =       1.2000000000000000 [-]
	 SCS Same-Spin Energy      =      -0.1774719058537368 [Eh]
	 SCS Opposite-Spin Energy  =      -1.9485501315139862 [Eh]
	 SCS Correlation Energy    =      -2.1260220373677230 [Eh]
	 SCS Total Energy          =   -1133.6417922500349960 [Eh]
	-----------------------------------------------------------

*** Psi4 exiting successfully. Buy a developer a beer!
