                               Psi4 1.9 release

  ==> Input File <==

--------------------------------------------------------------------------
MEMORY 60 GB

molecule dimer {
0 1
Gh(K)      0.000000     0.000000     0.000000
Gh(O)      2.508782    -0.141844     0.410377
Gh(H)      2.562458     0.762794     0.130963
Gh(H)      3.441425    -0.376554     0.562283
O          1.412786    -1.432695    -1.957736
H          2.326943    -1.625764    -2.277906
H          0.935548    -2.250073    -1.821873
Gh(O)     -1.020538     1.606119     1.754091
Gh(H)     -1.273693     2.198824     1.035375
Gh(H)     -0.603547     2.090252     2.409861
Gh(O)     -1.392791    -1.909610     1.353410
Gh(H)     -1.147644    -2.832730     1.686886
Gh(H)     -2.369302    -1.909809     0.980002
Gh(O)     -1.194174    -0.015023    -2.323203
Gh(H)     -1.115379    -0.877981    -2.766013
Gh(H)     -2.152801     0.190925    -2.210689

units ang
no_reorient
no_com
symmetry c1
}

set {
basis        aug-cc-pVTZ
scf_type     df
}

energy("mp2")
--------------------------------------------------------------------------

    Molecular point group: c1

    Geometry (in Angstrom), charge = 0, multiplicity = 1:

       Center              X                  Y                   Z               Mass
    ------------   -----------------  -----------------  -----------------  -----------------
      Gh(K)           0.000000000000     0.000000000000     0.000000000000    38.963706486400
      Gh(O)           2.508782000000    -0.141844000000     0.410377000000    15.994914619570
      Gh(H)           2.562458000000     0.762794000000     0.130963000000     1.007825032230
      Gh(H)           3.441425000000    -0.376554000000     0.562283000000     1.007825032230
         O            1.412786000000    -1.432695000000    -1.957736000000    15.994914619570
         H            2.326943000000    -1.625764000000    -2.277906000000     1.007825032230
         H            0.935548000000    -2.250073000000    -1.821873000000     1.007825032230
      Gh(O)          -1.020538000000     1.606119000000     1.754091000000    15.994914619570
      Gh(H)          -1.273693000000     2.198824000000     1.035375000000     1.007825032230
      Gh(H)          -0.603547000000     2.090252000000     2.409861000000     1.007825032230
      Gh(O)          -1.392791000000    -1.909610000000     1.353410000000    15.994914619570
      Gh(H)          -1.147644000000    -2.832730000000     1.686886000000     1.007825032230
      Gh(H)          -2.369302000000    -1.909809000000     0.980002000000     1.007825032230
      Gh(O)          -1.194174000000    -0.015023000000    -2.323203000000    15.994914619570
      Gh(H)          -1.115379000000    -0.877981000000    -2.766013000000     1.007825032230
      Gh(H)          -2.152801000000     0.190925000000    -2.210689000000     1.007825032230

  Charge       = 0
  Multiplicity = 1
  Basis Set: AUG-CC-PVTZ
    Blend: AUG-CC-PVTZ
  Basis Set: (AUG-CC-PVTZ AUX)
    Blend: AUG-CC-PVTZ-JKFIT + DEF2-UNIVERSAL-JKFIT

    Orbital Energies [Eh]
    ---------------------

    Doubly Occupied:

       1A    -20.567024     2A     -1.342569     3A     -0.719664
       4A     -0.571529     5A     -0.507476

  @DF-RHF Final Energy:   -76.05833532887769

   => Energetics <=

    Nuclear Repulsion Energy =              9.0460957827754331
    One-Electron Energy =                -122.7923348830397572
    Two-Electron Energy =                  37.6879037713866296
    Total Energy =                        -76.0583353288776891
 Dipole X            :        -27.2346513           27.5234434            0.2887920
 Dipole Y            :         28.3045153          -28.9834798           -0.6789645
 Dipole Z            :         37.2218306          -37.3441384           -0.1223078
 Magnitude           :                                                    0.7478990
  Basis Set: (AUG-CC-PVTZ AUX)
    Blend: AUG-CC-PVTZ-RI + DEF2-QZVPP-RI
	 Reference Energy          =     -76.0583353288776891 [Eh]
	 Singles Energy            =      -0.0000000000000000 [Eh]
	 Same-Spin Energy          =      -0.0685768242588180 [Eh]
	 Opposite-Spin Energy      =      -0.2161967306478912 [Eh]
	 Correlation Energy        =      -0.2847735549067092 [Eh]
	 Total Energy              =     -76.3431088837843959 [Eh]

	 ================> DF-SCS-MP2 Energies <==================
	-----------------------------------------------------------
	 SCS Same-Spin Scale       =       0.3333333333333333 [-]
	 SCS Opposite-Spin Scale   =       1.2000000000000000 [-]
	 SCS Same-Spin Energy      =      -0.0228589414196060 [Eh]
	 SCS Opposite-Spin Energy  =      -0.2594360767774694 [Eh]
	 SCS Correlation Energy    =      -0.2822950181970754 [Eh]
	 SCS Total Energy          =     -76.3406303470747645 [Eh]
	-----------------------------------------------------------

*** Psi4 exiting successfully. Buy a developer a beer!
