                               Psi4 1.9 release

  ==> Input File <==

--------------------------------------------------------------------------
MEMORY 60 GB

molecule dimer {
1 1
K          0.000000     0.000000     0.000000
O          0.049226     2.701947    -1.155143
H         -0.920606     2.740287    -1.218459
H          0.456142     2.515712    -2.012420
O         -1.447501    -0.454706     2.173556
H         -1.986228    -1.035711     1.657750
H         -1.199479    -0.982340     2.918186
O          0.653369    -2.372660     1.490410
H          0.618963    -2.151815     2.431321
H          0.120151    -3.194488     1.363670
O         -2.496333    -0.502934    -0.545027
H         -2.174543    -1.006544    -1.289153
H         -2.868617     0.221761    -1.038251
O          1.045807    -0.664263    -2.649852
H          0.737206    -0.257818    -3.449876
H          1.018814    -1.657837    -2.920530
O          1.773374     1.100513     1.657986
H          2.390244     1.790927     1.817412
H          1.689360     0.544883     2.439841

units ang
no_reorient
no_com
symmetry c1
}

set {
basis        aug-cc-pVTZ
scf_type     df
}

energy("mp2")
--------------------------------------------------------------------------

    Molecular point group: c1

    Geometry (in Angstrom), charge = 1, multiplicity = 1:

       Center              X                  Y                   Z               Mass
    ------------   -----------------  -----------------  -----------------  -----------------
         K            0.000000000000     0.000000000000     0.000000000000    38.963706486400
         O            0.049226000000     2.701947000000    -1.155143000000    15.994914619570
         H           -0.920606000000     2.740287000000    -1.218459000000     1.007825032230
         H            0.456142000000     2.515712000000    -2.012420000000     1.007825032230
         O           -1.447501000000    -0.454706000000     2.173556000000    15.994914619570
         H           -1.986228000000    -1.035711000000     1.657750000000     1.007825032230
         H           -1.199479000000    -0.982340000000     2.918186000000     1.007825032230
         O            0.653369000000    -2.372660000000     1.490410000000    15.994914619570
         H            0.618963000000    -2.151815000000     2.431321000000     1.007825032230
         H            0.120151000000    -3.194488000000     1.363670000000     1.007825032230
         O           -2.496333000000    -0.502934000000    -0.545027000000    15.994914619570
         H           -2.174543000000    -1.006544000000    -1.289153000000     1.007825032230
         H           -2.868617000000     0.221761000000    -1.038251000000     1.007825032230
         O            1.045807000000    -0.664263000000    -2.649852000000    15.994914619570
         H            0.737206000000    -0.257818000000    -3.449876000000     1.007825032230
         H            1.018814000000    -1.657837000000    -2.920530000000     1.007825032230
         O            1.773374000000     1.100513000000     1.657986000000    15.994914619570
         H            2.390244000000     1.790927000000     1.817412000000     1.007825032230
         H            1.689360000000     0.544883000000     2.439841000000     1.007825032230

  Charge       = 1
  Multiplicity = 1
  Basis Set: AUG-CC-PVTZ
    Blend: AUG-CC-PVTZ
  Basis Set: (AUG-CC-PVTZ AUX)
    Blend: AUG-CC-PVTZ-JKFIT + DEF2-UNIVERSAL-JKFIT

    Orbital Energies [Eh]
    ---------------------

    Doubly Occupied:

       1A   -133.589253     2A    -20.734797     3A    -20.722535
       4A    -20.714359     5A    -20.700198     6A    -20.698435
       7A    -20.691726     8A    -14.547598     9A    -11.577402
      10A    -11.577387    11A    -11.577306    12A     -1.812440
      13A     -1.532943    14A     -1.500900    15A     -1.492265
      16A     -1.489068    17A     -1.484266    18A     -1.478191
      19A     -1.025437    20A     -1.022426    21A     -1.022029
      22A     -0.874520    23A     -0.868694    24A     -0.861540
      25A     -0.858272    26A     -0.855615    27A     -0.843468
      28A     -0.770728    29A     -0.740919    30A     -0.732964
      31A     -0.725221    32A     -0.714410    33A     -0.703348
      34A     -0.684803    35A     -0.672933    36A     -0.661083
      37A     -0.644347    38A     -0.641046    39A     -0.636795

  @DF-RHF Final Energy: -1055.44231379848043

   => Energetics <=

    Nuclear Repulsion Energy =            457.6918264074913623
    One-Electron Energy =               -2357.3049364084868103
    Two-Electron Energy =                 844.1707962025150209
    Total Energy =                      -1055.4423137984804271
 Dipole X            :          9.5486816          -10.3841528           -0.8354712
 Dipole Y            :          6.2471551           -7.5774370           -1.3302820
 Dipole Z            :        -16.8039280           16.0152985           -0.7886295
 Magnitude           :                                                    1.7577255
  Basis Set: (AUG-CC-PVTZ AUX)
    Blend: AUG-CC-PVTZ-RI + DEF2-QZVPP-RI
	 Reference Energy          =   -1055.4423137984804271 [Eh]
	 Singles Energy            =      -0.0000000000000000 [Eh]
	 Same-Spin Energy          =      -0.4577895068545041 [Eh]
	 Opposite-Spin Energy      =      -1.3971193720554353 [Eh]
	 Correlation Energy        =      -1.8549088789099395 [Eh]
	 Total Energy              =   -1057.2972226773904367 [Eh]

	 ================> DF-SCS-MP2 Energies <==================
	-----------------------------------------------------------
	 SCS Same-Spin Scale       =       0.3333333333333333 [-]
	 SCS Opposite-Spin Scale   =       1.2000000000000000 [-]
	 SCS Same-Spin Energy      =      -0.1525965022848347 [Eh]
	 SCS Opposite-Spin Energy  =      -1.6765432464665224 [Eh]
	 SCS Correlation Energy    =      -1.8291397487513570 [Eh]
	 SCS Total Energy          =   -1057.2714535472318858 [Eh]
	-----------------------------------------------------------

*** Psi4 exiting successfully. Buy a developer a beer!
