                               Psi4 1.9 release

  ==> Input File <==

--------------------------------------------------------------------------
MEMORY 60 GB

molecule dimer {
0 1
Gh(K)      0.000000     0.000000     0.000000
Gh(O)     -0.873977    -0.157326    -2.492460
Gh(H)     -1.740116    -0.052883    -2.878562
Gh(H)     -0.273500     0.375994    -3.026061
O          2.608119     0.315616     0.527310
H          3.312820    -0.307262     0.594493
H          2.932642     0.856303    -0.199126
Gh(O)      0.725977    -2.654096    -0.373484
Gh(H)      1.317561    -2.978209    -1.023598
Gh(H)     -0.110315    -3.095978    -0.542861
Gh(O)     -2.649027    -1.197370     0.324003
Gh(H)     -2.756447    -1.934451    -0.241219
Gh(H)     -2.755054    -1.440674     1.244298
Gh(O)     -1.038712     2.794023    -0.587160
Gh(H)     -1.259782     2.719630    -1.535356
Gh(H)     -1.840414     2.377449    -0.164631

units ang
no_reorient
no_com
symmetry c1
}

set {
basis        aug-cc-pVTZ
scf_type     df
}

energy("mp2")
--------------------------------------------------------------------------

    Molecular point group: c1

    Geometry (in Angstrom), charge = 0, multiplicity = 1:

       Center              X                  Y                   Z               Mass
    ------------   -----------------  -----------------  -----------------  -----------------
      Gh(K)           0.000000000000     0.000000000000     0.000000000000    38.963706486400
      Gh(O)          -0.873977000000    -0.157326000000    -2.492460000000    15.994914619570
      Gh(H)          -1.740116000000    -0.052883000000    -2.878562000000     1.007825032230
      Gh(H)          -0.273500000000     0.375994000000    -3.026061000000     1.007825032230
         O            2.608119000000     0.315616000000     0.527310000000    15.994914619570
         H            3.312820000000    -0.307262000000     0.594493000000     1.007825032230
         H            2.932642000000     0.856303000000    -0.199126000000     1.007825032230
      Gh(O)           0.725977000000    -2.654096000000    -0.373484000000    15.994914619570
      Gh(H)           1.317561000000    -2.978209000000    -1.023598000000     1.007825032230
      Gh(H)          -0.110315000000    -3.095978000000    -0.542861000000     1.007825032230
      Gh(O)          -2.649027000000    -1.197370000000     0.324003000000    15.994914619570
      Gh(H)          -2.756447000000    -1.934451000000    -0.241219000000     1.007825032230
      Gh(H)          -2.755054000000    -1.440674000000     1.244298000000     1.007825032230
      Gh(O)          -1.038712000000     2.794023000000    -0.587160000000    15.994914619570
      Gh(H)          -1.259782000000     2.719630000000    -1.535356000000     1.007825032230
      Gh(H)          -1.840414000000     2.377449000000    -0.164631000000     1.007825032230

  Charge       = 0
  Multiplicity = 1
  Basis Set: AUG-CC-PVTZ
    Blend: AUG-CC-PVTZ
  Basis Set: (AUG-CC-PVTZ AUX)
    Blend: AUG-CC-PVTZ-JKFIT + DEF2-UNIVERSAL-JKFIT

    Orbital Energies [Eh]
    ---------------------

    Doubly Occupied:

       1A    -20.568101     2A     -1.359531     3A     -0.711232
       4A     -0.594776     5A     -0.512043

  @DF-RHF Final Energy:   -76.05984422290487

   => Energetics <=

    Nuclear Repulsion Energy =              9.2532601867295448
    One-Electron Energy =                -123.1348417086642115
    Two-Electron Energy =                  37.8217372990298060
    Total Energy =                        -76.0598442229048572
 Dipole X            :        -50.5523059           51.2312576            0.6789517
 Dipole Y            :         -5.8659135            5.8089595           -0.0569539
 Dipole Z            :         -9.1509030            8.7189072           -0.4319958
 Magnitude           :                                                    0.8067463
  Basis Set: (AUG-CC-PVTZ AUX)
    Blend: AUG-CC-PVTZ-RI + DEF2-QZVPP-RI
	 Reference Energy          =     -76.0598442229048715 [Eh]
	 Singles Energy            =      -0.0000000000000000 [Eh]
	 Same-Spin Energy          =      -0.0684038630364450 [Eh]
	 Opposite-Spin Energy      =      -0.2155458591957517 [Eh]
	 Correlation Energy        =      -0.2839497222321967 [Eh]
	 Total Energy              =     -76.3437939451370653 [Eh]

	 ================> DF-SCS-MP2 Energies <==================
	-----------------------------------------------------------
	 SCS Same-Spin Scale       =       0.3333333333333333 [-]
	 SCS Opposite-Spin Scale   =       1.2000000000000000 [-]
	 SCS Same-Spin Energy      =      -0.0228012876788150 [Eh]
	 SCS Opposite-Spin Energy  =      -0.2586550310349020 [Eh]
	 SCS Correlation Energy    =      -0.2814563187137170 [Eh]
	 SCS Total Energy          =     -76.3413005416185939 [Eh]
	-----------------------------------------------------------

*** Psi4 exiting successfully. Buy a developer a beer!
