                               Psi4 1.9 release

  ==> Input File <==

--------------------------------------------------------------------------
MEMORY 60 GB

molecule dimer {
1 1
K          0.000000     0.000000     0.000000
O          1.886407     0.240145     1.661583
H          1.920610    -0.405878     2.387775
H          2.353759     1.017833     1.991534
O         -0.633228    -1.707611     2.107517
H         -1.150731    -2.494049     1.810318
H          0.219587    -1.976046     2.382454
O         -2.383593     0.511145    -0.855188
H         -2.763257     1.011932    -0.148038
H         -3.173879     0.141298    -1.269293
O         -0.850357    -2.107687    -1.303976
H         -1.442063    -2.761127    -0.786684
H         -0.824084    -2.400965    -2.266133

units ang
no_reorient
no_com
symmetry c1
}

set {
basis        aug-cc-pVTZ
scf_type     df
}

energy("mp2")
--------------------------------------------------------------------------

    Molecular point group: c1

    Geometry (in Angstrom), charge = 1, multiplicity = 1:

       Center              X                  Y                   Z               Mass
    ------------   -----------------  -----------------  -----------------  -----------------
         K            0.000000000000     0.000000000000     0.000000000000    38.963706486400
         O            1.886407000000     0.240145000000     1.661583000000    15.994914619570
         H            1.920610000000    -0.405878000000     2.387775000000     1.007825032230
         H            2.353759000000     1.017833000000     1.991534000000     1.007825032230
         O           -0.633228000000    -1.707611000000     2.107517000000    15.994914619570
         H           -1.150731000000    -2.494049000000     1.810318000000     1.007825032230
         H            0.219587000000    -1.976046000000     2.382454000000     1.007825032230
         O           -2.383593000000     0.511145000000    -0.855188000000    15.994914619570
         H           -2.763257000000     1.011932000000    -0.148038000000     1.007825032230
         H           -3.173879000000     0.141298000000    -1.269293000000     1.007825032230
         O           -0.850357000000    -2.107687000000    -1.303976000000    15.994914619570
         H           -1.442063000000    -2.761127000000    -0.786684000000     1.007825032230
         H           -0.824084000000    -2.400965000000    -2.266133000000     1.007825032230

  Charge       = 1
  Multiplicity = 1
  Basis Set: AUG-CC-PVTZ
    Blend: AUG-CC-PVTZ
  Basis Set: (AUG-CC-PVTZ AUX)
    Blend: AUG-CC-PVTZ-JKFIT + DEF2-UNIVERSAL-JKFIT

    Orbital Energies [Eh]
    ---------------------

    Doubly Occupied:

       1A   -133.605406     2A    -20.728732     3A    -20.725781
       4A    -20.722191     5A    -20.714826     6A    -14.563983
       7A    -11.593841     8A    -11.593798     9A    -11.593596
      10A     -1.829234    11A     -1.513493    12A     -1.508585
      13A     -1.508040    14A     -1.480333    15A     -1.041473
      16A     -1.039891    17A     -1.039511    18A     -0.889450
      19A     -0.872878    20A     -0.862344    21A     -0.848875
      22A     -0.758888    23A     -0.745556    24A     -0.736179
      25A     -0.729468    26A     -0.675706    27A     -0.670932
      28A     -0.668576    29A     -0.655100

  @DF-RHF Final Energy:  -903.31314298064262

   => Energetics <=

    Nuclear Repulsion Energy =            265.1901778054570968
    One-Electron Energy =               -1765.1733051809592325
    Two-Electron Energy =                 596.6699843948595117
    Total Energy =                       -903.3131429806426240
 Dipole X            :         38.3806893          -39.1290962           -0.7484070
 Dipole Y            :         59.8013531          -61.1875669           -1.3862138
 Dipole Z            :        -31.4128635           32.0902349            0.6773714
 Magnitude           :                                                    1.7147984
  Basis Set: (AUG-CC-PVTZ AUX)
    Blend: AUG-CC-PVTZ-RI + DEF2-QZVPP-RI
	 Reference Energy          =    -903.3131429806426240 [Eh]
	 Singles Energy            =      -0.0000000000000000 [Eh]
	 Same-Spin Energy          =      -0.3155567957200753 [Eh]
	 Opposite-Spin Energy      =      -0.9549602213181035 [Eh]
	 Correlation Energy        =      -1.2705170170381788 [Eh]
	 Total Energy              =    -904.5836599976807975 [Eh]

	 ================> DF-SCS-MP2 Energies <==================
	-----------------------------------------------------------
	 SCS Same-Spin Scale       =       0.3333333333333333 [-]
	 SCS Opposite-Spin Scale   =       1.2000000000000000 [-]
	 SCS Same-Spin Energy      =      -0.1051855985733584 [Eh]
	 SCS Opposite-Spin Energy  =      -1.1459522655817242 [Eh]
	 SCS Correlation Energy    =      -1.2511378641550828 [Eh]
	 SCS Total Energy          =    -904.5642808447977359 [Eh]
	-----------------------------------------------------------

*** Psi4 exiting successfully. Buy a developer a beer!
