                               Psi4 1.9 release

  ==> Input File <==

--------------------------------------------------------------------------
MEMORY 60 GB

molecule dimer {
0 1
Gh(K)      0.000000     0.000000     0.000000
Gh(O)     -1.333192     2.296700    -0.143276
Gh(H)     -1.880572     2.324349     0.647278
Gh(H)     -0.939747     3.150442    -0.123998
Gh(O)      1.513983    -2.323742    -0.943847
Gh(H)      2.366267    -2.226553    -1.343372
Gh(H)      0.936856    -2.841776    -1.569285
Gh(O)     -2.132906    -0.990787    -1.068623
Gh(H)     -2.264157    -1.131510    -1.972940
Gh(H)     -2.972426    -0.581761    -0.773426
Gh(O)     -1.301569    -1.185610     1.910969
Gh(H)     -1.209146    -1.149223     2.904024
Gh(H)     -2.251409    -1.284523     1.765089
O         -0.090714     1.371623     2.527585
H          0.344682     2.259132     2.564693
H         -0.971008     1.365010     2.948526
Gh(O)      1.429543     1.188070    -2.089276
Gh(H)      2.048565     0.859537    -2.779898
Gh(H)      1.883227     1.964633    -1.731157

units ang
no_reorient
no_com
symmetry c1
}

set {
basis        aug-cc-pVTZ
scf_type     df
}

energy("mp2")
--------------------------------------------------------------------------

    Molecular point group: c1

    Geometry (in Angstrom), charge = 0, multiplicity = 1:

       Center              X                  Y                   Z               Mass
    ------------   -----------------  -----------------  -----------------  -----------------
      Gh(K)           0.000000000000     0.000000000000     0.000000000000    38.963706486400
      Gh(O)          -1.333192000000     2.296700000000    -0.143276000000    15.994914619570
      Gh(H)          -1.880572000000     2.324349000000     0.647278000000     1.007825032230
      Gh(H)          -0.939747000000     3.150442000000    -0.123998000000     1.007825032230
      Gh(O)           1.513983000000    -2.323742000000    -0.943847000000    15.994914619570
      Gh(H)           2.366267000000    -2.226553000000    -1.343372000000     1.007825032230
      Gh(H)           0.936856000000    -2.841776000000    -1.569285000000     1.007825032230
      Gh(O)          -2.132906000000    -0.990787000000    -1.068623000000    15.994914619570
      Gh(H)          -2.264157000000    -1.131510000000    -1.972940000000     1.007825032230
      Gh(H)          -2.972426000000    -0.581761000000    -0.773426000000     1.007825032230
      Gh(O)          -1.301569000000    -1.185610000000     1.910969000000    15.994914619570
      Gh(H)          -1.209146000000    -1.149223000000     2.904024000000     1.007825032230
      Gh(H)          -2.251409000000    -1.284523000000     1.765089000000     1.007825032230
         O           -0.090714000000     1.371623000000     2.527585000000    15.994914619570
         H            0.344682000000     2.259132000000     2.564693000000     1.007825032230
         H           -0.971008000000     1.365010000000     2.948526000000     1.007825032230
      Gh(O)           1.429543000000     1.188070000000    -2.089276000000    15.994914619570
      Gh(H)           2.048565000000     0.859537000000    -2.779898000000     1.007825032230
      Gh(H)           1.883227000000     1.964633000000    -1.731157000000     1.007825032230

  Charge       = 0
  Multiplicity = 1
  Basis Set: AUG-CC-PVTZ
    Blend: AUG-CC-PVTZ
  Basis Set: (AUG-CC-PVTZ AUX)
    Blend: AUG-CC-PVTZ-JKFIT + DEF2-UNIVERSAL-JKFIT

    Orbital Energies [Eh]
    ---------------------

    Doubly Occupied:

       1A    -20.567385     2A     -1.335397     3A     -0.718440
       4A     -0.564261     5A     -0.505657

  @DF-RHF Final Energy:   -76.05624652689818

   => Energetics <=

    Nuclear Repulsion Energy =              8.9412744554479175
    One-Electron Energy =                -122.6127580370341690
    Two-Electron Energy =                  37.6152370546880661
    Total Energy =                        -76.0562465268981782
 Dipole X            :          2.2549186           -2.5549815           -0.3000630
 Dipole Y            :        -26.9939553           27.5845704            0.5906151
 Dipole Z            :        -48.3217343           48.6300213            0.3082869
 Magnitude           :                                                    0.7306879
  Basis Set: (AUG-CC-PVTZ AUX)
    Blend: AUG-CC-PVTZ-RI + DEF2-QZVPP-RI
	 Reference Energy          =     -76.0562465268981782 [Eh]
	 Singles Energy            =      -0.0000000000000000 [Eh]
	 Same-Spin Energy          =      -0.0687527976083945 [Eh]
	 Opposite-Spin Energy      =      -0.2167220381764716 [Eh]
	 Correlation Energy        =      -0.2854748357848661 [Eh]
	 Total Energy              =     -76.3417213626830460 [Eh]

	 ================> DF-SCS-MP2 Energies <==================
	-----------------------------------------------------------
	 SCS Same-Spin Scale       =       0.3333333333333333 [-]
	 SCS Opposite-Spin Scale   =       1.2000000000000000 [-]
	 SCS Same-Spin Energy      =      -0.0229175992027982 [Eh]
	 SCS Opposite-Spin Energy  =      -0.2600664458117659 [Eh]
	 SCS Correlation Energy    =      -0.2829840450145641 [Eh]
	 SCS Total Energy          =     -76.3392305719127364 [Eh]
	-----------------------------------------------------------

*** Psi4 exiting successfully. Buy a developer a beer!
