                               Psi4 1.9 release

  ==> Input File <==

--------------------------------------------------------------------------
MEMORY 60 GB

molecule dimer {
0 1
Gh(K)      0.000000     0.000000     0.000000
O          0.913124     1.392044     2.215266
H          0.107898     1.589882     2.707194
H          1.074752     2.048582     1.547337
Gh(O)      2.026680    -1.153352    -1.012698
Gh(H)      2.858159    -1.449304    -0.567475
Gh(H)      2.342505    -0.543742    -1.689308
Gh(O)     -1.825857    -2.133558     0.355993
Gh(H)     -1.430944    -2.920093     0.805392
Gh(H)     -1.781389    -2.429058    -0.509967
Gh(O)     -1.999435     0.997352    -1.712310
Gh(H)     -1.916758     1.159308    -2.674599
Gh(H)     -2.643508     1.624790    -1.332880
Gh(O)     -2.230302     0.207585     1.991219
Gh(H)     -2.672649     0.382701     2.901728
Gh(H)     -2.200317    -0.765324     1.906808

units ang
no_reorient
no_com
symmetry c1
}

set {
basis        aug-cc-pVTZ
scf_type     df
}

energy("mp2")
--------------------------------------------------------------------------

    Molecular point group: c1

    Geometry (in Angstrom), charge = 0, multiplicity = 1:

       Center              X                  Y                   Z               Mass
    ------------   -----------------  -----------------  -----------------  -----------------
      Gh(K)           0.000000000000     0.000000000000     0.000000000000    38.963706486400
         O            0.913124000000     1.392044000000     2.215266000000    15.994914619570
         H            0.107898000000     1.589882000000     2.707194000000     1.007825032230
         H            1.074752000000     2.048582000000     1.547337000000     1.007825032230
      Gh(O)           2.026680000000    -1.153352000000    -1.012698000000    15.994914619570
      Gh(H)           2.858159000000    -1.449304000000    -0.567475000000     1.007825032230
      Gh(H)           2.342505000000    -0.543742000000    -1.689308000000     1.007825032230
      Gh(O)          -1.825857000000    -2.133558000000     0.355993000000    15.994914619570
      Gh(H)          -1.430944000000    -2.920093000000     0.805392000000     1.007825032230
      Gh(H)          -1.781389000000    -2.429058000000    -0.509967000000     1.007825032230
      Gh(O)          -1.999435000000     0.997352000000    -1.712310000000    15.994914619570
      Gh(H)          -1.916758000000     1.159308000000    -2.674599000000     1.007825032230
      Gh(H)          -2.643508000000     1.624790000000    -1.332880000000     1.007825032230
      Gh(O)          -2.230302000000     0.207585000000     1.991219000000    15.994914619570
      Gh(H)          -2.672649000000     0.382701000000     2.901728000000     1.007825032230
      Gh(H)          -2.200317000000    -0.765324000000     1.906808000000     1.007825032230

  Charge       = 0
  Multiplicity = 1
  Basis Set: AUG-CC-PVTZ
    Blend: AUG-CC-PVTZ
  Basis Set: (AUG-CC-PVTZ AUX)
    Blend: AUG-CC-PVTZ-JKFIT + DEF2-UNIVERSAL-JKFIT

    Orbital Energies [Eh]
    ---------------------

    Doubly Occupied:

       1A    -20.564093     2A     -1.349002     3A     -0.729876
       4A     -0.572220     5A     -0.508382

  @DF-RHF Final Energy:   -76.05990267611227

   => Energetics <=

    Nuclear Repulsion Energy =              9.1805663871197751
    One-Electron Energy =                -123.0337893564172873
    Two-Electron Energy =                  37.7933202931852463
    Total Energy =                        -76.0599026761122730
 Dipole X            :        -16.4749875           16.0393188           -0.4356687
 Dipole Y            :        -27.3396920           27.9203558            0.5806638
 Dipole Z            :        -41.6504884           41.5298667           -0.1206217
 Magnitude           :                                                    0.7358854
  Basis Set: (AUG-CC-PVTZ AUX)
    Blend: AUG-CC-PVTZ-RI + DEF2-QZVPP-RI
	 Reference Energy          =     -76.0599026761122730 [Eh]
	 Singles Energy            =      -0.0000000000000000 [Eh]
	 Same-Spin Energy          =      -0.0683046179279090 [Eh]
	 Opposite-Spin Energy      =      -0.2152733660695709 [Eh]
	 Correlation Energy        =      -0.2835779839974800 [Eh]
	 Total Energy              =     -76.3434806601097478 [Eh]

	 ================> DF-SCS-MP2 Energies <==================
	-----------------------------------------------------------
	 SCS Same-Spin Scale       =       0.3333333333333333 [-]
	 SCS Opposite-Spin Scale   =       1.2000000000000000 [-]
	 SCS Same-Spin Energy      =      -0.0227682059759697 [Eh]
	 SCS Opposite-Spin Energy  =      -0.2583280392834851 [Eh]
	 SCS Correlation Energy    =      -0.2810962452594548 [Eh]
	 SCS Total Energy          =     -76.3409989213717211 [Eh]
	-----------------------------------------------------------

*** Psi4 exiting successfully. Buy a developer a beer!
