                               Psi4 1.9 release

  ==> Input File <==

--------------------------------------------------------------------------
MEMORY 60 GB

molecule dimer {
1 1
K      0.000000     0.000000     0.000000
--
0 1
O     -2.137032    -0.856625     1.512180
H     -1.868986    -0.256897     2.167979
H     -2.239988    -1.648355     2.041290
O      2.175127     1.925803    -0.413797
H      1.709840     2.569824    -0.952341
H      2.889234     1.626517    -1.020393
O      0.141167     0.967816     2.459987
H     -0.589109     1.582427     2.558548
H      0.912326     1.572431     2.509376
O     -1.688514     1.833831    -0.432819
H     -2.264011     1.940198     0.309424
H     -2.154571     1.891732    -1.244451
O      1.446652    -0.632454    -2.619546
H      2.280514    -0.166052    -2.786880
H      1.538590    -1.544524    -2.934943
O      2.182475    -1.748894     0.845704
H      2.180246    -2.541209     0.250924
H      2.896339    -1.190755     0.512360

units ang
no_reorient
no_com
symmetry c1
}

set {
basis        aug-cc-pVTZ
scf_type     df
}

energy("mp2", bsse_type="cp")
--------------------------------------------------------------------------

                               Psi4 1.9 release
    Molecular point group: c1
  Charge       = 0
  Multiplicity = 1
  Basis Set: AUG-CC-PVTZ
    Blend: AUG-CC-PVTZ
  Basis Set: (AUG-CC-PVTZ AUX)
    Blend: AUG-CC-PVTZ-JKFIT + DEF2-UNIVERSAL-JKFIT
  @DF-RHF Final Energy:  -456.33962931867109
    Total Energy =                       -456.3396293186710864
 Dipole X            :        -41.3784099           42.0453178            0.6669079
 Dipole Y            :        -29.2389481           29.7653653            0.5264173
 Dipole Z            :        -24.0025381           23.1010799           -0.9014582
 Magnitude           :                                                    1.2387527
  Basis Set: (AUG-CC-PVTZ AUX)
    Blend: AUG-CC-PVTZ-RI + DEF2-QZVPP-RI
	 Reference Energy          =    -456.3396293186710864 [Eh]
	 Singles Energy            =      -0.0000000000000000 [Eh]
	 Same-Spin Energy          =      -0.4138264340118795 [Eh]
	 Opposite-Spin Energy      =      -1.2991511370080571 [Eh]
	 Correlation Energy        =      -1.7129775710199366 [Eh]
	 Total Energy              =    -458.0526068896910488 [Eh]
	 SCS Total Energy          =    -458.0365528277513931 [Eh]
                               Psi4 1.9 release
    Molecular point group: c1
  Multiplicity = 1
  Basis Set: AUG-CC-PVTZ
    Blend: AUG-CC-PVTZ
  Basis Set: (AUG-CC-PVTZ AUX)
    Blend: AUG-CC-PVTZ-JKFIT + DEF2-UNIVERSAL-JKFIT
  @DF-RHF Final Energy:  -599.01751700943396
    Total Energy =                       -599.0175170094339592
  Basis Set: (AUG-CC-PVTZ AUX)
	 Singles Energy            =      -0.0000000000000000 [Eh]
	 Same-Spin Energy          =      -0.0389995776089873 [Eh]
	 Opposite-Spin Energy      =      -0.0957767300182355 [Eh]
	 Correlation Energy        =      -0.1347763076272228 [Eh]
	 Total Energy              =    -599.1522933170612077 [Eh]
	 SCS Total Energy          =    -599.1454489446588241 [Eh]
                               Psi4 1.9 release
    Molecular point group: c1

    Geometry (in Bohr), charge = 1, multiplicity = 1:

       Center              X                  Y                   Z               Mass
    ------------   -----------------  -----------------  -----------------  -----------------
         K            0.000000000000     0.000000000000     0.000000000000    38.963706486400
         O           -4.038405201339    -1.618786642220     2.857606052395    15.994914619570
         H           -3.531871672315    -0.485464972452     4.096886555744     1.007825032230
         H           -4.232963844312    -3.114939507529     3.857479042636     1.007825032230
         O            4.110394318089     3.639240241585    -0.781963001536    15.994914619570
         H            3.231129318353     4.856263550629    -1.799663668045     1.007825032230
         H            5.459860972361     3.073671668401    -1.928263310334     1.007825032230
         O            0.266766967953     1.828907179836     4.648701702187    15.994914619570
         H           -1.113254668042     2.990353643530     4.834954998838     1.007825032230
         H            1.724046277134     2.971463941180     4.742033385797     1.007825032230
         O           -3.190829019001     3.465438350374    -0.817909371895    15.994914619570
         H           -4.278360735024     3.666442849161     0.584726616644     1.007825032230
         H           -4.071549107854     3.574855382765    -2.351671566552     1.007825032230
         O            2.733776078846    -1.195164846950    -4.950224513039    15.994914619570
         H            4.309546885272    -0.313792802585    -5.266439944516     1.007825032230
         H            2.907513719368    -2.918727354197    -5.546238463830     1.007825032230
         O            4.124280025659    -3.304930682456     1.598148943204    15.994914619570
         H            4.120067826125    -4.802189037549     0.474177638304     1.007825032230
         H            5.473287476482    -2.250200832520     0.968220077640     1.007825032230

  Charge       = 1
  Multiplicity = 1
  Basis Set: AUG-CC-PVTZ
    Blend: AUG-CC-PVTZ
  Basis Set: (AUG-CC-PVTZ AUX)
    Blend: AUG-CC-PVTZ-JKFIT + DEF2-UNIVERSAL-JKFIT

    Orbital Energies [Eh]
    ---------------------

    Doubly Occupied:

       1A   -133.585363     2A    -20.716976     3A    -20.715574
       4A    -20.712063     5A    -20.711759     6A    -20.700533
       7A    -20.698798     8A    -14.543715     9A    -11.573534
      10A    -11.573458    11A    -11.573442    12A     -1.808497
      13A     -1.513267    14A     -1.503828    15A     -1.498656
      16A     -1.495288    17A     -1.490361    18A     -1.474965
      19A     -1.020748    20A     -1.018912    21A     -1.018273
      22A     -0.895460    23A     -0.864424    24A     -0.863944
      25A     -0.851234    26A     -0.844644    27A     -0.837885
      28A     -0.745107    29A     -0.737084    30A     -0.735784
      31A     -0.734537    32A     -0.725467    33A     -0.713026
      34A     -0.667201    35A     -0.663764    36A     -0.661075
      37A     -0.654201    38A     -0.650159    39A     -0.640742

  @DF-RHF Final Energy: -1055.45649197249622

   => Energetics <=

    Nuclear Repulsion Energy =            456.1408424072429852
    One-Electron Energy =               -2354.3271560331718320
    Two-Electron Energy =                 842.7298216534328503
    Total Energy =                      -1055.4564919724962238
 Dipole X            :        -41.2926605           42.0453178            0.7526573
 Dipole Y            :        -29.0648820           29.7653653            0.7004834
 Dipole Z            :        -23.8465582           23.1010799           -0.7454783
 Magnitude           :                                                    1.2700031
  Basis Set: (AUG-CC-PVTZ AUX)
    Blend: AUG-CC-PVTZ-RI + DEF2-QZVPP-RI
	 Reference Energy          =   -1055.4564919724962238 [Eh]
	 Singles Energy            =      -0.0000000000000000 [Eh]
	 Same-Spin Energy          =      -0.4568337222502814 [Eh]
	 Opposite-Spin Energy      =      -1.3950117648750380 [Eh]
	 Correlation Energy        =      -1.8518454871253194 [Eh]
	 Total Energy              =   -1057.3083374596214981 [Eh]

	 ================> DF-SCS-MP2 Energies <==================
	-----------------------------------------------------------
	 SCS Same-Spin Scale       =       0.3333333333333333 [-]
	 SCS Opposite-Spin Scale   =       1.2000000000000000 [-]
	 SCS Same-Spin Energy      =      -0.1522779074167604 [Eh]
	 SCS Opposite-Spin Energy  =      -1.6740141178500456 [Eh]
	 SCS Correlation Energy    =      -1.8262920252668060 [Eh]
	 SCS Total Energy          =   -1057.2827839977630902 [Eh]
	-----------------------------------------------------------

*** Psi4 exiting successfully. Buy a developer a beer!
