                               Psi4 1.9 release

  ==> Input File <==

--------------------------------------------------------------------------
MEMORY 60 GB

molecule dimer {
1 1
K          0.000000     0.000000     0.000000
O         -1.080651     0.306429     2.551299
H         -1.823175     0.297793     3.180353
H         -0.354899     0.660309     3.103492
O          2.278387    -0.702459    -1.607685
H          2.138970    -0.719093    -2.593983
H          3.142648    -0.207233    -1.591648
O          0.117076     1.812209    -2.183024
H          0.976217     1.536841    -2.563700
H          0.141175     2.783659    -2.179207
O         -0.797458     2.800333     0.664685
H         -1.133208     2.542766     1.514255
H          0.012475     3.272720     0.925054
O          0.106479    -2.530132     1.323326
H          0.105693    -2.479833     2.282568
H          0.086604    -3.458505     1.108124

units ang
no_reorient
no_com
symmetry c1
}

set {
basis        aug-cc-pVTZ
scf_type     df
}

energy("mp2")
--------------------------------------------------------------------------

    Molecular point group: c1

    Geometry (in Angstrom), charge = 1, multiplicity = 1:

       Center              X                  Y                   Z               Mass
    ------------   -----------------  -----------------  -----------------  -----------------
         K            0.000000000000     0.000000000000     0.000000000000    38.963706486400
         O           -1.080651000000     0.306429000000     2.551299000000    15.994914619570
         H           -1.823175000000     0.297793000000     3.180353000000     1.007825032230
         H           -0.354899000000     0.660309000000     3.103492000000     1.007825032230
         O            2.278387000000    -0.702459000000    -1.607685000000    15.994914619570
         H            2.138970000000    -0.719093000000    -2.593983000000     1.007825032230
         H            3.142648000000    -0.207233000000    -1.591648000000     1.007825032230
         O            0.117076000000     1.812209000000    -2.183024000000    15.994914619570
         H            0.976217000000     1.536841000000    -2.563700000000     1.007825032230
         H            0.141175000000     2.783659000000    -2.179207000000     1.007825032230
         O           -0.797458000000     2.800333000000     0.664685000000    15.994914619570
         H           -1.133208000000     2.542766000000     1.514255000000     1.007825032230
         H            0.012475000000     3.272720000000     0.925054000000     1.007825032230
         O            0.106479000000    -2.530132000000     1.323326000000    15.994914619570
         H            0.105693000000    -2.479833000000     2.282568000000     1.007825032230
         H            0.086604000000    -3.458505000000     1.108124000000     1.007825032230

  Charge       = 1
  Multiplicity = 1
  Basis Set: AUG-CC-PVTZ
    Blend: AUG-CC-PVTZ
  Basis Set: (AUG-CC-PVTZ AUX)
    Blend: AUG-CC-PVTZ-JKFIT + DEF2-UNIVERSAL-JKFIT

    Orbital Energies [Eh]
    ---------------------

    Doubly Occupied:

       1A   -133.614238     2A    -20.730714     3A    -20.723755
       4A    -20.701216     5A    -20.699165     6A    -20.698603
       7A    -14.571439     8A    -11.601523     9A    -11.601295
      10A    -11.601212    11A     -1.832093    12A     -1.509607
      13A     -1.488816    14A     -1.487031    15A     -1.486699
      16A     -1.477563    17A     -1.043931    18A     -1.040782
      19A     -1.038277    20A     -0.864757    21A     -0.854444
      22A     -0.844699    23A     -0.839306    24A     -0.833243
      25A     -0.755867    26A     -0.743790    27A     -0.727938
      28A     -0.723690    29A     -0.716294    30A     -0.675508
      31A     -0.661747    32A     -0.647169    33A     -0.644877
      34A     -0.639038

  @DF-RHF Final Energy:  -979.39178845179322

   => Energetics <=

    Nuclear Repulsion Energy =            339.4409476824408785
    One-Electron Energy =               -2017.4248184510088322
    Two-Electron Energy =                 698.5920823167748495
    Total Energy =                       -979.3917884517932180
 Dipole X            :        -14.3406192           15.6529114            1.3122922
 Dipole Y            :        -32.9470355           33.4868238            0.5397883
 Dipole Z            :        -16.0962662           17.3365667            1.2403005
 Magnitude           :                                                    1.8846293
  Basis Set: (AUG-CC-PVTZ AUX)
    Blend: AUG-CC-PVTZ-RI + DEF2-QZVPP-RI
	 Reference Energy          =    -979.3917884517932180 [Eh]
	 Singles Energy            =      -0.0000000000000000 [Eh]
	 Same-Spin Energy          =      -0.3840419049302368 [Eh]
	 Opposite-Spin Energy      =      -1.1713085502097811 [Eh]
	 Correlation Energy        =      -1.5553504551400179 [Eh]
	 Total Energy              =    -980.9471389069332190 [Eh]

	 ================> DF-SCS-MP2 Energies <==================
	-----------------------------------------------------------
	 SCS Same-Spin Scale       =       0.3333333333333333 [-]
	 SCS Opposite-Spin Scale   =       1.2000000000000000 [-]
	 SCS Same-Spin Energy      =      -0.1280139683100789 [Eh]
	 SCS Opposite-Spin Energy  =      -1.4055702602517373 [Eh]
	 SCS Correlation Energy    =      -1.5335842285618162 [Eh]
	 SCS Total Energy          =    -980.9253726803550535 [Eh]
	-----------------------------------------------------------

*** Psi4 exiting successfully. Buy a developer a beer!
