                               Psi4 1.9 release

  ==> Input File <==

--------------------------------------------------------------------------
MEMORY 60 GB

molecule dimer {
1 1
K      0.000000     0.000000     0.000000
--
0 1
O      2.396279     0.775608    -0.451841
H      2.861485     0.358524    -1.212679
H      2.964841     0.677780     0.338905
O     -0.804734     2.543152     1.001045
H     -0.610352     3.441400     0.770337
H     -0.791853     2.593161     1.934941
O      1.230894    -1.869188    -1.275336
H      1.585639    -1.664232    -2.153730
H      1.204694    -2.795554    -1.187042
O     -1.211205     1.758805    -1.667366
H     -1.911099     2.172143    -1.102733
H     -0.856874     2.386555    -2.247478
O      0.894477    -0.492812     2.544623
H      1.829653    -0.334025     2.571714
H      0.668104    -0.888251     3.434370
O     -1.983101    -1.526150     1.175537
H     -2.303839    -1.002062     1.943197
H     -1.706738    -2.417397     1.491046

units ang
no_reorient
no_com
symmetry c1
}

set {
basis        aug-cc-pVTZ
scf_type     df
}

energy("mp2", bsse_type="cp")
--------------------------------------------------------------------------

                               Psi4 1.9 release
    Molecular point group: c1
  Charge       = 0
  Multiplicity = 1
  Basis Set: AUG-CC-PVTZ
    Blend: AUG-CC-PVTZ
  Basis Set: (AUG-CC-PVTZ AUX)
    Blend: AUG-CC-PVTZ-JKFIT + DEF2-UNIVERSAL-JKFIT
  @DF-RHF Final Energy:  -456.32433353690521
    Total Energy =                       -456.3243335369052147
 Dipole X            :        -12.2291836           13.4445340            1.2153504
 Dipole Y            :        -22.7036132           22.7586558            0.0550426
 Dipole Z            :        -27.4549652           28.7127709            1.2578057
 Magnitude           :                                                    1.7499089
  Basis Set: (AUG-CC-PVTZ AUX)
    Blend: AUG-CC-PVTZ-RI + DEF2-QZVPP-RI
	 Reference Energy          =    -456.3243335369052147 [Eh]
	 Singles Energy            =      -0.0000000000000000 [Eh]
	 Same-Spin Energy          =      -0.4144647101584223 [Eh]
	 Opposite-Spin Energy      =      -1.3005081694348211 [Eh]
	 Correlation Energy        =      -1.7149728795932435 [Eh]
	 Total Energy              =    -458.0393064164984480 [Eh]
	 SCS Total Energy          =    -458.0230982436131626 [Eh]
                               Psi4 1.9 release
    Molecular point group: c1
  Multiplicity = 1
  Basis Set: AUG-CC-PVTZ
    Blend: AUG-CC-PVTZ
  Basis Set: (AUG-CC-PVTZ AUX)
    Blend: AUG-CC-PVTZ-JKFIT + DEF2-UNIVERSAL-JKFIT
  @DF-RHF Final Energy:  -599.01751724808685
    Total Energy =                       -599.0175172480869605
  Basis Set: (AUG-CC-PVTZ AUX)
	 Singles Energy            =      -0.0000000000000000 [Eh]
	 Same-Spin Energy          =      -0.0391937527901866 [Eh]
	 Opposite-Spin Energy      =      -0.0963021234648521 [Eh]
	 Correlation Energy        =      -0.1354958762550388 [Eh]
	 Total Energy              =    -599.1530131243418964 [Eh]
	 SCS Total Energy          =    -599.1461443805080762 [Eh]
                               Psi4 1.9 release
    Molecular point group: c1

    Geometry (in Bohr), charge = 1, multiplicity = 1:

       Center              X                  Y                   Z               Mass
    ------------   -----------------  -----------------  -----------------  -----------------
         K            0.000000000000     0.000000000000     0.000000000000    38.963706486400
         O            4.528311030186     1.465686700714    -0.853855742253    15.994914619570
         H            5.407422962106     0.677512169404    -2.291631188094     1.007825032230
         H            5.602737495529     1.280818573313     0.640437632548     1.007825032230
         O           -1.520726863844     4.805860775410     1.891700889259    15.994914619570
         H           -1.153398120125     6.503303488151     1.455725954307     1.007825032230
         H           -1.496385301622     4.900364089218     3.656508558919     1.007825032230
         O            2.326052549469    -3.532253396992    -2.410035757937    15.994914619570
         H            2.996423443845    -3.144942689223    -4.069959848182     1.007825032230
         H            2.276541724982    -5.282831428928    -2.243184279416     1.007825032230
         O           -2.288845731785     3.323659758086    -3.150865090900    15.994914619570
         H           -3.611453708636     4.104755375330    -2.083863359504     1.007825032230
         H           -1.619257184026     4.509935333342    -4.247117892992     1.007825032230
         O            1.690316555521    -0.931279711339     4.808640562541    15.994914619570
         H            3.457543074622    -0.631215769056     4.859835133006     1.007825032230
         H            1.262533583323    -1.678551120664     6.490018713489     1.007825032230
         O           -3.747517769122    -2.884005526367     2.221442980342    15.994914619570
         H           -4.353624747149    -1.893622740729     3.672110137811     1.007825032230
         H           -3.225267387912    -4.568218266503     2.817668580459     1.007825032230

  Charge       = 1
  Multiplicity = 1
  Basis Set: AUG-CC-PVTZ
    Blend: AUG-CC-PVTZ
  Basis Set: (AUG-CC-PVTZ AUX)
    Blend: AUG-CC-PVTZ-JKFIT + DEF2-UNIVERSAL-JKFIT

    Orbital Energies [Eh]
    ---------------------

    Doubly Occupied:

       1A   -133.555984     2A    -20.713856     3A    -20.706902
       4A    -20.705072     5A    -20.696862     6A    -20.696298
       7A    -20.678021     8A    -14.514874     9A    -11.544647
      10A    -11.544595    11A    -11.544538    12A     -1.781487
      13A     -1.501351    14A     -1.499349    15A     -1.492672
      16A     -1.482415    17A     -1.468647    18A     -1.467206
      19A     -0.995338    20A     -0.993866    21A     -0.992151
      22A     -0.874379    23A     -0.858624    24A     -0.855825
      25A     -0.850426    26A     -0.844110    27A     -0.839779
      28A     -0.738352    29A     -0.733308    30A     -0.729285
      31A     -0.720529    32A     -0.703934    33A     -0.697213
      34A     -0.662630    35A     -0.657347    36A     -0.647931
      37A     -0.645097    38A     -0.637256    39A     -0.626140

  @DF-RHF Final Energy: -1055.45994384681489

   => Energetics <=

    Nuclear Repulsion Energy =            464.7427316474760346
    One-Electron Energy =               -2372.6087429874746704
    Two-Electron Energy =                 852.4060674931838548
    Total Energy =                      -1055.4599438468148946
 Dipole X            :        -12.0796394           13.4445340            1.3648946
 Dipole Y            :        -22.6466236           22.7586558            0.1120322
 Dipole Z            :        -27.3485423           28.7127709            1.3642285
 Magnitude           :                                                    1.9330308
  Basis Set: (AUG-CC-PVTZ AUX)
    Blend: AUG-CC-PVTZ-RI + DEF2-QZVPP-RI
	 Reference Energy          =   -1055.4599438468148946 [Eh]
	 Singles Energy            =      -0.0000000000000000 [Eh]
	 Same-Spin Energy          =      -0.4577038715847143 [Eh]
	 Opposite-Spin Energy      =      -1.3956038110886293 [Eh]
	 Correlation Energy        =      -1.8533076826733437 [Eh]
	 Total Energy              =   -1057.3132515294882978 [Eh]

	 ================> DF-SCS-MP2 Energies <==================
	-----------------------------------------------------------
	 SCS Same-Spin Scale       =       0.3333333333333333 [-]
	 SCS Opposite-Spin Scale   =       1.2000000000000000 [-]
	 SCS Same-Spin Energy      =      -0.1525679571949048 [Eh]
	 SCS Opposite-Spin Energy  =      -1.6747245733063552 [Eh]
	 SCS Correlation Energy    =      -1.8272925305012599 [Eh]
	 SCS Total Energy          =   -1057.2872363773160487 [Eh]
	-----------------------------------------------------------

*** Psi4 exiting successfully. Buy a developer a beer!
