                               Psi4 1.9 release

  ==> Input File <==

--------------------------------------------------------------------------
MEMORY 60 GB

molecule dimer {
0 1
Gh(K)      0.000000     0.000000     0.000000
Gh(O)     -1.333192     2.296700    -0.143276
Gh(H)     -1.880572     2.324349     0.647278
Gh(H)     -0.939747     3.150442    -0.123998
Gh(O)      1.513983    -2.323742    -0.943847
Gh(H)      2.366267    -2.226553    -1.343372
Gh(H)      0.936856    -2.841776    -1.569285
Gh(O)     -2.132906    -0.990787    -1.068623
Gh(H)     -2.264157    -1.131510    -1.972940
Gh(H)     -2.972426    -0.581761    -0.773426
Gh(O)     -1.301569    -1.185610     1.910969
Gh(H)     -1.209146    -1.149223     2.904024
Gh(H)     -2.251409    -1.284523     1.765089
Gh(O)     -0.090714     1.371623     2.527585
Gh(H)      0.344682     2.259132     2.564693
Gh(H)     -0.971008     1.365010     2.948526
O          1.429543     1.188070    -2.089276
H          2.048565     0.859537    -2.779898
H          1.883227     1.964633    -1.731157

units ang
no_reorient
no_com
symmetry c1
}

set {
basis        aug-cc-pVTZ
scf_type     df
}

energy("mp2")
--------------------------------------------------------------------------

    Molecular point group: c1

    Geometry (in Angstrom), charge = 0, multiplicity = 1:

       Center              X                  Y                   Z               Mass
    ------------   -----------------  -----------------  -----------------  -----------------
      Gh(K)           0.000000000000     0.000000000000     0.000000000000    38.963706486400
      Gh(O)          -1.333192000000     2.296700000000    -0.143276000000    15.994914619570
      Gh(H)          -1.880572000000     2.324349000000     0.647278000000     1.007825032230
      Gh(H)          -0.939747000000     3.150442000000    -0.123998000000     1.007825032230
      Gh(O)           1.513983000000    -2.323742000000    -0.943847000000    15.994914619570
      Gh(H)           2.366267000000    -2.226553000000    -1.343372000000     1.007825032230
      Gh(H)           0.936856000000    -2.841776000000    -1.569285000000     1.007825032230
      Gh(O)          -2.132906000000    -0.990787000000    -1.068623000000    15.994914619570
      Gh(H)          -2.264157000000    -1.131510000000    -1.972940000000     1.007825032230
      Gh(H)          -2.972426000000    -0.581761000000    -0.773426000000     1.007825032230
      Gh(O)          -1.301569000000    -1.185610000000     1.910969000000    15.994914619570
      Gh(H)          -1.209146000000    -1.149223000000     2.904024000000     1.007825032230
      Gh(H)          -2.251409000000    -1.284523000000     1.765089000000     1.007825032230
      Gh(O)          -0.090714000000     1.371623000000     2.527585000000    15.994914619570
      Gh(H)           0.344682000000     2.259132000000     2.564693000000     1.007825032230
      Gh(H)          -0.971008000000     1.365010000000     2.948526000000     1.007825032230
         O            1.429543000000     1.188070000000    -2.089276000000    15.994914619570
         H            2.048565000000     0.859537000000    -2.779898000000     1.007825032230
         H            1.883227000000     1.964633000000    -1.731157000000     1.007825032230

  Charge       = 0
  Multiplicity = 1
  Basis Set: AUG-CC-PVTZ
    Blend: AUG-CC-PVTZ
  Basis Set: (AUG-CC-PVTZ AUX)
    Blend: AUG-CC-PVTZ-JKFIT + DEF2-UNIVERSAL-JKFIT

    Orbital Energies [Eh]
    ---------------------

    Doubly Occupied:

       1A    -20.570802     2A     -1.344834     3A     -0.705627
       4A     -0.583317     5A     -0.509136

  @DF-RHF Final Energy:   -76.05862440860437

   => Energetics <=

    Nuclear Repulsion Energy =              9.0210767538505028
    One-Electron Energy =                -122.7319682468797595
    Two-Electron Energy =                  37.6522670844248708
    Total Energy =                        -76.0586244086043735
 Dipole X            :        -28.3388337           29.0415681            0.7027344
 Dipole Y            :        -23.0021397           23.2979232            0.2957834
 Dipole Z            :         39.8939161          -40.1099340           -0.2160179
 Magnitude           :                                                    0.7924564
  Basis Set: (AUG-CC-PVTZ AUX)
    Blend: AUG-CC-PVTZ-RI + DEF2-QZVPP-RI
	 Reference Energy          =     -76.0586244086043735 [Eh]
	 Singles Energy            =      -0.0000000000000000 [Eh]
	 Same-Spin Energy          =      -0.0687303971374953 [Eh]
	 Opposite-Spin Energy      =      -0.2165989954181503 [Eh]
	 Correlation Energy        =      -0.2853293925556456 [Eh]
	 Total Energy              =     -76.3439538011600121 [Eh]

	 ================> DF-SCS-MP2 Energies <==================
	-----------------------------------------------------------
	 SCS Same-Spin Scale       =       0.3333333333333333 [-]
	 SCS Opposite-Spin Scale   =       1.2000000000000000 [-]
	 SCS Same-Spin Energy      =      -0.0229101323791651 [Eh]
	 SCS Opposite-Spin Energy  =      -0.2599187945017803 [Eh]
	 SCS Correlation Energy    =      -0.2828289268809455 [Eh]
	 SCS Total Energy          =     -76.3414533354853120 [Eh]
	-----------------------------------------------------------

*** Psi4 exiting successfully. Buy a developer a beer!
