                               Psi4 1.9 release

  ==> Input File <==

--------------------------------------------------------------------------
MEMORY 60 GB

molecule dimer {
1 1
K          0.000000     0.000000     0.000000
Gh(O)     -2.378824    -0.553695    -1.241651
Gh(H)     -2.664634     0.170642    -1.832911
Gh(H)     -3.267881    -0.958953    -1.026544
Gh(O)     -0.572456     1.699591    -1.947811
Gh(H)      0.254456     1.982503    -2.411827
Gh(H)     -1.309166     1.752655    -2.525546
Gh(O)      1.126668    -1.511622     1.935966
Gh(H)      0.956395    -2.429284     2.079445
Gh(H)      0.857351    -1.103993     2.793336
Gh(O)     -1.604414     0.849184     2.083256
Gh(H)     -2.481291     0.626327     1.722143
Gh(H)     -1.459611     0.357911     2.901958

units ang
no_reorient
no_com
symmetry c1
}

set {
basis        aug-cc-pVTZ
scf_type     df
}

energy("mp2")
--------------------------------------------------------------------------

    Molecular point group: c1

    Geometry (in Angstrom), charge = 1, multiplicity = 1:

       Center              X                  Y                   Z               Mass
    ------------   -----------------  -----------------  -----------------  -----------------
         K            0.000000000000     0.000000000000     0.000000000000    38.963706486400
      Gh(O)          -2.378824000000    -0.553695000000    -1.241651000000    15.994914619570
      Gh(H)          -2.664634000000     0.170642000000    -1.832911000000     1.007825032230
      Gh(H)          -3.267881000000    -0.958953000000    -1.026544000000     1.007825032230
      Gh(O)          -0.572456000000     1.699591000000    -1.947811000000    15.994914619570
      Gh(H)           0.254456000000     1.982503000000    -2.411827000000     1.007825032230
      Gh(H)          -1.309166000000     1.752655000000    -2.525546000000     1.007825032230
      Gh(O)           1.126668000000    -1.511622000000     1.935966000000    15.994914619570
      Gh(H)           0.956395000000    -2.429284000000     2.079445000000     1.007825032230
      Gh(H)           0.857351000000    -1.103993000000     2.793336000000     1.007825032230
      Gh(O)          -1.604414000000     0.849184000000     2.083256000000    15.994914619570
      Gh(H)          -2.481291000000     0.626327000000     1.722143000000     1.007825032230
      Gh(H)          -1.459611000000     0.357911000000     2.901958000000     1.007825032230

  Charge       = 1
  Multiplicity = 1
  Basis Set: AUG-CC-PVTZ
    Blend: AUG-CC-PVTZ
  Basis Set: (AUG-CC-PVTZ AUX)
    Blend: AUG-CC-PVTZ-JKFIT + DEF2-UNIVERSAL-JKFIT

    Orbital Energies [Eh]
    ---------------------

    Doubly Occupied:

       1A   -133.752816     2A    -14.708450     3A    -11.738513
       4A    -11.738512     5A    -11.738510     6A     -1.963998
       7A     -1.170709     8A     -1.170670     9A     -1.170645

  @DF-RHF Final Energy:  -599.01751451055031

   => Energetics <=

    Nuclear Repulsion Energy =              0.0000000000000000
    One-Electron Energy =                -819.7293825498659317
    Two-Electron Energy =                 220.7118680393155898
    Total Energy =                       -599.0175145105503134
 Dipole X            :         -0.0002816            0.0000000           -0.0002816
 Dipole Y            :          0.0000300            0.0000000            0.0000300
 Dipole Z            :          0.0000926            0.0000000            0.0000926
 Magnitude           :                                                    0.0002980
  Basis Set: (AUG-CC-PVTZ AUX)
    Blend: AUG-CC-PVTZ-RI + DEF2-QZVPP-RI
	 Reference Energy          =    -599.0175145105503134 [Eh]
	 Singles Energy            =      -0.0000000000000000 [Eh]
	 Same-Spin Energy          =      -0.0349531118416167 [Eh]
	 Opposite-Spin Energy      =      -0.0845564239741963 [Eh]
	 Correlation Energy        =      -0.1195095358158130 [Eh]
	 Total Energy              =    -599.1370240463661503 [Eh]

	 ================> DF-SCS-MP2 Energies <==================
	-----------------------------------------------------------
	 SCS Same-Spin Scale       =       0.3333333333333333 [-]
	 SCS Opposite-Spin Scale   =       1.2000000000000000 [-]
	 SCS Same-Spin Energy      =      -0.0116510372805389 [Eh]
	 SCS Opposite-Spin Energy  =      -0.1014677087690356 [Eh]
	 SCS Correlation Energy    =      -0.1131187460495745 [Eh]
	 SCS Total Energy          =    -599.1306332565999355 [Eh]
	-----------------------------------------------------------

*** Psi4 exiting successfully. Buy a developer a beer!
