                               Psi4 1.9 release

  ==> Input File <==

--------------------------------------------------------------------------
MEMORY 60 GB

molecule dimer {
1 1
K          0.000000     0.000000     0.000000
O         -1.748582    -1.917623     0.824916
H         -1.927657    -2.525574     0.033501
H         -1.050096    -2.347738     1.319853
O         -1.621019    -0.026661    -2.495029
H         -2.157829     0.783290    -2.142273
H         -0.938955     0.298904    -3.093444
O          1.590594     2.164731    -0.894823
H          1.235565     3.044904    -0.640630
H          1.783507     2.237495    -1.824659
O         -1.616151     1.949068     0.718448
H         -1.919618     2.437775    -0.050766
H         -2.417592     1.668498     1.285757
O          1.392847    -1.450900    -1.792945
H          2.296831    -1.347027    -1.608727
H          1.207511    -1.120090    -2.693635

units ang
no_reorient
no_com
symmetry c1
}

set {
basis        aug-cc-pVTZ
scf_type     df
}

energy("mp2")
--------------------------------------------------------------------------

    Molecular point group: c1

    Geometry (in Angstrom), charge = 1, multiplicity = 1:

       Center              X                  Y                   Z               Mass
    ------------   -----------------  -----------------  -----------------  -----------------
         K            0.000000000000     0.000000000000     0.000000000000    38.963706486400
         O           -1.748582000000    -1.917623000000     0.824916000000    15.994914619570
         H           -1.927657000000    -2.525574000000     0.033501000000     1.007825032230
         H           -1.050096000000    -2.347738000000     1.319853000000     1.007825032230
         O           -1.621019000000    -0.026661000000    -2.495029000000    15.994914619570
         H           -2.157829000000     0.783290000000    -2.142273000000     1.007825032230
         H           -0.938955000000     0.298904000000    -3.093444000000     1.007825032230
         O            1.590594000000     2.164731000000    -0.894823000000    15.994914619570
         H            1.235565000000     3.044904000000    -0.640630000000     1.007825032230
         H            1.783507000000     2.237495000000    -1.824659000000     1.007825032230
         O           -1.616151000000     1.949068000000     0.718448000000    15.994914619570
         H           -1.919618000000     2.437775000000    -0.050766000000     1.007825032230
         H           -2.417592000000     1.668498000000     1.285757000000     1.007825032230
         O            1.392847000000    -1.450900000000    -1.792945000000    15.994914619570
         H            2.296831000000    -1.347027000000    -1.608727000000     1.007825032230
         H            1.207511000000    -1.120090000000    -2.693635000000     1.007825032230

  Charge       = 1
  Multiplicity = 1
  Basis Set: AUG-CC-PVTZ
    Blend: AUG-CC-PVTZ
  Basis Set: (AUG-CC-PVTZ AUX)
    Blend: AUG-CC-PVTZ-JKFIT + DEF2-UNIVERSAL-JKFIT

    Orbital Energies [Eh]
    ---------------------

    Doubly Occupied:

       1A   -133.609557     2A    -20.728171     3A    -20.725094
       4A    -20.722830     5A    -20.718523     6A    -20.712730
       7A    -14.567646     8A    -11.597569     9A    -11.597369
      10A    -11.597359    11A     -1.831446    12A     -1.511173
      13A     -1.504854    14A     -1.497577    15A     -1.486509
      16A     -1.484910    17A     -1.043370    18A     -1.041009
      19A     -1.039688    20A     -0.886230    21A     -0.871046
      22A     -0.867636    23A     -0.855797    24A     -0.847052
      25A     -0.743901    26A     -0.739941    27A     -0.733954
      28A     -0.724548    29A     -0.723279    30A     -0.673736
      31A     -0.668684    32A     -0.666899    33A     -0.660532
      34A     -0.654841

  @DF-RHF Final Energy:  -979.37110437242904

   => Energetics <=

    Nuclear Repulsion Energy =            350.7900578309574939
    One-Electron Energy =               -2039.6513960262466298
    Two-Electron Energy =                 709.4902338228600911
    Total Energy =                       -979.3711043724290448
 Dipole X            :         37.5316045          -37.6184397           -0.0868352
 Dipole Y            :        -15.6292662           16.7795529            1.1502867
 Dipole Z            :         71.1940220          -72.8120679           -1.6180459
 Magnitude           :                                                    1.9871518
  Basis Set: (AUG-CC-PVTZ AUX)
    Blend: AUG-CC-PVTZ-RI + DEF2-QZVPP-RI
	 Reference Energy          =    -979.3711043724290448 [Eh]
	 Singles Energy            =      -0.0000000000000000 [Eh]
	 Same-Spin Energy          =      -0.3861521898529714 [Eh]
	 Opposite-Spin Energy      =      -1.1764399559829992 [Eh]
	 Correlation Energy        =      -1.5625921458359706 [Eh]
	 Total Energy              =    -980.9336965182650374 [Eh]

	 ================> DF-SCS-MP2 Energies <==================
	-----------------------------------------------------------
	 SCS Same-Spin Scale       =       0.3333333333333333 [-]
	 SCS Opposite-Spin Scale   =       1.2000000000000000 [-]
	 SCS Same-Spin Energy      =      -0.1287173966176571 [Eh]
	 SCS Opposite-Spin Energy  =      -1.4117279471795989 [Eh]
	 SCS Correlation Energy    =      -1.5404453437972561 [Eh]
	 SCS Total Energy          =    -980.9115497162263182 [Eh]
	-----------------------------------------------------------

*** Psi4 exiting successfully. Buy a developer a beer!
