                               Psi4 1.9 release

  ==> Input File <==

--------------------------------------------------------------------------
MEMORY 60 GB

molecule dimer {
0 1
Gh(K)      0.000000     0.000000     0.000000
Gh(O)      0.293827     2.618771    -0.398133
Gh(H)     -0.603386     2.977651    -0.383603
Gh(H)      0.504951     2.523150    -1.349400
O          2.290662    -1.154012     1.170513
H          2.200413    -1.828377     1.847435
H          2.800025    -0.449315     1.581926
Gh(O)     -0.679679    -1.715755     2.067459
Gh(H)      0.176766    -2.136211     2.260417
Gh(H)     -1.317277    -2.272083     1.599994
Gh(O)     -2.767030     0.221449     0.099673
Gh(H)     -3.057655     0.587440     0.925810
Gh(H)     -3.142942    -0.646895     0.189675

units ang
no_reorient
no_com
symmetry c1
}

set {
basis        aug-cc-pVTZ
scf_type     df
}

energy("mp2")
--------------------------------------------------------------------------

    Molecular point group: c1

    Geometry (in Angstrom), charge = 0, multiplicity = 1:

       Center              X                  Y                   Z               Mass
    ------------   -----------------  -----------------  -----------------  -----------------
      Gh(K)           0.000000000000     0.000000000000     0.000000000000    38.963706486400
      Gh(O)           0.293827000000     2.618771000000    -0.398133000000    15.994914619570
      Gh(H)          -0.603386000000     2.977651000000    -0.383603000000     1.007825032230
      Gh(H)           0.504951000000     2.523150000000    -1.349400000000     1.007825032230
         O            2.290662000000    -1.154012000000     1.170513000000    15.994914619570
         H            2.200413000000    -1.828377000000     1.847435000000     1.007825032230
         H            2.800025000000    -0.449315000000     1.581926000000     1.007825032230
      Gh(O)          -0.679679000000    -1.715755000000     2.067459000000    15.994914619570
      Gh(H)           0.176766000000    -2.136211000000     2.260417000000     1.007825032230
      Gh(H)          -1.317277000000    -2.272083000000     1.599994000000     1.007825032230
      Gh(O)          -2.767030000000     0.221449000000     0.099673000000    15.994914619570
      Gh(H)          -3.057655000000     0.587440000000     0.925810000000     1.007825032230
      Gh(H)          -3.142942000000    -0.646895000000     0.189675000000     1.007825032230

  Charge       = 0
  Multiplicity = 1
  Basis Set: AUG-CC-PVTZ
    Blend: AUG-CC-PVTZ
  Basis Set: (AUG-CC-PVTZ AUX)
    Blend: AUG-CC-PVTZ-JKFIT + DEF2-UNIVERSAL-JKFIT

    Orbital Energies [Eh]
    ---------------------

    Doubly Occupied:

       1A    -20.567377     2A     -1.351144     3A     -0.717194
       4A     -0.582760     5A     -0.509821

  @DF-RHF Final Energy:   -76.06044597702535

   => Energetics <=

    Nuclear Repulsion Energy =              9.1584208406631475
    One-Electron Energy =                -122.9811393732947806
    Two-Electron Energy =                  37.7622725556062875
    Total Energy =                        -76.0604459770253385
 Dipole X            :        -43.8004723           44.0792489            0.2787766
 Dipole Y            :         21.7701017          -21.7503471            0.0197547
 Dipole Z            :        -23.4522114           24.1761450            0.7239336
 Magnitude           :                                                    0.7760068
  Basis Set: (AUG-CC-PVTZ AUX)
    Blend: AUG-CC-PVTZ-RI + DEF2-QZVPP-RI
	 Reference Energy          =     -76.0604459770253527 [Eh]
	 Singles Energy            =      -0.0000000000000000 [Eh]
	 Same-Spin Energy          =      -0.0684365122494811 [Eh]
	 Opposite-Spin Energy      =      -0.2157375893737524 [Eh]
	 Correlation Energy        =      -0.2841741016232335 [Eh]
	 Total Energy              =     -76.3446200786485889 [Eh]

	 ================> DF-SCS-MP2 Energies <==================
	-----------------------------------------------------------
	 SCS Same-Spin Scale       =       0.3333333333333333 [-]
	 SCS Opposite-Spin Scale   =       1.2000000000000000 [-]
	 SCS Same-Spin Energy      =      -0.0228121707498270 [Eh]
	 SCS Opposite-Spin Energy  =      -0.2588851072485029 [Eh]
	 SCS Correlation Energy    =      -0.2816972779983299 [Eh]
	 SCS Total Energy          =     -76.3421432550236858 [Eh]
	-----------------------------------------------------------

*** Psi4 exiting successfully. Buy a developer a beer!
