                               Psi4 1.9 release

  ==> Input File <==

--------------------------------------------------------------------------
MEMORY 60 GB

molecule dimer {
0 1
Gh(K)      0.000000     0.000000     0.000000
O         -0.502703    -2.334457    -1.283675
H          0.237008    -2.749133    -1.803266
H         -1.286908    -2.624519    -1.722892
Gh(O)      2.099037     0.906527     1.636457
Gh(H)      2.896740     1.100518     1.113670
Gh(H)      1.969279     1.530828     2.370669
Gh(O)      0.462307     2.678042    -0.359156
Gh(H)      0.213104     2.711476    -1.330404
Gh(H)      1.161890     3.384492    -0.307642
Gh(O)      1.843513    -0.310552    -1.771290
Gh(H)      2.148881     0.527834    -2.195735
Gh(H)      2.570572    -0.916573    -1.716041
Gh(O)     -2.431167     1.182859    -0.447565
Gh(H)     -2.521700     1.224046    -1.399351
Gh(H)     -2.195533     2.014004     0.091471

units ang
no_reorient
no_com
symmetry c1
}

set {
basis        aug-cc-pVTZ
scf_type     df
}

energy("mp2")
--------------------------------------------------------------------------

    Molecular point group: c1

    Geometry (in Angstrom), charge = 0, multiplicity = 1:

       Center              X                  Y                   Z               Mass
    ------------   -----------------  -----------------  -----------------  -----------------
      Gh(K)           0.000000000000     0.000000000000     0.000000000000    38.963706486400
         O           -0.502703000000    -2.334457000000    -1.283675000000    15.994914619570
         H            0.237008000000    -2.749133000000    -1.803266000000     1.007825032230
         H           -1.286908000000    -2.624519000000    -1.722892000000     1.007825032230
      Gh(O)           2.099037000000     0.906527000000     1.636457000000    15.994914619570
      Gh(H)           2.896740000000     1.100518000000     1.113670000000     1.007825032230
      Gh(H)           1.969279000000     1.530828000000     2.370669000000     1.007825032230
      Gh(O)           0.462307000000     2.678042000000    -0.359156000000    15.994914619570
      Gh(H)           0.213104000000     2.711476000000    -1.330404000000     1.007825032230
      Gh(H)           1.161890000000     3.384492000000    -0.307642000000     1.007825032230
      Gh(O)           1.843513000000    -0.310552000000    -1.771290000000    15.994914619570
      Gh(H)           2.148881000000     0.527834000000    -2.195735000000     1.007825032230
      Gh(H)           2.570572000000    -0.916573000000    -1.716041000000     1.007825032230
      Gh(O)          -2.431167000000     1.182859000000    -0.447565000000    15.994914619570
      Gh(H)          -2.521700000000     1.224046000000    -1.399351000000     1.007825032230
      Gh(H)          -2.195533000000     2.014004000000     0.091471000000     1.007825032230

  Charge       = 0
  Multiplicity = 1
  Basis Set: AUG-CC-PVTZ
    Blend: AUG-CC-PVTZ
  Basis Set: (AUG-CC-PVTZ AUX)
    Blend: AUG-CC-PVTZ-JKFIT + DEF2-UNIVERSAL-JKFIT

    Orbital Energies [Eh]
    ---------------------

    Doubly Occupied:

       1A    -20.569215     2A     -1.348042     3A     -0.710872
       4A     -0.582779     5A     -0.509455

  @DF-RHF Final Energy:   -76.05841007096726

   => Energetics <=

    Nuclear Repulsion Energy =              9.0846062132999865
    One-Electron Energy =                -122.8453033703818278
    Two-Electron Energy =                  37.7022870861145734
    Total Energy =                        -76.0584100709672555
 Dipole X            :          9.5456714           -9.5837914           -0.0381199
 Dipole Y            :         44.9820500          -45.4466056           -0.4645557
 Dipole Z            :         25.4377127          -26.0698264           -0.6321137
 Magnitude           :                                                    0.7853871
  Basis Set: (AUG-CC-PVTZ AUX)
    Blend: AUG-CC-PVTZ-RI + DEF2-QZVPP-RI
	 Reference Energy          =     -76.0584100709672555 [Eh]
	 Singles Energy            =      -0.0000000000000000 [Eh]
	 Same-Spin Energy          =      -0.0685901792315149 [Eh]
	 Opposite-Spin Energy      =      -0.2162028986490414 [Eh]
	 Correlation Energy        =      -0.2847930778805563 [Eh]
	 Total Energy              =     -76.3432031488478060 [Eh]

	 ================> DF-SCS-MP2 Energies <==================
	-----------------------------------------------------------
	 SCS Same-Spin Scale       =       0.3333333333333333 [-]
	 SCS Opposite-Spin Scale   =       1.2000000000000000 [-]
	 SCS Same-Spin Energy      =      -0.0228633930771716 [Eh]
	 SCS Opposite-Spin Energy  =      -0.2594434783788496 [Eh]
	 SCS Correlation Energy    =      -0.2823068714560213 [Eh]
	 SCS Total Energy          =     -76.3407169424232706 [Eh]
	-----------------------------------------------------------

*** Psi4 exiting successfully. Buy a developer a beer!
