                               Psi4 1.9 release

  ==> Input File <==

--------------------------------------------------------------------------
MEMORY 60 GB

molecule dimer {
1 1
K          0.000000     0.000000     0.000000
O         -1.457044    -2.550395     0.407014
H         -0.947257    -2.879841     1.151043
H         -2.328321    -2.243661     0.699340
O          2.038414    -1.767961     0.341126
H          2.837008    -1.255039     0.326724
H          1.966681    -2.473380    -0.315675
O         -1.661440     0.175056     1.991238
H         -0.975522     0.765504     2.308795
H         -2.384597     0.634620     1.603907
O          1.704232     1.691653    -1.239466
H          1.159358     2.227433    -1.799160
H          1.823795     2.247273    -0.485218
O         -1.743882     0.339578    -1.736908
H         -2.201474    -0.503521    -1.987939
H         -2.102341     0.953944    -2.383414

units ang
no_reorient
no_com
symmetry c1
}

set {
basis        aug-cc-pVTZ
scf_type     df
}

energy("mp2")
--------------------------------------------------------------------------

    Molecular point group: c1

    Geometry (in Angstrom), charge = 1, multiplicity = 1:

       Center              X                  Y                   Z               Mass
    ------------   -----------------  -----------------  -----------------  -----------------
         K            0.000000000000     0.000000000000     0.000000000000    38.963706486400
         O           -1.457044000000    -2.550395000000     0.407014000000    15.994914619570
         H           -0.947257000000    -2.879841000000     1.151043000000     1.007825032230
         H           -2.328321000000    -2.243661000000     0.699340000000     1.007825032230
         O            2.038414000000    -1.767961000000     0.341126000000    15.994914619570
         H            2.837008000000    -1.255039000000     0.326724000000     1.007825032230
         H            1.966681000000    -2.473380000000    -0.315675000000     1.007825032230
         O           -1.661440000000     0.175056000000     1.991238000000    15.994914619570
         H           -0.975522000000     0.765504000000     2.308795000000     1.007825032230
         H           -2.384597000000     0.634620000000     1.603907000000     1.007825032230
         O            1.704232000000     1.691653000000    -1.239466000000    15.994914619570
         H            1.159358000000     2.227433000000    -1.799160000000     1.007825032230
         H            1.823795000000     2.247273000000    -0.485218000000     1.007825032230
         O           -1.743882000000     0.339578000000    -1.736908000000    15.994914619570
         H           -2.201474000000    -0.503521000000    -1.987939000000     1.007825032230
         H           -2.102341000000     0.953944000000    -2.383414000000     1.007825032230

  Charge       = 1
  Multiplicity = 1
  Basis Set: AUG-CC-PVTZ
    Blend: AUG-CC-PVTZ
  Basis Set: (AUG-CC-PVTZ AUX)
    Blend: AUG-CC-PVTZ-JKFIT + DEF2-UNIVERSAL-JKFIT

    Orbital Energies [Eh]
    ---------------------

    Doubly Occupied:

       1A   -133.604238     2A    -20.734044     3A    -20.722746
       4A    -20.721991     5A    -20.704846     6A    -20.693309
       7A    -14.563195     8A    -11.593048     9A    -11.592842
      10A    -11.592793    11A     -1.829985    12A     -1.521833
      13A     -1.518111    14A     -1.515100    15A     -1.491959
      16A     -1.475724    17A     -1.044404    18A     -1.040879
      19A     -1.038762    20A     -0.900545    21A     -0.883863
      22A     -0.878135    23A     -0.868670    24A     -0.854157
      25A     -0.762817    26A     -0.753008    27A     -0.737290
      28A     -0.713043    29A     -0.704098    30A     -0.680225
      31A     -0.677948    32A     -0.671701    33A     -0.655339
      34A     -0.638982

  @DF-RHF Final Energy:  -979.37960255669225

   => Energetics <=

    Nuclear Repulsion Energy =            356.8627084788347474
    One-Electron Energy =               -2051.7253565483156308
    Two-Electron Energy =                 715.4830455127886353
    Total Energy =                       -979.3796025566922481
 Dipole X            :         22.1825415          -22.8853960           -0.7028545
 Dipole Y            :         37.7210106          -36.7045663            1.0164443
 Dipole Z            :          4.8604409           -5.2488371           -0.3883962
 Magnitude           :                                                    1.2953822
  Basis Set: (AUG-CC-PVTZ AUX)
    Blend: AUG-CC-PVTZ-RI + DEF2-QZVPP-RI
	 Reference Energy          =    -979.3796025566922481 [Eh]
	 Singles Energy            =      -0.0000000000000000 [Eh]
	 Same-Spin Energy          =      -0.3863385597018325 [Eh]
	 Opposite-Spin Energy      =      -1.1743105117820465 [Eh]
	 Correlation Energy        =      -1.5606490714838790 [Eh]
	 Total Energy              =    -980.9402516281761564 [Eh]

	 ================> DF-SCS-MP2 Energies <==================
	-----------------------------------------------------------
	 SCS Same-Spin Scale       =       0.3333333333333333 [-]
	 SCS Opposite-Spin Scale   =       1.2000000000000000 [-]
	 SCS Same-Spin Energy      =      -0.1287795199006108 [Eh]
	 SCS Opposite-Spin Energy  =      -1.4091726141384557 [Eh]
	 SCS Correlation Energy    =      -1.5379521340390665 [Eh]
	 SCS Total Energy          =    -980.9175546907313219 [Eh]
	-----------------------------------------------------------

*** Psi4 exiting successfully. Buy a developer a beer!
