                               Psi4 1.9 release

  ==> Input File <==

--------------------------------------------------------------------------
MEMORY 60 GB

molecule dimer {
0 1
Gh(K)      0.000000     0.000000     0.000000
O         -1.343909    -1.211403     2.099413
H         -1.253672    -2.078427     2.385455
H         -1.877420    -0.648745     2.704831
Gh(O)     -2.397561     1.590145     0.274651
Gh(H)     -3.158315     1.280604    -0.227144
Gh(H)     -2.022053     2.285837    -0.218265
Gh(O)     -2.079589    -1.111467    -1.864902
Gh(H)     -2.298458    -0.195653    -2.049554
Gh(H)     -2.680979    -1.325544    -1.093268
Gh(O)      1.264225     2.555430     0.500886
Gh(H)      0.862716     3.053670    -0.127152
Gh(H)      2.168458     2.917047     0.643229
Gh(O)      0.684809    -2.567000     0.519199
Gh(H)      0.206735    -2.757309     1.321443
Gh(H)      0.308697    -3.187476    -0.135128
Gh(O)      1.071392    -0.945498    -2.247692
Gh(H)      1.750392    -1.483034    -1.804775
Gh(H)      0.594835    -1.550044    -2.831515

units ang
no_reorient
no_com
symmetry c1
}

set {
basis        aug-cc-pVTZ
scf_type     df
}

energy("mp2")
--------------------------------------------------------------------------

    Molecular point group: c1

    Geometry (in Angstrom), charge = 0, multiplicity = 1:

       Center              X                  Y                   Z               Mass
    ------------   -----------------  -----------------  -----------------  -----------------
      Gh(K)           0.000000000000     0.000000000000     0.000000000000    38.963706486400
         O           -1.343909000000    -1.211403000000     2.099413000000    15.994914619570
         H           -1.253672000000    -2.078427000000     2.385455000000     1.007825032230
         H           -1.877420000000    -0.648745000000     2.704831000000     1.007825032230
      Gh(O)          -2.397561000000     1.590145000000     0.274651000000    15.994914619570
      Gh(H)          -3.158315000000     1.280604000000    -0.227144000000     1.007825032230
      Gh(H)          -2.022053000000     2.285837000000    -0.218265000000     1.007825032230
      Gh(O)          -2.079589000000    -1.111467000000    -1.864902000000    15.994914619570
      Gh(H)          -2.298458000000    -0.195653000000    -2.049554000000     1.007825032230
      Gh(H)          -2.680979000000    -1.325544000000    -1.093268000000     1.007825032230
      Gh(O)           1.264225000000     2.555430000000     0.500886000000    15.994914619570
      Gh(H)           0.862716000000     3.053670000000    -0.127152000000     1.007825032230
      Gh(H)           2.168458000000     2.917047000000     0.643229000000     1.007825032230
      Gh(O)           0.684809000000    -2.567000000000     0.519199000000    15.994914619570
      Gh(H)           0.206735000000    -2.757309000000     1.321443000000     1.007825032230
      Gh(H)           0.308697000000    -3.187476000000    -0.135128000000     1.007825032230
      Gh(O)           1.071392000000    -0.945498000000    -2.247692000000    15.994914619570
      Gh(H)           1.750392000000    -1.483034000000    -1.804775000000     1.007825032230
      Gh(H)           0.594835000000    -1.550044000000    -2.831515000000     1.007825032230

  Charge       = 0
  Multiplicity = 1
  Basis Set: AUG-CC-PVTZ
    Blend: AUG-CC-PVTZ
  Basis Set: (AUG-CC-PVTZ AUX)
    Blend: AUG-CC-PVTZ-JKFIT + DEF2-UNIVERSAL-JKFIT

    Orbital Energies [Eh]
    ---------------------

    Doubly Occupied:

       1A    -20.561437     2A     -1.351661     3A     -0.738622
       4A     -0.568120     5A     -0.508198

  @DF-RHF Final Energy:   -76.05725400078147

   => Energetics <=

    Nuclear Repulsion Energy =              9.2501283931796010
    One-Electron Energy =                -123.1586866610361000
    Two-Electron Energy =                  37.8513042670750366
    Total Energy =                        -76.0572540007814695
 Dipole X            :         25.9319931          -26.2338659           -0.3018728
 Dipole Y            :         23.2503631          -23.4673674           -0.2170043
 Dipole Z            :        -40.7456909           41.3577712            0.6120803
 Magnitude           :                                                    0.7161427
  Basis Set: (AUG-CC-PVTZ AUX)
    Blend: AUG-CC-PVTZ-RI + DEF2-QZVPP-RI
	 Reference Energy          =     -76.0572540007814695 [Eh]
	 Singles Energy            =      -0.0000000000000000 [Eh]
	 Same-Spin Energy          =      -0.0681928908213909 [Eh]
	 Opposite-Spin Energy      =      -0.2149917516775236 [Eh]
	 Correlation Energy        =      -0.2831846424989145 [Eh]
	 Total Energy              =     -76.3404386432803790 [Eh]

	 ================> DF-SCS-MP2 Energies <==================
	-----------------------------------------------------------
	 SCS Same-Spin Scale       =       0.3333333333333333 [-]
	 SCS Opposite-Spin Scale   =       1.2000000000000000 [-]
	 SCS Same-Spin Energy      =      -0.0227309636071303 [Eh]
	 SCS Opposite-Spin Energy  =      -0.2579901020130283 [Eh]
	 SCS Correlation Energy    =      -0.2807210656201586 [Eh]
	 SCS Total Energy          =     -76.3379750664016257 [Eh]
	-----------------------------------------------------------

*** Psi4 exiting successfully. Buy a developer a beer!
