                               Psi4 1.9 release

  ==> Input File <==

--------------------------------------------------------------------------
MEMORY 60 GB

molecule dimer {
0 1
Gh(K)      0.000000     0.000000     0.000000
Gh(O)      1.049228    -1.669034    -1.809341
Gh(H)      0.923341    -2.503424    -2.246637
Gh(H)      1.822074    -1.314072    -2.217799
Gh(O)      0.777158     2.541027     1.485150
Gh(H)     -0.123721     2.501866     1.834386
Gh(H)      1.422271     2.295998     2.224463
Gh(O)     -1.106748    -2.271704     0.894727
Gh(H)     -1.448829    -2.837095     0.154476
Gh(H)     -1.856099    -1.950414     1.369169
O         -2.252317     0.862623    -0.772996
H         -2.036068     1.820633    -0.928033
H         -2.394966     0.348962    -1.611608
Gh(O)      0.750638     2.227854    -1.391270
Gh(H)      0.979748     2.389688    -2.328740
Gh(H)      1.502881     2.481555    -0.734025
Gh(O)     -0.867467    -0.146222     2.839508
Gh(H)     -1.441843    -0.931366     3.114854
Gh(H)     -0.010479    -0.244914     3.268704

units ang
no_reorient
no_com
symmetry c1
}

set {
basis        aug-cc-pVTZ
scf_type     df
}

energy("mp2")
--------------------------------------------------------------------------

    Molecular point group: c1

    Geometry (in Angstrom), charge = 0, multiplicity = 1:

       Center              X                  Y                   Z               Mass
    ------------   -----------------  -----------------  -----------------  -----------------
      Gh(K)           0.000000000000     0.000000000000     0.000000000000    38.963706486400
      Gh(O)           1.049228000000    -1.669034000000    -1.809341000000    15.994914619570
      Gh(H)           0.923341000000    -2.503424000000    -2.246637000000     1.007825032230
      Gh(H)           1.822074000000    -1.314072000000    -2.217799000000     1.007825032230
      Gh(O)           0.777158000000     2.541027000000     1.485150000000    15.994914619570
      Gh(H)          -0.123721000000     2.501866000000     1.834386000000     1.007825032230
      Gh(H)           1.422271000000     2.295998000000     2.224463000000     1.007825032230
      Gh(O)          -1.106748000000    -2.271704000000     0.894727000000    15.994914619570
      Gh(H)          -1.448829000000    -2.837095000000     0.154476000000     1.007825032230
      Gh(H)          -1.856099000000    -1.950414000000     1.369169000000     1.007825032230
         O           -2.252317000000     0.862623000000    -0.772996000000    15.994914619570
         H           -2.036068000000     1.820633000000    -0.928033000000     1.007825032230
         H           -2.394966000000     0.348962000000    -1.611608000000     1.007825032230
      Gh(O)           0.750638000000     2.227854000000    -1.391270000000    15.994914619570
      Gh(H)           0.979748000000     2.389688000000    -2.328740000000     1.007825032230
      Gh(H)           1.502881000000     2.481555000000    -0.734025000000     1.007825032230
      Gh(O)          -0.867467000000    -0.146222000000     2.839508000000    15.994914619570
      Gh(H)          -1.441843000000    -0.931366000000     3.114854000000     1.007825032230
      Gh(H)          -0.010479000000    -0.244914000000     3.268704000000     1.007825032230

  Charge       = 0
  Multiplicity = 1
  Basis Set: AUG-CC-PVTZ
    Blend: AUG-CC-PVTZ
  Basis Set: (AUG-CC-PVTZ AUX)
    Blend: AUG-CC-PVTZ-JKFIT + DEF2-UNIVERSAL-JKFIT

    Orbital Energies [Eh]
    ---------------------

    Doubly Occupied:

       1A    -20.568917     2A     -1.329573     3A     -0.713111
       4A     -0.560941     5A     -0.504495

  @DF-RHF Final Energy:   -76.05385459083234

   => Energetics <=

    Nuclear Repulsion Energy =              8.8364098731649356
    One-Electron Energy =                -122.4264521625865996
    Two-Electron Energy =                  37.5361876985893304
    Total Energy =                        -76.0538545908323300
 Dipole X            :         42.4722125          -42.4235389            0.0486735
 Dipole Y            :        -16.8438629           17.1409101            0.2970472
 Dipole Z            :         15.8210518          -16.4852318           -0.6641801
 Magnitude           :                                                    0.7292060
  Basis Set: (AUG-CC-PVTZ AUX)
    Blend: AUG-CC-PVTZ-RI + DEF2-QZVPP-RI
	 Reference Energy          =     -76.0538545908323442 [Eh]
	 Singles Energy            =      -0.0000000000000000 [Eh]
	 Same-Spin Energy          =      -0.0689394019642534 [Eh]
	 Opposite-Spin Energy      =      -0.2172392282452528 [Eh]
	 Correlation Energy        =      -0.2861786302095062 [Eh]
	 Total Energy              =     -76.3400332210418497 [Eh]

	 ================> DF-SCS-MP2 Energies <==================
	-----------------------------------------------------------
	 SCS Same-Spin Scale       =       0.3333333333333333 [-]
	 SCS Opposite-Spin Scale   =       1.2000000000000000 [-]
	 SCS Same-Spin Energy      =      -0.0229798006547511 [Eh]
	 SCS Opposite-Spin Energy  =      -0.2606870738943034 [Eh]
	 SCS Correlation Energy    =      -0.2836668745490545 [Eh]
	 SCS Total Energy          =     -76.3375214653813998 [Eh]
	-----------------------------------------------------------

*** Psi4 exiting successfully. Buy a developer a beer!
