                               Psi4 1.9 release

  ==> Input File <==

--------------------------------------------------------------------------
MEMORY 60 GB

molecule dimer {
0 1
Gh(K)      0.000000     0.000000     0.000000
Gh(O)     -1.350579    -0.451019    -2.184171
Gh(H)     -0.828374    -0.405480    -2.959027
Gh(H)     -2.295838    -0.182448    -2.477727
O          0.811714    -2.953770    -0.024877
H          0.491865    -3.516386     0.715024
H          1.703134    -3.259401    -0.070729
Gh(O)      1.439502    -0.931900     2.390588
Gh(H)      1.923833    -1.620427     2.861863
Gh(H)      0.879775    -0.561656     3.062076
Gh(O)      2.556752     0.575285    -0.926306
Gh(H)      2.963771     0.049734    -0.227753
Gh(H)      2.591393     1.523133    -0.691197
Gh(O)     -1.229385     2.374053     0.624562
Gh(H)     -0.903017     3.116669     1.152358
Gh(H)     -2.153941     2.270777     0.923160
Gh(O)     -1.464224    -0.338413     2.131283
Gh(H)     -1.017152    -0.390138     2.970331
Gh(H)     -2.307745     0.086032     2.373066

units ang
no_reorient
no_com
symmetry c1
}

set {
basis        aug-cc-pVTZ
scf_type     df
}

energy("mp2")
--------------------------------------------------------------------------

    Molecular point group: c1

    Geometry (in Angstrom), charge = 0, multiplicity = 1:

       Center              X                  Y                   Z               Mass
    ------------   -----------------  -----------------  -----------------  -----------------
      Gh(K)           0.000000000000     0.000000000000     0.000000000000    38.963706486400
      Gh(O)          -1.350579000000    -0.451019000000    -2.184171000000    15.994914619570
      Gh(H)          -0.828374000000    -0.405480000000    -2.959027000000     1.007825032230
      Gh(H)          -2.295838000000    -0.182448000000    -2.477727000000     1.007825032230
         O            0.811714000000    -2.953770000000    -0.024877000000    15.994914619570
         H            0.491865000000    -3.516386000000     0.715024000000     1.007825032230
         H            1.703134000000    -3.259401000000    -0.070729000000     1.007825032230
      Gh(O)           1.439502000000    -0.931900000000     2.390588000000    15.994914619570
      Gh(H)           1.923833000000    -1.620427000000     2.861863000000     1.007825032230
      Gh(H)           0.879775000000    -0.561656000000     3.062076000000     1.007825032230
      Gh(O)           2.556752000000     0.575285000000    -0.926306000000    15.994914619570
      Gh(H)           2.963771000000     0.049734000000    -0.227753000000     1.007825032230
      Gh(H)           2.591393000000     1.523133000000    -0.691197000000     1.007825032230
      Gh(O)          -1.229385000000     2.374053000000     0.624562000000    15.994914619570
      Gh(H)          -0.903017000000     3.116669000000     1.152358000000     1.007825032230
      Gh(H)          -2.153941000000     2.270777000000     0.923160000000     1.007825032230
      Gh(O)          -1.464224000000    -0.338413000000     2.131283000000    15.994914619570
      Gh(H)          -1.017152000000    -0.390138000000     2.970331000000     1.007825032230
      Gh(H)          -2.307745000000     0.086032000000     2.373066000000     1.007825032230

  Charge       = 0
  Multiplicity = 1
  Basis Set: AUG-CC-PVTZ
    Blend: AUG-CC-PVTZ
  Basis Set: (AUG-CC-PVTZ AUX)
    Blend: AUG-CC-PVTZ-JKFIT + DEF2-UNIVERSAL-JKFIT

    Orbital Energies [Eh]
    ---------------------

    Doubly Occupied:

       1A    -20.570335     2A     -1.354770     3A     -0.703930
       4A     -0.594170     5A     -0.511437

  @DF-RHF Final Energy:   -76.05839048835566

   => Energetics <=

    Nuclear Repulsion Energy =              9.1545187662553431
    One-Electron Energy =                -122.9565319978710392
    Two-Electron Energy =                  37.7436227432600333
    Total Energy =                        -76.0583904883556556
 Dipole X            :        -16.0397261           16.4192842            0.3795580
 Dipole Y            :         56.8932314          -57.4589124           -0.5656810
 Dipole Z            :         -0.3928190            0.8414554            0.4486364
 Magnitude           :                                                    0.8156800
  Basis Set: (AUG-CC-PVTZ AUX)
    Blend: AUG-CC-PVTZ-RI + DEF2-QZVPP-RI
	 Reference Energy          =     -76.0583904883556556 [Eh]
	 Singles Energy            =      -0.0000000000000000 [Eh]
	 Same-Spin Energy          =      -0.0686187846993094 [Eh]
	 Opposite-Spin Energy      =      -0.2162423815966338 [Eh]
	 Correlation Energy        =      -0.2848611662959432 [Eh]
	 Total Energy              =     -76.3432516546515956 [Eh]

	 ================> DF-SCS-MP2 Energies <==================
	-----------------------------------------------------------
	 SCS Same-Spin Scale       =       0.3333333333333333 [-]
	 SCS Opposite-Spin Scale   =       1.2000000000000000 [-]
	 SCS Same-Spin Energy      =      -0.0228729282331031 [Eh]
	 SCS Opposite-Spin Energy  =      -0.2594908579159605 [Eh]
	 SCS Correlation Energy    =      -0.2823637861490637 [Eh]
	 SCS Total Energy          =     -76.3407542745047181 [Eh]
	-----------------------------------------------------------

*** Psi4 exiting successfully. Buy a developer a beer!
