                               Psi4 1.9 release

  ==> Input File <==

--------------------------------------------------------------------------
MEMORY 60 GB

molecule dimer {
0 1
Gh(K)      0.000000     0.000000     0.000000
O          0.895746    -2.809245     0.265910
H          0.384997    -3.536149    -0.142487
H          0.462734    -2.701620     1.110776
Gh(O)     -1.994843    -0.515921    -1.954607
Gh(H)     -2.538615    -1.207236    -1.506788
Gh(H)     -2.614613     0.221095    -1.966914
Gh(O)     -0.644379     2.208825    -1.255866
Gh(H)     -0.268331     2.958551    -0.857534
Gh(H)     -1.592764     2.260054    -1.104169

units ang
no_reorient
no_com
symmetry c1
}

set {
basis        aug-cc-pVTZ
scf_type     df
}

energy("mp2")
--------------------------------------------------------------------------

    Molecular point group: c1

    Geometry (in Angstrom), charge = 0, multiplicity = 1:

       Center              X                  Y                   Z               Mass
    ------------   -----------------  -----------------  -----------------  -----------------
      Gh(K)           0.000000000000     0.000000000000     0.000000000000    38.963706486400
         O            0.895746000000    -2.809245000000     0.265910000000    15.994914619570
         H            0.384997000000    -3.536149000000    -0.142487000000     1.007825032230
         H            0.462734000000    -2.701620000000     1.110776000000     1.007825032230
      Gh(O)          -1.994843000000    -0.515921000000    -1.954607000000    15.994914619570
      Gh(H)          -2.538615000000    -1.207236000000    -1.506788000000     1.007825032230
      Gh(H)          -2.614613000000     0.221095000000    -1.966914000000     1.007825032230
      Gh(O)          -0.644379000000     2.208825000000    -1.255866000000    15.994914619570
      Gh(H)          -0.268331000000     2.958551000000    -0.857534000000     1.007825032230
      Gh(H)          -1.592764000000     2.260054000000    -1.104169000000     1.007825032230

  Charge       = 0
  Multiplicity = 1
  Basis Set: AUG-CC-PVTZ
    Blend: AUG-CC-PVTZ
  Basis Set: (AUG-CC-PVTZ AUX)
    Blend: AUG-CC-PVTZ-JKFIT + DEF2-UNIVERSAL-JKFIT

    Orbital Energies [Eh]
    ---------------------

    Doubly Occupied:

       1A    -20.569635     2A     -1.350323     3A     -0.708827
       4A     -0.587011     5A     -0.510185

  @DF-RHF Final Energy:   -76.05942941260318

   => Energetics <=

    Nuclear Repulsion Energy =              9.1114511410818118
    One-Electron Energy =                -122.8897968770701823
    Two-Electron Energy =                  37.7189163233851872
    Total Energy =                        -76.0594294126031798
 Dipole X            :        -15.7640917           15.1436964           -0.6203953
 Dipole Y            :         53.8521232          -54.2573044           -0.4051812
 Dipole Z            :         -5.5592030            5.8497776            0.2905746
 Magnitude           :                                                    0.7959244
  Basis Set: (AUG-CC-PVTZ AUX)
    Blend: AUG-CC-PVTZ-RI + DEF2-QZVPP-RI
	 Reference Energy          =     -76.0594294126031798 [Eh]
	 Singles Energy            =      -0.0000000000000000 [Eh]
	 Same-Spin Energy          =      -0.0685706603447333 [Eh]
	 Opposite-Spin Energy      =      -0.2160247357017230 [Eh]
	 Correlation Energy        =      -0.2845953960464563 [Eh]
	 Total Energy              =     -76.3440248086496354 [Eh]

	 ================> DF-SCS-MP2 Energies <==================
	-----------------------------------------------------------
	 SCS Same-Spin Scale       =       0.3333333333333333 [-]
	 SCS Opposite-Spin Scale   =       1.2000000000000000 [-]
	 SCS Same-Spin Energy      =      -0.0228568867815778 [Eh]
	 SCS Opposite-Spin Energy  =      -0.2592296828420675 [Eh]
	 SCS Correlation Energy    =      -0.2820865696236453 [Eh]
	 SCS Total Energy          =     -76.3415159822268237 [Eh]
	-----------------------------------------------------------

*** Psi4 exiting successfully. Buy a developer a beer!
