                               Psi4 1.9 release

  ==> Input File <==

--------------------------------------------------------------------------
MEMORY 60 GB

molecule dimer {
0 1
Gh(K)      0.000000     0.000000     0.000000
O          1.998788    -1.892981    -1.275619
H          1.360295    -2.129853    -1.967743
H          2.785721    -1.689378    -1.859302
Gh(O)     -2.305916    -0.575904    -1.423238
Gh(H)     -2.524150    -0.535467    -2.347313
Gh(H)     -1.974768    -1.476719    -1.203696
Gh(O)     -1.216902     2.172280     0.900711
Gh(H)     -1.602851     1.834558     1.691032
Gh(H)     -0.956919     3.082716     1.081943
Gh(O)      1.514527    -2.061471     1.508858
Gh(H)      1.933106    -2.366114     0.691556
Gh(H)      0.944965    -2.736547     1.833539
Gh(O)      2.272850     0.840728     1.315721
Gh(H)      2.977124     0.173544     1.188519
Gh(H)      2.679249     1.703018     1.056976
Gh(O)      0.901593     1.890982    -1.438276
Gh(H)      1.107019     2.546113    -0.725155
Gh(H)      0.579848     2.387877    -2.155061

units ang
no_reorient
no_com
symmetry c1
}

set {
basis        aug-cc-pVTZ
scf_type     df
}

energy("mp2")
--------------------------------------------------------------------------

    Molecular point group: c1

    Geometry (in Angstrom), charge = 0, multiplicity = 1:

       Center              X                  Y                   Z               Mass
    ------------   -----------------  -----------------  -----------------  -----------------
      Gh(K)           0.000000000000     0.000000000000     0.000000000000    38.963706486400
         O            1.998788000000    -1.892981000000    -1.275619000000    15.994914619570
         H            1.360295000000    -2.129853000000    -1.967743000000     1.007825032230
         H            2.785721000000    -1.689378000000    -1.859302000000     1.007825032230
      Gh(O)          -2.305916000000    -0.575904000000    -1.423238000000    15.994914619570
      Gh(H)          -2.524150000000    -0.535467000000    -2.347313000000     1.007825032230
      Gh(H)          -1.974768000000    -1.476719000000    -1.203696000000     1.007825032230
      Gh(O)          -1.216902000000     2.172280000000     0.900711000000    15.994914619570
      Gh(H)          -1.602851000000     1.834558000000     1.691032000000     1.007825032230
      Gh(H)          -0.956919000000     3.082716000000     1.081943000000     1.007825032230
      Gh(O)           1.514527000000    -2.061471000000     1.508858000000    15.994914619570
      Gh(H)           1.933106000000    -2.366114000000     0.691556000000     1.007825032230
      Gh(H)           0.944965000000    -2.736547000000     1.833539000000     1.007825032230
      Gh(O)           2.272850000000     0.840728000000     1.315721000000    15.994914619570
      Gh(H)           2.977124000000     0.173544000000     1.188519000000     1.007825032230
      Gh(H)           2.679249000000     1.703018000000     1.056976000000     1.007825032230
      Gh(O)           0.901593000000     1.890982000000    -1.438276000000    15.994914619570
      Gh(H)           1.107019000000     2.546113000000    -0.725155000000     1.007825032230
      Gh(H)           0.579848000000     2.387877000000    -2.155061000000     1.007825032230

  Charge       = 0
  Multiplicity = 1
  Basis Set: AUG-CC-PVTZ
    Blend: AUG-CC-PVTZ
  Basis Set: (AUG-CC-PVTZ AUX)
    Blend: AUG-CC-PVTZ-JKFIT + DEF2-UNIVERSAL-JKFIT

    Orbital Energies [Eh]
    ---------------------

    Doubly Occupied:

       1A    -20.574497     2A     -1.343463     3A     -0.691329
       4A     -0.590581     5A     -0.509816

  @DF-RHF Final Energy:   -76.05599790820949

   => Energetics <=

    Nuclear Repulsion Energy =              8.9441177389430209
    One-Electron Energy =                -122.5808567732430419
    Two-Electron Energy =                  37.5807411260905297
    Total Energy =                        -76.0559979082094912
 Dipole X            :        -37.9623207           38.0521300            0.0898093
 Dipole Y            :         35.8117526          -35.8350258           -0.0232732
 Dipole Z            :         25.6956989          -26.5166313           -0.8209324
 Magnitude           :                                                    0.8261582
  Basis Set: (AUG-CC-PVTZ AUX)
    Blend: AUG-CC-PVTZ-RI + DEF2-QZVPP-RI
	 Reference Energy          =     -76.0559979082094912 [Eh]
	 Singles Energy            =      -0.0000000000000000 [Eh]
	 Same-Spin Energy          =      -0.0690700642652263 [Eh]
	 Opposite-Spin Energy      =      -0.2178575601319359 [Eh]
	 Correlation Energy        =      -0.2869276243971622 [Eh]
	 Total Energy              =     -76.3429255326066567 [Eh]

	 ================> DF-SCS-MP2 Energies <==================
	-----------------------------------------------------------
	 SCS Same-Spin Scale       =       0.3333333333333333 [-]
	 SCS Opposite-Spin Scale   =       1.2000000000000000 [-]
	 SCS Same-Spin Energy      =      -0.0230233547550754 [Eh]
	 SCS Opposite-Spin Energy  =      -0.2614290721583230 [Eh]
	 SCS Correlation Energy    =      -0.2844524269133984 [Eh]
	 SCS Total Energy          =     -76.3404503351228954 [Eh]
	-----------------------------------------------------------

*** Psi4 exiting successfully. Buy a developer a beer!
