                               Psi4 1.9 release

  ==> Input File <==

--------------------------------------------------------------------------
MEMORY 60 GB

molecule dimer {
1 1
K          0.000000     0.000000     0.000000
Gh(O)     -1.751492     0.085286    -1.989283
Gh(H)     -1.556526     0.778721    -2.629799
Gh(H)     -1.639405    -0.746256    -2.499389
Gh(O)     -0.439277    -2.706628    -0.360941
Gh(H)     -1.377830    -2.874844    -0.351162
Gh(H)     -0.096285    -3.290016    -1.091408
Gh(O)     -2.197605     0.631860     1.800529
Gh(H)     -2.346144     1.016197     2.672356
Gh(H)     -2.828298     0.855687     1.124615
Gh(O)      0.383901     2.589354    -0.816677
Gh(H)     -0.469103     3.021654    -0.740717
Gh(H)      0.553527     2.490907    -1.733209
Gh(O)      2.031074     0.400515    -2.119651
Gh(H)      2.592574     1.107034    -1.763625
Gh(H)      1.716904     0.550642    -2.989750
Gh(O)      0.043549    -1.038957     2.817828
Gh(H)     -0.779009    -0.692394     3.128335
Gh(H)      0.717995    -0.476349     3.113344

units ang
no_reorient
no_com
symmetry c1
}

set {
basis        aug-cc-pVTZ
scf_type     df
}

energy("mp2")
--------------------------------------------------------------------------

    Molecular point group: c1

    Geometry (in Angstrom), charge = 1, multiplicity = 1:

       Center              X                  Y                   Z               Mass
    ------------   -----------------  -----------------  -----------------  -----------------
         K            0.000000000000     0.000000000000     0.000000000000    38.963706486400
      Gh(O)          -1.751492000000     0.085286000000    -1.989283000000    15.994914619570
      Gh(H)          -1.556526000000     0.778721000000    -2.629799000000     1.007825032230
      Gh(H)          -1.639405000000    -0.746256000000    -2.499389000000     1.007825032230
      Gh(O)          -0.439277000000    -2.706628000000    -0.360941000000    15.994914619570
      Gh(H)          -1.377830000000    -2.874844000000    -0.351162000000     1.007825032230
      Gh(H)          -0.096285000000    -3.290016000000    -1.091408000000     1.007825032230
      Gh(O)          -2.197605000000     0.631860000000     1.800529000000    15.994914619570
      Gh(H)          -2.346144000000     1.016197000000     2.672356000000     1.007825032230
      Gh(H)          -2.828298000000     0.855687000000     1.124615000000     1.007825032230
      Gh(O)           0.383901000000     2.589354000000    -0.816677000000    15.994914619570
      Gh(H)          -0.469103000000     3.021654000000    -0.740717000000     1.007825032230
      Gh(H)           0.553527000000     2.490907000000    -1.733209000000     1.007825032230
      Gh(O)           2.031074000000     0.400515000000    -2.119651000000    15.994914619570
      Gh(H)           2.592574000000     1.107034000000    -1.763625000000     1.007825032230
      Gh(H)           1.716904000000     0.550642000000    -2.989750000000     1.007825032230
      Gh(O)           0.043549000000    -1.038957000000     2.817828000000    15.994914619570
      Gh(H)          -0.779009000000    -0.692394000000     3.128335000000     1.007825032230
      Gh(H)           0.717995000000    -0.476349000000     3.113344000000     1.007825032230

  Charge       = 1
  Multiplicity = 1
  Basis Set: AUG-CC-PVTZ
    Blend: AUG-CC-PVTZ
  Basis Set: (AUG-CC-PVTZ AUX)
    Blend: AUG-CC-PVTZ-JKFIT + DEF2-UNIVERSAL-JKFIT

    Orbital Energies [Eh]
    ---------------------

    Doubly Occupied:

       1A   -133.752368     2A    -14.708101     3A    -11.738159
       4A    -11.738158     5A    -11.738157     6A     -1.963850
       7A     -1.170565     8A     -1.170555     9A     -1.170552

  @DF-RHF Final Energy:  -599.01751704545666

   => Energetics <=

    Nuclear Repulsion Energy =              0.0000000000000000
    One-Electron Energy =                -819.7341066584186819
    Two-Electron Energy =                 220.7165896129619682
    Total Energy =                       -599.0175170454567706
 Dipole X            :         -0.0001304            0.0000000           -0.0001304
 Dipole Y            :          0.0000435            0.0000000            0.0000435
 Dipole Z            :         -0.0001210            0.0000000           -0.0001210
 Magnitude           :                                                    0.0001831
  Basis Set: (AUG-CC-PVTZ AUX)
    Blend: AUG-CC-PVTZ-RI + DEF2-QZVPP-RI
	 Reference Energy          =    -599.0175170454566569 [Eh]
	 Singles Energy            =      -0.0000000000000000 [Eh]
	 Same-Spin Energy          =      -0.0382129744565073 [Eh]
	 Opposite-Spin Energy      =      -0.0935342184322213 [Eh]
	 Correlation Energy        =      -0.1317471928887287 [Eh]
	 Total Energy              =    -599.1492642383453813 [Eh]

	 ================> DF-SCS-MP2 Energies <==================
	-----------------------------------------------------------
	 SCS Same-Spin Scale       =       0.3333333333333333 [-]
	 SCS Opposite-Spin Scale   =       1.2000000000000000 [-]
	 SCS Same-Spin Energy      =      -0.0127376581521691 [Eh]
	 SCS Opposite-Spin Energy  =      -0.1122410621186656 [Eh]
	 SCS Correlation Energy    =      -0.1249787202708347 [Eh]
	 SCS Total Energy          =    -599.1424957657275172 [Eh]
	-----------------------------------------------------------

*** Psi4 exiting successfully. Buy a developer a beer!
