                               Psi4 1.9 release

  ==> Input File <==

--------------------------------------------------------------------------
MEMORY 60 GB

molecule dimer {
1 1
K          0.000000     0.000000     0.000000
O          1.803653    -1.847112     0.206100
H          1.708783    -2.680683    -0.284385
H          2.119183    -2.134639     1.088298
O         -2.728888     0.492668     0.134493
H         -3.517786     0.992519    -0.173322
H         -3.011923    -0.394222     0.363049
O          1.771017     1.498733     1.768874
H          2.165305     0.873233     2.367554
H          2.327225     2.217179     1.679509
O         -1.232019    -2.027642    -1.142992
H         -0.978584    -2.636571    -1.824547
H         -1.720507    -2.476302    -0.401567
O          0.256748     1.390877    -2.161874
H         -0.134506     2.251599    -2.418476
H          1.075887     1.688448    -1.702877

units ang
no_reorient
no_com
symmetry c1
}

set {
basis        aug-cc-pVTZ
scf_type     df
}

energy("mp2")
--------------------------------------------------------------------------

    Molecular point group: c1

    Geometry (in Angstrom), charge = 1, multiplicity = 1:

       Center              X                  Y                   Z               Mass
    ------------   -----------------  -----------------  -----------------  -----------------
         K            0.000000000000     0.000000000000     0.000000000000    38.963706486400
         O            1.803653000000    -1.847112000000     0.206100000000    15.994914619570
         H            1.708783000000    -2.680683000000    -0.284385000000     1.007825032230
         H            2.119183000000    -2.134639000000     1.088298000000     1.007825032230
         O           -2.728888000000     0.492668000000     0.134493000000    15.994914619570
         H           -3.517786000000     0.992519000000    -0.173322000000     1.007825032230
         H           -3.011923000000    -0.394222000000     0.363049000000     1.007825032230
         O            1.771017000000     1.498733000000     1.768874000000    15.994914619570
         H            2.165305000000     0.873233000000     2.367554000000     1.007825032230
         H            2.327225000000     2.217179000000     1.679509000000     1.007825032230
         O           -1.232019000000    -2.027642000000    -1.142992000000    15.994914619570
         H           -0.978584000000    -2.636571000000    -1.824547000000     1.007825032230
         H           -1.720507000000    -2.476302000000    -0.401567000000     1.007825032230
         O            0.256748000000     1.390877000000    -2.161874000000    15.994914619570
         H           -0.134506000000     2.251599000000    -2.418476000000     1.007825032230
         H            1.075887000000     1.688448000000    -1.702877000000     1.007825032230

  Charge       = 1
  Multiplicity = 1
  Basis Set: AUG-CC-PVTZ
    Blend: AUG-CC-PVTZ
  Basis Set: (AUG-CC-PVTZ AUX)
    Blend: AUG-CC-PVTZ-JKFIT + DEF2-UNIVERSAL-JKFIT

    Orbital Energies [Eh]
    ---------------------

    Doubly Occupied:

       1A   -133.591309     2A    -20.721525     3A    -20.715412
       4A    -20.711180     5A    -20.702280     6A    -20.701785
       7A    -14.549809     8A    -11.579710     9A    -11.579525
      10A    -11.579461    11A     -1.815032    12A     -1.506922
      13A     -1.500875    14A     -1.495813    15A     -1.487166
      16A     -1.481371    17A     -1.029352    18A     -1.024973
      19A     -1.024194    20A     -0.883703    21A     -0.878037
      22A     -0.860019    23A     -0.852544    24A     -0.838668
      25A     -0.745029    26A     -0.732083    27A     -0.731257
      28A     -0.724555    29A     -0.718143    30A     -0.671214
      31A     -0.658568    32A     -0.655779    33A     -0.653105
      34A     -0.643787

  @DF-RHF Final Energy:  -979.38622908240609

   => Energetics <=

    Nuclear Repulsion Energy =            351.8349992825187655
    One-Electron Energy =               -2042.3540770909273760
    Two-Electron Energy =                 711.1328487260025213
    Total Energy =                       -979.3862290824060892
 Dipole X            :          2.0671222           -1.8950835            0.1720387
 Dipole Y            :         10.8450547          -11.7904681           -0.9454134
 Dipole Z            :         21.0317961          -20.5412398            0.4905563
 Magnitude           :                                                    1.0789111
  Basis Set: (AUG-CC-PVTZ AUX)
    Blend: AUG-CC-PVTZ-RI + DEF2-QZVPP-RI
	 Reference Energy          =    -979.3862290824060892 [Eh]
	 Singles Energy            =      -0.0000000000000000 [Eh]
	 Same-Spin Energy          =      -0.3858076857173545 [Eh]
	 Opposite-Spin Energy      =      -1.1741499404629607 [Eh]
	 Correlation Energy        =      -1.5599576261803152 [Eh]
	 Total Energy              =    -980.9461867085864242 [Eh]

	 ================> DF-SCS-MP2 Energies <==================
	-----------------------------------------------------------
	 SCS Same-Spin Scale       =       0.3333333333333333 [-]
	 SCS Opposite-Spin Scale   =       1.2000000000000000 [-]
	 SCS Same-Spin Energy      =      -0.1286025619057848 [Eh]
	 SCS Opposite-Spin Energy  =      -1.4089799285555529 [Eh]
	 SCS Correlation Energy    =      -1.5375824904613378 [Eh]
	 SCS Total Energy          =    -980.9238115728674074 [Eh]
	-----------------------------------------------------------

*** Psi4 exiting successfully. Buy a developer a beer!
