                               Psi4 1.9 release

  ==> Input File <==

--------------------------------------------------------------------------
MEMORY 60 GB

molecule dimer {
1 1
K          0.000000     0.000000     0.000000
O          0.934950     1.557658     1.866682
H          1.223641     2.403238     1.526633
H          1.560546     1.275463     2.571452
O         -0.413699    -2.204341    -1.603818
H         -1.436891    -2.151326    -1.552654
H         -0.309238    -2.351733    -2.534913
O          2.387388    -0.706598     0.434979
H          3.112159    -1.260928     0.324550
H          2.611801    -0.158530     1.180506
O         -2.888982    -0.504542     0.112087
H         -3.193254    -0.834635     0.984426
H         -3.583834     0.130394    -0.063180
O          2.029999     0.579035    -1.935349
H          2.782212     0.571319    -1.253322
H          2.354613     1.285694    -2.436344
O         -0.653789    -1.945918     2.055554
H         -0.923902    -1.843674     2.940345
H         -1.151574    -2.735000     1.778164

units ang
no_reorient
no_com
symmetry c1
}

set {
basis        aug-cc-pVTZ
scf_type     df
}

energy("mp2")
--------------------------------------------------------------------------

    Molecular point group: c1

    Geometry (in Angstrom), charge = 1, multiplicity = 1:

       Center              X                  Y                   Z               Mass
    ------------   -----------------  -----------------  -----------------  -----------------
         K            0.000000000000     0.000000000000     0.000000000000    38.963706486400
         O            0.934950000000     1.557658000000     1.866682000000    15.994914619570
         H            1.223641000000     2.403238000000     1.526633000000     1.007825032230
         H            1.560546000000     1.275463000000     2.571452000000     1.007825032230
         O           -0.413699000000    -2.204341000000    -1.603818000000    15.994914619570
         H           -1.436891000000    -2.151326000000    -1.552654000000     1.007825032230
         H           -0.309238000000    -2.351733000000    -2.534913000000     1.007825032230
         O            2.387388000000    -0.706598000000     0.434979000000    15.994914619570
         H            3.112159000000    -1.260928000000     0.324550000000     1.007825032230
         H            2.611801000000    -0.158530000000     1.180506000000     1.007825032230
         O           -2.888982000000    -0.504542000000     0.112087000000    15.994914619570
         H           -3.193254000000    -0.834635000000     0.984426000000     1.007825032230
         H           -3.583834000000     0.130394000000    -0.063180000000     1.007825032230
         O            2.029999000000     0.579035000000    -1.935349000000    15.994914619570
         H            2.782212000000     0.571319000000    -1.253322000000     1.007825032230
         H            2.354613000000     1.285694000000    -2.436344000000     1.007825032230
         O           -0.653789000000    -1.945918000000     2.055554000000    15.994914619570
         H           -0.923902000000    -1.843674000000     2.940345000000     1.007825032230
         H           -1.151574000000    -2.735000000000     1.778164000000     1.007825032230

  Charge       = 1
  Multiplicity = 1
  Basis Set: AUG-CC-PVTZ
    Blend: AUG-CC-PVTZ
  Basis Set: (AUG-CC-PVTZ AUX)
    Blend: AUG-CC-PVTZ-JKFIT + DEF2-UNIVERSAL-JKFIT

    Orbital Energies [Eh]
    ---------------------

    Doubly Occupied:

       1A   -133.573229     2A    -20.723482     3A    -20.706745
       4A    -20.706071     5A    -20.695379     6A    -20.687973
       7A    -20.685573     8A    -14.531582     9A    -11.561428
      10A    -11.561352    11A    -11.561296    12A     -1.796349
      13A     -1.516818    14A     -1.505677    15A     -1.489776
      16A     -1.487751    17A     -1.471333    18A     -1.460723
      19A     -1.010723    20A     -1.007598    21A     -1.005454
      22A     -0.884558    23A     -0.872110    24A     -0.846069
      25A     -0.837207    26A     -0.818697    27A     -0.810353
      28A     -0.742211    29A     -0.738441    30A     -0.735018
      31A     -0.725907    32A     -0.718801    33A     -0.707791
      34A     -0.670400    35A     -0.659717    36A     -0.651517
      37A     -0.641743    38A     -0.629970    39A     -0.628338

  @DF-RHF Final Energy: -1055.45279422254248

   => Energetics <=

    Nuclear Repulsion Energy =            462.7354707630231019
    One-Electron Energy =               -2368.2461988865211424
    Two-Electron Energy =                 850.0579339009555042
    Total Energy =                      -1055.4527942225424795
 Dipole X            :        -26.5488299           26.8590837            0.3102538
 Dipole Y            :         59.7389734          -59.4647036            0.2742698
 Dipole Z            :        -19.3918137           20.6107572            1.2189435
 Magnitude           :                                                    1.2873635
  Basis Set: (AUG-CC-PVTZ AUX)
    Blend: AUG-CC-PVTZ-RI + DEF2-QZVPP-RI
	 Reference Energy          =   -1055.4527942225424795 [Eh]
	 Singles Energy            =      -0.0000000000000000 [Eh]
	 Same-Spin Energy          =      -0.4585883192841996 [Eh]
	 Opposite-Spin Energy      =      -1.3976168568580460 [Eh]
	 Correlation Energy        =      -1.8562051761422456 [Eh]
	 Total Energy              =   -1057.3089993986848185 [Eh]

	 ================> DF-SCS-MP2 Energies <==================
	-----------------------------------------------------------
	 SCS Same-Spin Scale       =       0.3333333333333333 [-]
	 SCS Opposite-Spin Scale   =       1.2000000000000000 [-]
	 SCS Same-Spin Energy      =      -0.1528627730947332 [Eh]
	 SCS Opposite-Spin Energy  =      -1.6771402282296552 [Eh]
	 SCS Correlation Energy    =      -1.8300030013243884 [Eh]
	 SCS Total Energy          =   -1057.2827972238669645 [Eh]
	-----------------------------------------------------------

*** Psi4 exiting successfully. Buy a developer a beer!
