                               Psi4 1.9 release

  ==> Input File <==

--------------------------------------------------------------------------
MEMORY 60 GB

molecule dimer {
0 1
Gh(K)      0.000000     0.000000     0.000000
O         -1.457044    -2.550395     0.407014
H         -0.947257    -2.879841     1.151043
H         -2.328321    -2.243661     0.699340
Gh(O)      2.038414    -1.767961     0.341126
Gh(H)      2.837008    -1.255039     0.326724
Gh(H)      1.966681    -2.473380    -0.315675
Gh(O)     -1.661440     0.175056     1.991238
Gh(H)     -0.975522     0.765504     2.308795
Gh(H)     -2.384597     0.634620     1.603907
Gh(O)      1.704232     1.691653    -1.239466
Gh(H)      1.159358     2.227433    -1.799160
Gh(H)      1.823795     2.247273    -0.485218
Gh(O)     -1.743882     0.339578    -1.736908
Gh(H)     -2.201474    -0.503521    -1.987939
Gh(H)     -2.102341     0.953944    -2.383414

units ang
no_reorient
no_com
symmetry c1
}

set {
basis        aug-cc-pVTZ
scf_type     df
}

energy("mp2")
--------------------------------------------------------------------------

    Molecular point group: c1

    Geometry (in Angstrom), charge = 0, multiplicity = 1:

       Center              X                  Y                   Z               Mass
    ------------   -----------------  -----------------  -----------------  -----------------
      Gh(K)           0.000000000000     0.000000000000     0.000000000000    38.963706486400
         O           -1.457044000000    -2.550395000000     0.407014000000    15.994914619570
         H           -0.947257000000    -2.879841000000     1.151043000000     1.007825032230
         H           -2.328321000000    -2.243661000000     0.699340000000     1.007825032230
      Gh(O)           2.038414000000    -1.767961000000     0.341126000000    15.994914619570
      Gh(H)           2.837008000000    -1.255039000000     0.326724000000     1.007825032230
      Gh(H)           1.966681000000    -2.473380000000    -0.315675000000     1.007825032230
      Gh(O)          -1.661440000000     0.175056000000     1.991238000000    15.994914619570
      Gh(H)          -0.975522000000     0.765504000000     2.308795000000     1.007825032230
      Gh(H)          -2.384597000000     0.634620000000     1.603907000000     1.007825032230
      Gh(O)           1.704232000000     1.691653000000    -1.239466000000    15.994914619570
      Gh(H)           1.159358000000     2.227433000000    -1.799160000000     1.007825032230
      Gh(H)           1.823795000000     2.247273000000    -0.485218000000     1.007825032230
      Gh(O)          -1.743882000000     0.339578000000    -1.736908000000    15.994914619570
      Gh(H)          -2.201474000000    -0.503521000000    -1.987939000000     1.007825032230
      Gh(H)          -2.102341000000     0.953944000000    -2.383414000000     1.007825032230

  Charge       = 0
  Multiplicity = 1
  Basis Set: AUG-CC-PVTZ
    Blend: AUG-CC-PVTZ
  Basis Set: (AUG-CC-PVTZ AUX)
    Blend: AUG-CC-PVTZ-JKFIT + DEF2-UNIVERSAL-JKFIT

    Orbital Energies [Eh]
    ---------------------

    Doubly Occupied:

       1A    -20.565515     2A     -1.345578     3A     -0.725001
       4A     -0.571647     5A     -0.507877

  @DF-RHF Final Energy:   -76.05942570307559

   => Energetics <=

    Nuclear Repulsion Energy =              9.1120137624608617
    One-Electron Energy =                -122.9116400244732858
    Two-Electron Energy =                  37.7402005589368343
    Total Energy =                        -76.0594257030755898
 Dipole X            :         27.9742659          -28.2172582           -0.2429923
 Dipole Y            :         48.2223531          -48.2384001           -0.0160470
 Dipole Z            :         -8.9502126            9.6498770            0.6996644
 Magnitude           :                                                    0.7408326
  Basis Set: (AUG-CC-PVTZ AUX)
    Blend: AUG-CC-PVTZ-RI + DEF2-QZVPP-RI
	 Reference Energy          =     -76.0594257030755898 [Eh]
	 Singles Energy            =      -0.0000000000000000 [Eh]
	 Same-Spin Energy          =      -0.0684375092010609 [Eh]
	 Opposite-Spin Energy      =      -0.2157203801071866 [Eh]
	 Correlation Energy        =      -0.2841578893082475 [Eh]
	 Total Energy              =     -76.3435835923838368 [Eh]

	 ================> DF-SCS-MP2 Energies <==================
	-----------------------------------------------------------
	 SCS Same-Spin Scale       =       0.3333333333333333 [-]
	 SCS Opposite-Spin Scale   =       1.2000000000000000 [-]
	 SCS Same-Spin Energy      =      -0.0228125030670203 [Eh]
	 SCS Opposite-Spin Energy  =      -0.2588644561286239 [Eh]
	 SCS Correlation Energy    =      -0.2816769591956442 [Eh]
	 SCS Total Energy          =     -76.3411026622712399 [Eh]
	-----------------------------------------------------------

*** Psi4 exiting successfully. Buy a developer a beer!
