                               Psi4 1.9 release

  ==> Input File <==

--------------------------------------------------------------------------
MEMORY 60 GB

molecule dimer {
0 1
Gh(K)      0.000000     0.000000     0.000000
Gh(O)     -2.378824    -0.553695    -1.241651
Gh(H)     -2.664634     0.170642    -1.832911
Gh(H)     -3.267881    -0.958953    -1.026544
Gh(O)     -0.572456     1.699591    -1.947811
Gh(H)      0.254456     1.982503    -2.411827
Gh(H)     -1.309166     1.752655    -2.525546
Gh(O)      1.126668    -1.511622     1.935966
Gh(H)      0.956395    -2.429284     2.079445
Gh(H)      0.857351    -1.103993     2.793336
O         -1.604414     0.849184     2.083256
H         -2.481291     0.626327     1.722143
H         -1.459611     0.357911     2.901958

units ang
no_reorient
no_com
symmetry c1
}

set {
basis        aug-cc-pVTZ
scf_type     df
}

energy("mp2")
--------------------------------------------------------------------------

    Molecular point group: c1

    Geometry (in Angstrom), charge = 0, multiplicity = 1:

       Center              X                  Y                   Z               Mass
    ------------   -----------------  -----------------  -----------------  -----------------
      Gh(K)           0.000000000000     0.000000000000     0.000000000000    38.963706486400
      Gh(O)          -2.378824000000    -0.553695000000    -1.241651000000    15.994914619570
      Gh(H)          -2.664634000000     0.170642000000    -1.832911000000     1.007825032230
      Gh(H)          -3.267881000000    -0.958953000000    -1.026544000000     1.007825032230
      Gh(O)          -0.572456000000     1.699591000000    -1.947811000000    15.994914619570
      Gh(H)           0.254456000000     1.982503000000    -2.411827000000     1.007825032230
      Gh(H)          -1.309166000000     1.752655000000    -2.525546000000     1.007825032230
      Gh(O)           1.126668000000    -1.511622000000     1.935966000000    15.994914619570
      Gh(H)           0.956395000000    -2.429284000000     2.079445000000     1.007825032230
      Gh(H)           0.857351000000    -1.103993000000     2.793336000000     1.007825032230
         O           -1.604414000000     0.849184000000     2.083256000000    15.994914619570
         H           -2.481291000000     0.626327000000     1.722143000000     1.007825032230
         H           -1.459611000000     0.357911000000     2.901958000000     1.007825032230

  Charge       = 0
  Multiplicity = 1
  Basis Set: AUG-CC-PVTZ
    Blend: AUG-CC-PVTZ
  Basis Set: (AUG-CC-PVTZ AUX)
    Blend: AUG-CC-PVTZ-JKFIT + DEF2-UNIVERSAL-JKFIT

    Orbital Energies [Eh]
    ---------------------

    Doubly Occupied:

       1A    -20.567039     2A     -1.343706     3A     -0.719899
       4A     -0.572930     5A     -0.507793

  @DF-RHF Final Energy:   -76.05907219323572

   => Energetics <=

    Nuclear Repulsion Energy =              9.0636329644041531
    One-Electron Energy =                -122.8226699673034403
    Two-Electron Energy =                  37.6999648096635624
    Total Energy =                        -76.0590721932357212
 Dipole X            :         31.2124779          -31.7024499           -0.4899720
 Dipole Y            :        -15.1764261           14.6977418           -0.4786843
 Dipole Z            :        -39.9247433           40.2325508            0.3078075
 Magnitude           :                                                    0.7509705
  Basis Set: (AUG-CC-PVTZ AUX)
    Blend: AUG-CC-PVTZ-RI + DEF2-QZVPP-RI
	 Reference Energy          =     -76.0590721932357212 [Eh]
	 Singles Energy            =      -0.0000000000000000 [Eh]
	 Same-Spin Energy          =      -0.0685285345250429 [Eh]
	 Opposite-Spin Energy      =      -0.2159315147914058 [Eh]
	 Correlation Energy        =      -0.2844600493164487 [Eh]
	 Total Energy              =     -76.3435322425521719 [Eh]

	 ================> DF-SCS-MP2 Energies <==================
	-----------------------------------------------------------
	 SCS Same-Spin Scale       =       0.3333333333333333 [-]
	 SCS Opposite-Spin Scale   =       1.2000000000000000 [-]
	 SCS Same-Spin Energy      =      -0.0228428448416810 [Eh]
	 SCS Opposite-Spin Energy  =      -0.2591178177496870 [Eh]
	 SCS Correlation Energy    =      -0.2819606625913679 [Eh]
	 SCS Total Energy          =     -76.3410328558270947 [Eh]
	-----------------------------------------------------------

*** Psi4 exiting successfully. Buy a developer a beer!
