                               Psi4 1.9 release

  ==> Input File <==

--------------------------------------------------------------------------
MEMORY 60 GB

molecule dimer {
1 1
K          0.000000     0.000000     0.000000
O          0.260703     2.699192    -0.819281
H          0.022127     3.429881    -1.445959
H          1.104134     3.079934    -0.434669
O          1.097032     0.079310     2.745102
H          1.412062     0.923683     2.987028
H          1.777563    -0.146764     2.181341
O         -2.730553     0.881808     0.899593
H         -2.493651     1.851589     0.688121
H         -2.847400     0.884946     1.830074
O         -1.654607    -0.656583    -2.067116
H         -1.968817    -0.064990    -2.722678
H         -2.340457    -1.379730    -1.961527
O          0.721932    -2.295296     1.132146
H          0.703083    -3.102510     0.511510
H          1.600267    -2.311320     1.651522

units ang
no_reorient
no_com
symmetry c1
}

set {
basis        aug-cc-pVTZ
scf_type     df
}

energy("mp2")
--------------------------------------------------------------------------

    Molecular point group: c1

    Geometry (in Angstrom), charge = 1, multiplicity = 1:

       Center              X                  Y                   Z               Mass
    ------------   -----------------  -----------------  -----------------  -----------------
         K            0.000000000000     0.000000000000     0.000000000000    38.963706486400
         O            0.260703000000     2.699192000000    -0.819281000000    15.994914619570
         H            0.022127000000     3.429881000000    -1.445959000000     1.007825032230
         H            1.104134000000     3.079934000000    -0.434669000000     1.007825032230
         O            1.097032000000     0.079310000000     2.745102000000    15.994914619570
         H            1.412062000000     0.923683000000     2.987028000000     1.007825032230
         H            1.777563000000    -0.146764000000     2.181341000000     1.007825032230
         O           -2.730553000000     0.881808000000     0.899593000000    15.994914619570
         H           -2.493651000000     1.851589000000     0.688121000000     1.007825032230
         H           -2.847400000000     0.884946000000     1.830074000000     1.007825032230
         O           -1.654607000000    -0.656583000000    -2.067116000000    15.994914619570
         H           -1.968817000000    -0.064990000000    -2.722678000000     1.007825032230
         H           -2.340457000000    -1.379730000000    -1.961527000000     1.007825032230
         O            0.721932000000    -2.295296000000     1.132146000000    15.994914619570
         H            0.703083000000    -3.102510000000     0.511510000000     1.007825032230
         H            1.600267000000    -2.311320000000     1.651522000000     1.007825032230

  Charge       = 1
  Multiplicity = 1
  Basis Set: AUG-CC-PVTZ
    Blend: AUG-CC-PVTZ
  Basis Set: (AUG-CC-PVTZ AUX)
    Blend: AUG-CC-PVTZ-JKFIT + DEF2-UNIVERSAL-JKFIT

    Orbital Energies [Eh]
    ---------------------

    Doubly Occupied:

       1A   -133.614782     2A    -20.730165     3A    -20.723142
       4A    -20.709641     5A    -20.703422     6A    -20.695756
       7A    -14.572279     8A    -11.602209     9A    -11.602159
      10A    -11.602040    11A     -1.834076    12A     -1.526524
      13A     -1.494465    14A     -1.485152    15A     -1.474087
      16A     -1.471009    17A     -1.044521    18A     -1.043464
      19A     -1.042189    20A     -0.874698    21A     -0.854697
      22A     -0.843924    23A     -0.837541    24A     -0.829818
      25A     -0.752797    26A     -0.751035    27A     -0.724374
      28A     -0.721359    29A     -0.710333    30A     -0.667010
      31A     -0.664452    32A     -0.657374    33A     -0.648524
      34A     -0.637233

  @DF-RHF Final Energy:  -979.36893890842111

   => Energetics <=

    Nuclear Repulsion Energy =            340.7719586601487549
    One-Electron Energy =               -2019.9892857954362171
    Two-Electron Energy =                 699.8483882268662910
    Total Energy =                       -979.3689389084211143
 Dipole X            :         41.3617092          -40.5819309            0.7797783
 Dipole Y            :        -15.5534440           16.6903767            1.1369327
 Dipole Z            :        -35.0250712           34.7866738           -0.2383975
 Magnitude           :                                                    1.3991082
  Basis Set: (AUG-CC-PVTZ AUX)
    Blend: AUG-CC-PVTZ-RI + DEF2-QZVPP-RI
	 Reference Energy          =    -979.3689389084211143 [Eh]
	 Singles Energy            =      -0.0000000000000000 [Eh]
	 Same-Spin Energy          =      -0.3849994789462978 [Eh]
	 Opposite-Spin Energy      =      -1.1741839705102752 [Eh]
	 Correlation Energy        =      -1.5591834494565731 [Eh]
	 Total Energy              =    -980.9281223578776689 [Eh]

	 ================> DF-SCS-MP2 Energies <==================
	-----------------------------------------------------------
	 SCS Same-Spin Scale       =       0.3333333333333333 [-]
	 SCS Opposite-Spin Scale   =       1.2000000000000000 [-]
	 SCS Same-Spin Energy      =      -0.1283331596487659 [Eh]
	 SCS Opposite-Spin Energy  =      -1.4090207646123303 [Eh]
	 SCS Correlation Energy    =      -1.5373539242610963 [Eh]
	 SCS Total Energy          =    -980.9062928326821975 [Eh]
	-----------------------------------------------------------

*** Psi4 exiting successfully. Buy a developer a beer!
