                               Psi4 1.9 release

  ==> Input File <==

--------------------------------------------------------------------------
MEMORY 60 GB

molecule dimer {
0 1
Gh(K)      0.000000     0.000000     0.000000
Gh(O)      0.293827     2.618771    -0.398133
Gh(H)     -0.603386     2.977651    -0.383603
Gh(H)      0.504951     2.523150    -1.349400
Gh(O)      2.290662    -1.154012     1.170513
Gh(H)      2.200413    -1.828377     1.847435
Gh(H)      2.800025    -0.449315     1.581926
O         -0.679679    -1.715755     2.067459
H          0.176766    -2.136211     2.260417
H         -1.317277    -2.272083     1.599994
Gh(O)     -2.767030     0.221449     0.099673
Gh(H)     -3.057655     0.587440     0.925810
Gh(H)     -3.142942    -0.646895     0.189675

units ang
no_reorient
no_com
symmetry c1
}

set {
basis        aug-cc-pVTZ
scf_type     df
}

energy("mp2")
--------------------------------------------------------------------------

    Molecular point group: c1

    Geometry (in Angstrom), charge = 0, multiplicity = 1:

       Center              X                  Y                   Z               Mass
    ------------   -----------------  -----------------  -----------------  -----------------
      Gh(K)           0.000000000000     0.000000000000     0.000000000000    38.963706486400
      Gh(O)           0.293827000000     2.618771000000    -0.398133000000    15.994914619570
      Gh(H)          -0.603386000000     2.977651000000    -0.383603000000     1.007825032230
      Gh(H)           0.504951000000     2.523150000000    -1.349400000000     1.007825032230
      Gh(O)           2.290662000000    -1.154012000000     1.170513000000    15.994914619570
      Gh(H)           2.200413000000    -1.828377000000     1.847435000000     1.007825032230
      Gh(H)           2.800025000000    -0.449315000000     1.581926000000     1.007825032230
         O           -0.679679000000    -1.715755000000     2.067459000000    15.994914619570
         H            0.176766000000    -2.136211000000     2.260417000000     1.007825032230
         H           -1.317277000000    -2.272083000000     1.599994000000     1.007825032230
      Gh(O)          -2.767030000000     0.221449000000     0.099673000000    15.994914619570
      Gh(H)          -3.057655000000     0.587440000000     0.925810000000     1.007825032230
      Gh(H)          -3.142942000000    -0.646895000000     0.189675000000     1.007825032230

  Charge       = 0
  Multiplicity = 1
  Basis Set: AUG-CC-PVTZ
    Blend: AUG-CC-PVTZ
  Basis Set: (AUG-CC-PVTZ AUX)
    Blend: AUG-CC-PVTZ-JKFIT + DEF2-UNIVERSAL-JKFIT

    Orbital Energies [Eh]
    ---------------------

    Doubly Occupied:

       1A    -20.564097     2A     -1.339753     3A     -0.729669
       4A     -0.561768     5A     -0.505877

  @DF-RHF Final Energy:   -76.05705430308576

   => Energetics <=

    Nuclear Repulsion Energy =              9.0510641651373245
    One-Electron Energy =                -122.8139065295640791
    Two-Electron Energy =                  37.7057880613410035
    Total Energy =                        -76.0570543030857493
 Dipole X            :         12.5793114          -12.4305107            0.1488007
 Dipole Y            :         33.6013346          -34.2689247           -0.6675901
 Dipole Z            :        -38.7381236           38.5505698           -0.1875538
 Magnitude           :                                                    0.7092211
  Basis Set: (AUG-CC-PVTZ AUX)
    Blend: AUG-CC-PVTZ-RI + DEF2-QZVPP-RI
	 Reference Energy          =     -76.0570543030857635 [Eh]
	 Singles Energy            =      -0.0000000000000000 [Eh]
	 Same-Spin Energy          =      -0.0685425310823189 [Eh]
	 Opposite-Spin Energy      =      -0.2159867636464721 [Eh]
	 Correlation Energy        =      -0.2845292947287910 [Eh]
	 Total Energy              =     -76.3415835978145481 [Eh]

	 ================> DF-SCS-MP2 Energies <==================
	-----------------------------------------------------------
	 SCS Same-Spin Scale       =       0.3333333333333333 [-]
	 SCS Opposite-Spin Scale   =       1.2000000000000000 [-]
	 SCS Same-Spin Energy      =      -0.0228475103607730 [Eh]
	 SCS Opposite-Spin Energy  =      -0.2591841163757665 [Eh]
	 SCS Correlation Energy    =      -0.2820316267365395 [Eh]
	 SCS Total Energy          =     -76.3390859298223035 [Eh]
	-----------------------------------------------------------

*** Psi4 exiting successfully. Buy a developer a beer!
