                               Psi4 1.9 release

  ==> Input File <==

--------------------------------------------------------------------------
MEMORY 60 GB

molecule dimer {
1 1
K      0.000000     0.000000     0.000000
--
0 1
O      1.886407     0.240145     1.661583
H      1.920610    -0.405878     2.387775
H      2.353759     1.017833     1.991534
O     -0.633228    -1.707611     2.107517
H     -1.150731    -2.494049     1.810318
H      0.219587    -1.976046     2.382454
O     -2.383593     0.511145    -0.855188
H     -2.763257     1.011932    -0.148038
H     -3.173879     0.141298    -1.269293
O     -0.850357    -2.107687    -1.303976
H     -1.442063    -2.761127    -0.786684
H     -0.824084    -2.400965    -2.266133

units ang
no_reorient
no_com
symmetry c1
}

set {
basis        aug-cc-pVTZ
scf_type     df
}

energy("mp2", bsse_type="cp")
--------------------------------------------------------------------------

                               Psi4 1.9 release
    Molecular point group: c1
  Charge       = 0
  Multiplicity = 1
  Basis Set: AUG-CC-PVTZ
    Blend: AUG-CC-PVTZ
  Basis Set: (AUG-CC-PVTZ AUX)
    Blend: AUG-CC-PVTZ-JKFIT + DEF2-UNIVERSAL-JKFIT
  @DF-RHF Final Energy:  -304.21333184698636
    Total Energy =                       -304.2133318469863639
 Dipole X            :         38.6112733          -39.1290962           -0.5178229
 Dipole Y            :         60.1590497          -61.1875669           -1.0285172
 Dipole Z            :        -31.5571856           32.0902349            0.5330493
 Magnitude           :                                                    1.2689089
  Basis Set: (AUG-CC-PVTZ AUX)
    Blend: AUG-CC-PVTZ-RI + DEF2-QZVPP-RI
	 Reference Energy          =    -304.2133318469863639 [Eh]
	 Singles Energy            =      -0.0000000000000000 [Eh]
	 Same-Spin Energy          =      -0.2763997978577419 [Eh]
	 Opposite-Spin Energy      =      -0.8683930637286721 [Eh]
	 Correlation Energy        =      -1.1447928615864140 [Eh]
	 Total Energy              =    -305.3581247085728023 [Eh]
	 SCS Total Energy          =    -305.3475367894133683 [Eh]
                               Psi4 1.9 release
    Molecular point group: c1
  Multiplicity = 1
  Basis Set: AUG-CC-PVTZ
    Blend: AUG-CC-PVTZ
  Basis Set: (AUG-CC-PVTZ AUX)
    Blend: AUG-CC-PVTZ-JKFIT + DEF2-UNIVERSAL-JKFIT
  @DF-RHF Final Energy:  -599.01751493125448
    Total Energy =                       -599.0175149312544818
  Basis Set: (AUG-CC-PVTZ AUX)
	 Singles Energy            =      -0.0000000000000000 [Eh]
	 Same-Spin Energy          =      -0.0359131765298895 [Eh]
	 Opposite-Spin Energy      =      -0.0872520091750189 [Eh]
	 Correlation Energy        =      -0.1231651857049084 [Eh]
	 Total Energy              =    -599.1406801169594019 [Eh]
	 SCS Total Energy          =    -599.1341884011078491 [Eh]
                               Psi4 1.9 release
    Molecular point group: c1

    Geometry (in Bohr), charge = 1, multiplicity = 1:

       Center              X                  Y                   Z               Mass
    ------------   -----------------  -----------------  -----------------  -----------------
         K            0.000000000000     0.000000000000     0.000000000000    38.963706486400
         O            3.564792591147     0.453808280398     3.139936804717    15.994914619570
         H            3.629426893816    -0.766998260349     4.512240799215     1.007825032230
         H            4.447959875331     1.923425611453     3.763453829538     1.007825032230
         O           -1.196627494971    -3.226917118819     3.982629934747    15.994914619570
         H           -2.174566434074    -4.713069553472     3.421005219987     1.007825032230
         H            0.414959290711    -3.734185751306     4.502185566502     1.007825032230
         O           -4.504337964558     0.965924060397    -1.616071105778    15.994914619570
         H           -5.221798944254     1.912274337587    -0.279751276161     1.007825032230
         H           -5.997762065342     0.267014522075    -2.398616142961     1.007825032230
         O           -1.606941838866    -3.982951188188    -2.464157514170    15.994914619570
         H           -2.725104125656    -5.217773827607    -1.486617307280     1.007825032230
         H           -1.557293064372    -4.537166286810    -4.282370733862     1.007825032230

  Charge       = 1
  Multiplicity = 1
  Basis Set: AUG-CC-PVTZ
    Blend: AUG-CC-PVTZ
  Basis Set: (AUG-CC-PVTZ AUX)
    Blend: AUG-CC-PVTZ-JKFIT + DEF2-UNIVERSAL-JKFIT

    Orbital Energies [Eh]
    ---------------------

    Doubly Occupied:

       1A   -133.605406     2A    -20.728732     3A    -20.725781
       4A    -20.722191     5A    -20.714826     6A    -14.563983
       7A    -11.593841     8A    -11.593798     9A    -11.593596
      10A     -1.829234    11A     -1.513493    12A     -1.508585
      13A     -1.508040    14A     -1.480333    15A     -1.041473
      16A     -1.039891    17A     -1.039511    18A     -0.889450
      19A     -0.872878    20A     -0.862344    21A     -0.848875
      22A     -0.758888    23A     -0.745556    24A     -0.736179
      25A     -0.729468    26A     -0.675706    27A     -0.670932
      28A     -0.668576    29A     -0.655100

  @DF-RHF Final Energy:  -903.31314298013001

   => Energetics <=

    Nuclear Repulsion Energy =            265.1901778054570968
    One-Electron Energy =               -1765.1733051807007087
    Two-Electron Energy =                 596.6699843951136017
    Total Energy =                       -903.3131429801300101
 Dipole X            :         38.3806893          -39.1290962           -0.7484070
 Dipole Y            :         59.8013531          -61.1875669           -1.3862138
 Dipole Z            :        -31.4128635           32.0902349            0.6773714
 Magnitude           :                                                    1.7147984
  Basis Set: (AUG-CC-PVTZ AUX)
    Blend: AUG-CC-PVTZ-RI + DEF2-QZVPP-RI
	 Reference Energy          =    -903.3131429801300101 [Eh]
	 Singles Energy            =      -0.0000000000000000 [Eh]
	 Same-Spin Energy          =      -0.3155567957220288 [Eh]
	 Opposite-Spin Energy      =      -0.9549602213238095 [Eh]
	 Correlation Energy        =      -1.2705170170458384 [Eh]
	 Total Energy              =    -904.5836599971758005 [Eh]

	 ================> DF-SCS-MP2 Energies <==================
	-----------------------------------------------------------
	 SCS Same-Spin Scale       =       0.3333333333333333 [-]
	 SCS Opposite-Spin Scale   =       1.2000000000000000 [-]
	 SCS Same-Spin Energy      =      -0.1051855985740096 [Eh]
	 SCS Opposite-Spin Energy  =      -1.1459522655885714 [Eh]
	 SCS Correlation Energy    =      -1.2511378641625810 [Eh]
	 SCS Total Energy          =    -904.5642808442926253 [Eh]
	-----------------------------------------------------------

*** Psi4 exiting successfully. Buy a developer a beer!
