                               Psi4 1.9 release

  ==> Input File <==

--------------------------------------------------------------------------
MEMORY 60 GB

molecule dimer {
1 1
K      0.000000     0.000000     0.000000
--
0 1
O      0.895746    -2.809245     0.265910
H      0.384997    -3.536149    -0.142487
H      0.462734    -2.701620     1.110776
O     -1.994843    -0.515921    -1.954607
H     -2.538615    -1.207236    -1.506788
H     -2.614613     0.221095    -1.966914
O     -0.644379     2.208825    -1.255866
H     -0.268331     2.958551    -0.857534
H     -1.592764     2.260054    -1.104169

units ang
no_reorient
no_com
symmetry c1
}

set {
basis        aug-cc-pVTZ
scf_type     df
}

energy("mp2", bsse_type="cp")
--------------------------------------------------------------------------

                               Psi4 1.9 release
    Molecular point group: c1
  Charge       = 0
  Multiplicity = 1
  Basis Set: AUG-CC-PVTZ
    Blend: AUG-CC-PVTZ
  Basis Set: (AUG-CC-PVTZ AUX)
    Blend: AUG-CC-PVTZ-JKFIT + DEF2-UNIVERSAL-JKFIT
  @DF-RHF Final Energy:  -228.17108465890342
    Total Energy =                       -228.1710846589034247
 Dipole X            :         36.3384081          -38.0107072           -1.6722991
 Dipole Y            :         20.8291669          -20.6661073            0.1630597
 Dipole Z            :         53.8785409          -52.9569668            0.9215741
 Magnitude           :                                                    1.9163693
  Basis Set: (AUG-CC-PVTZ AUX)
    Blend: AUG-CC-PVTZ-RI + DEF2-QZVPP-RI
	 Reference Energy          =    -228.1710846589034247 [Eh]
	 Singles Energy            =      -0.0000000000000000 [Eh]
	 Same-Spin Energy          =      -0.2061962030281518 [Eh]
	 Opposite-Spin Energy      =      -0.6485671498868012 [Eh]
	 Correlation Energy        =      -0.8547633529149530 [Eh]
	 Total Energy              =    -229.0258480118183684 [Eh]
	 SCS Total Energy          =    -229.0180973064436500 [Eh]
                               Psi4 1.9 release
    Molecular point group: c1
  Multiplicity = 1
  Basis Set: AUG-CC-PVTZ
    Blend: AUG-CC-PVTZ
  Basis Set: (AUG-CC-PVTZ AUX)
    Blend: AUG-CC-PVTZ-JKFIT + DEF2-UNIVERSAL-JKFIT
  @DF-RHF Final Energy:  -599.01751241542070
    Total Energy =                       -599.0175124154206969
  Basis Set: (AUG-CC-PVTZ AUX)
	 Singles Energy            =      -0.0000000000000000 [Eh]
	 Same-Spin Energy          =      -0.0321733967420521 [Eh]
	 Opposite-Spin Energy      =      -0.0770564969047735 [Eh]
	 Correlation Energy        =      -0.1092298936468256 [Eh]
	 Total Energy              =    -599.1267423090674811 [Eh]
	 SCS Total Energy          =    -599.1207046772871081 [Eh]
                               Psi4 1.9 release
    Molecular point group: c1

    Geometry (in Bohr), charge = 1, multiplicity = 1:

       Center              X                  Y                   Z               Mass
    ------------   -----------------  -----------------  -----------------  -----------------
         K            0.000000000000     0.000000000000     0.000000000000    38.963706486400
         O            1.692714617974    -5.308703669312     0.502497074020    15.994914619570
         H            0.727538889123    -6.682353148812    -0.269261406438     1.007825032230
         H            0.874440528938    -5.105321895059     2.099062426732     1.007825032230
         O           -3.769706933287    -0.974949392372    -3.693671912903    15.994914619570
         H           -4.797287087979    -2.281345408793    -2.847416649126     1.007825032230
         H           -4.940902494062     0.417808997708    -3.716928772329     1.007825032230
         O           -1.217699830996     4.174074309064    -2.373242790274    15.994914619570
         H           -0.507072100970     5.590851118199    -1.620504403268     1.007825032230
         H           -3.009887742489     4.270883088745    -2.086577006221     1.007825032230

  Charge       = 1
  Multiplicity = 1
  Basis Set: AUG-CC-PVTZ
    Blend: AUG-CC-PVTZ
  Basis Set: (AUG-CC-PVTZ AUX)
    Blend: AUG-CC-PVTZ-JKFIT + DEF2-UNIVERSAL-JKFIT

    Orbital Energies [Eh]
    ---------------------

    Doubly Occupied:

       1A   -133.669848     2A    -20.738104     3A    -20.736706
       4A    -20.726521     5A    -14.626936     6A    -11.656931
       7A    -11.656825     8A    -11.656738     9A     -1.887288
      10A     -1.537306    11A     -1.514436    12A     -1.508770
      13A     -1.097177    14A     -1.095041    15A     -1.094694
      16A     -0.906997    17A     -0.866201    18A     -0.865548
      19A     -0.765597    20A     -0.755206    21A     -0.746295
      22A     -0.692225    23A     -0.678783    24A     -0.669899

  @DF-RHF Final Energy:  -827.23649575163415

   => Energetics <=

    Nuclear Repulsion Energy =            170.7622891686851290
    One-Electron Energy =               -1471.6974254663759893
    Two-Electron Energy =                 473.6986405460567653
    Total Energy =                       -827.2364957516340382
 Dipole X            :         36.1171469          -38.0107072           -1.8935603
 Dipole Y            :         20.7973625          -20.6661073            0.1312553
 Dipole Z            :         53.5724353          -52.9569668            0.6154685
 Magnitude           :                                                    1.9953947
  Basis Set: (AUG-CC-PVTZ AUX)
    Blend: AUG-CC-PVTZ-RI + DEF2-QZVPP-RI
	 Reference Energy          =    -827.2364957516341519 [Eh]
	 Singles Energy            =      -0.0000000000000000 [Eh]
	 Same-Spin Energy          =      -0.2405780301593152 [Eh]
	 Opposite-Spin Energy      =      -0.7262673262398150 [Eh]
	 Correlation Energy        =      -0.9668453563991302 [Eh]
	 Total Energy              =    -828.2033411080333281 [Eh]

	 ================> DF-SCS-MP2 Energies <==================
	-----------------------------------------------------------
	 SCS Same-Spin Scale       =       0.3333333333333333 [-]
	 SCS Opposite-Spin Scale   =       1.2000000000000000 [-]
	 SCS Same-Spin Energy      =      -0.0801926767197717 [Eh]
	 SCS Opposite-Spin Energy  =      -0.8715207914877781 [Eh]
	 SCS Correlation Energy    =      -0.9517134682075498 [Eh]
	 SCS Total Energy          =    -828.1882092198417240 [Eh]
	-----------------------------------------------------------

*** Psi4 exiting successfully. Buy a developer a beer!
