                               Psi4 1.9 release

  ==> Input File <==

--------------------------------------------------------------------------
MEMORY 60 GB

molecule dimer {
1 1
K      0.000000     0.000000     0.000000
--
0 1
O     -0.410929    -0.700784    -2.509863
H     -1.217513    -1.219559    -2.665649
H     -0.164264    -0.548002    -3.391802
O      0.364162     2.737792     0.615970
H     -0.368150     3.382202     0.757426
H      0.419133     2.301238     1.419304
O     -1.302168    -1.379093     2.269078
H     -1.734333    -1.173294     3.111865
H     -1.340808    -2.327373     2.231571
O      2.554230    -0.782247     0.698580
H      2.890378    -1.647175     0.845380
H      3.241882    -0.204019     0.218312

units ang
no_reorient
no_com
symmetry c1
}

set {
basis        aug-cc-pVTZ
scf_type     df
}

energy("mp2", bsse_type="cp")
--------------------------------------------------------------------------

                               Psi4 1.9 release
    Molecular point group: c1
  Charge       = 0
  Multiplicity = 1
  Basis Set: AUG-CC-PVTZ
    Blend: AUG-CC-PVTZ
  Basis Set: (AUG-CC-PVTZ AUX)
    Blend: AUG-CC-PVTZ-JKFIT + DEF2-UNIVERSAL-JKFIT
  @DF-RHF Final Energy:  -304.22744105569882
    Total Energy =                       -304.2274410556987618
 Dipole X            :        -21.9220702           21.4837011           -0.4383691
 Dipole Y            :          3.7779859           -4.5932401           -0.8152542
 Dipole Z            :        -20.7587059           21.0071915            0.2484856
 Magnitude           :                                                    0.9584112
  Basis Set: (AUG-CC-PVTZ AUX)
    Blend: AUG-CC-PVTZ-RI + DEF2-QZVPP-RI
	 Reference Energy          =    -304.2274410556988187 [Eh]
	 Singles Energy            =      -0.0000000000000000 [Eh]
	 Same-Spin Energy          =      -0.2741995442111793 [Eh]
	 Opposite-Spin Energy      =      -0.8632728297467931 [Eh]
	 Correlation Energy        =      -1.1374723739579724 [Eh]
	 Total Energy              =    -305.3649134296567809 [Eh]
	 SCS Total Energy          =    -305.3547682994653769 [Eh]
                               Psi4 1.9 release
    Molecular point group: c1
  Multiplicity = 1
  Basis Set: AUG-CC-PVTZ
    Blend: AUG-CC-PVTZ
  Basis Set: (AUG-CC-PVTZ AUX)
    Blend: AUG-CC-PVTZ-JKFIT + DEF2-UNIVERSAL-JKFIT
  @DF-RHF Final Energy:  -599.01751459196385
    Total Energy =                       -599.0175145919638453
  Basis Set: (AUG-CC-PVTZ AUX)
	 Singles Energy            =      -0.0000000000000000 [Eh]
	 Same-Spin Energy          =      -0.0347250522524680 [Eh]
	 Opposite-Spin Energy      =      -0.0835643620012982 [Eh]
	 Correlation Energy        =      -0.1182894142537662 [Eh]
	 Total Energy              =    -599.1358040062176542 [Eh]
	 SCS Total Energy          =    -599.1293668437829183 [Eh]
                               Psi4 1.9 release
    Molecular point group: c1

    Geometry (in Bohr), charge = 1, multiplicity = 1:

       Center              X                  Y                   Z               Mass
    ------------   -----------------  -----------------  -----------------  -----------------
         K            0.000000000000     0.000000000000     0.000000000000    38.963706486400
         O           -0.776543267008    -1.324289833103    -4.742953682420    15.994914619570
         H           -2.300766124185    -2.304632503837    -5.037346556601     1.007825032230
         H           -0.310413972272    -1.035573696203    -6.409576851780     1.007825032230
         O            0.688166445299     5.173677068469     1.164014601498    15.994914619570
         H           -0.695702673087     6.391435480976     1.431327700301     1.007825032230
         H            0.792046580142     4.348709569496     2.682095848767     1.007825032230
         O           -2.460740889335    -2.606108071536     4.287935977302    15.994914619570
         H           -3.277414380344    -2.217204324643     5.880572589398     1.007825032230
         H           -2.533759906823    -4.398097561785     4.217058019514     1.007825032230
         O            4.826795161428    -1.478232592461     1.320124876722    15.994914619570
         H            5.462022819049    -3.112709630701     1.597536671940     1.007825032230
         H            6.126269111051    -0.385540034390     0.412549889901     1.007825032230

  Charge       = 1
  Multiplicity = 1
  Basis Set: AUG-CC-PVTZ
    Blend: AUG-CC-PVTZ
  Basis Set: (AUG-CC-PVTZ AUX)
    Blend: AUG-CC-PVTZ-JKFIT + DEF2-UNIVERSAL-JKFIT

    Orbital Energies [Eh]
    ---------------------

    Doubly Occupied:

       1A   -133.629986     2A    -20.722702     3A    -20.714575
       4A    -20.713782     5A    -20.712261     6A    -14.587248
       7A    -11.617181     8A    -11.617143     9A    -11.617069
      10A     -1.848256    11A     -1.520196    12A     -1.507842
      13A     -1.500694    14A     -1.489632    15A     -1.059263
      16A     -1.057063    17A     -1.055847    18A     -0.868324
      19A     -0.866507    20A     -0.865898    21A     -0.860770
      22A     -0.764643    23A     -0.742916    24A     -0.737710
      25A     -0.725506    26A     -0.672449    27A     -0.661392
      28A     -0.659376    29A     -0.658059

  @DF-RHF Final Energy:  -903.32467300531982

   => Energetics <=

    Nuclear Repulsion Energy =            244.5197375461647482
    One-Electron Energy =               -1723.5802254391346651
    Two-Electron Energy =                 575.7358148876500081
    Total Energy =                       -903.3246730053198235
 Dipole X            :        -21.8070298           21.4837011           -0.3233288
 Dipole Y            :          3.7513230           -4.5932401           -0.8419172
 Dipole Z            :        -20.7472328           21.0071915            0.2599587
 Magnitude           :                                                    0.9385865
  Basis Set: (AUG-CC-PVTZ AUX)
    Blend: AUG-CC-PVTZ-RI + DEF2-QZVPP-RI
	 Reference Energy          =    -903.3246730053198235 [Eh]
	 Singles Energy            =      -0.0000000000000000 [Eh]
	 Same-Spin Energy          =      -0.3112828444793312 [Eh]
	 Opposite-Spin Energy      =      -0.9462693798931809 [Eh]
	 Correlation Energy        =      -1.2575522243725121 [Eh]
	 Total Energy              =    -904.5822252296923125 [Eh]

	 ================> DF-SCS-MP2 Energies <==================
	-----------------------------------------------------------
	 SCS Same-Spin Scale       =       0.3333333333333333 [-]
	 SCS Opposite-Spin Scale   =       1.2000000000000000 [-]
	 SCS Same-Spin Energy      =      -0.1037609481597771 [Eh]
	 SCS Opposite-Spin Energy  =      -1.1355232558718171 [Eh]
	 SCS Correlation Energy    =      -1.2392842040315941 [Eh]
	 SCS Total Energy          =    -904.5639572093514289 [Eh]
	-----------------------------------------------------------

*** Psi4 exiting successfully. Buy a developer a beer!
