                               Psi4 1.9 release

  ==> Input File <==

--------------------------------------------------------------------------
MEMORY 60 GB

molecule dimer {
1 1
K          0.000000     0.000000     0.000000
Gh(O)     -2.137032    -0.856625     1.512180
Gh(H)     -1.868986    -0.256897     2.167979
Gh(H)     -2.239988    -1.648355     2.041290
Gh(O)      2.175127     1.925803    -0.413797
Gh(H)      1.709840     2.569824    -0.952341
Gh(H)      2.889234     1.626517    -1.020393
Gh(O)      0.141167     0.967816     2.459987
Gh(H)     -0.589109     1.582427     2.558548
Gh(H)      0.912326     1.572431     2.509376
Gh(O)     -1.688514     1.833831    -0.432819
Gh(H)     -2.264011     1.940198     0.309424
Gh(H)     -2.154571     1.891732    -1.244451
Gh(O)      1.446652    -0.632454    -2.619546
Gh(H)      2.280514    -0.166052    -2.786880
Gh(H)      1.538590    -1.544524    -2.934943
Gh(O)      2.182475    -1.748894     0.845704
Gh(H)      2.180246    -2.541209     0.250924
Gh(H)      2.896339    -1.190755     0.512360

units ang
no_reorient
no_com
symmetry c1
}

set {
basis        aug-cc-pVTZ
scf_type     df
}

energy("mp2")
--------------------------------------------------------------------------

    Molecular point group: c1

    Geometry (in Angstrom), charge = 1, multiplicity = 1:

       Center              X                  Y                   Z               Mass
    ------------   -----------------  -----------------  -----------------  -----------------
         K            0.000000000000     0.000000000000     0.000000000000    38.963706486400
      Gh(O)          -2.137032000000    -0.856625000000     1.512180000000    15.994914619570
      Gh(H)          -1.868986000000    -0.256897000000     2.167979000000     1.007825032230
      Gh(H)          -2.239988000000    -1.648355000000     2.041290000000     1.007825032230
      Gh(O)           2.175127000000     1.925803000000    -0.413797000000    15.994914619570
      Gh(H)           1.709840000000     2.569824000000    -0.952341000000     1.007825032230
      Gh(H)           2.889234000000     1.626517000000    -1.020393000000     1.007825032230
      Gh(O)           0.141167000000     0.967816000000     2.459987000000    15.994914619570
      Gh(H)          -0.589109000000     1.582427000000     2.558548000000     1.007825032230
      Gh(H)           0.912326000000     1.572431000000     2.509376000000     1.007825032230
      Gh(O)          -1.688514000000     1.833831000000    -0.432819000000    15.994914619570
      Gh(H)          -2.264011000000     1.940198000000     0.309424000000     1.007825032230
      Gh(H)          -2.154571000000     1.891732000000    -1.244451000000     1.007825032230
      Gh(O)           1.446652000000    -0.632454000000    -2.619546000000    15.994914619570
      Gh(H)           2.280514000000    -0.166052000000    -2.786880000000     1.007825032230
      Gh(H)           1.538590000000    -1.544524000000    -2.934943000000     1.007825032230
      Gh(O)           2.182475000000    -1.748894000000     0.845704000000    15.994914619570
      Gh(H)           2.180246000000    -2.541209000000     0.250924000000     1.007825032230
      Gh(H)           2.896339000000    -1.190755000000     0.512360000000     1.007825032230

  Charge       = 1
  Multiplicity = 1
  Basis Set: AUG-CC-PVTZ
    Blend: AUG-CC-PVTZ
  Basis Set: (AUG-CC-PVTZ AUX)
    Blend: AUG-CC-PVTZ-JKFIT + DEF2-UNIVERSAL-JKFIT

    Orbital Energies [Eh]
    ---------------------

    Doubly Occupied:

       1A   -133.752394     2A    -14.708121     3A    -11.738180
       4A    -11.738179     5A    -11.738178     6A     -1.963857
       7A     -1.170575     8A     -1.170562     9A     -1.170553

  @DF-RHF Final Energy:  -599.01751700987188

   => Energetics <=

    Nuclear Repulsion Energy =              0.0000000000000000
    One-Electron Energy =                -819.7338353065338197
    Two-Electron Energy =                 220.7163182966619104
    Total Energy =                       -599.0175170098718809
 Dipole X            :          0.0000463            0.0000000            0.0000463
 Dipole Y            :          0.0001522            0.0000000            0.0001522
 Dipole Z            :          0.0001207            0.0000000            0.0001207
 Magnitude           :                                                    0.0001997
  Basis Set: (AUG-CC-PVTZ AUX)
    Blend: AUG-CC-PVTZ-RI + DEF2-QZVPP-RI
	 Reference Energy          =    -599.0175170098718809 [Eh]
	 Singles Energy            =      -0.0000000000000000 [Eh]
	 Same-Spin Energy          =      -0.0389995776102921 [Eh]
	 Opposite-Spin Energy      =      -0.0957767300214575 [Eh]
	 Correlation Energy        =      -0.1347763076317496 [Eh]
	 Total Energy              =    -599.1522933175036769 [Eh]

	 ================> DF-SCS-MP2 Energies <==================
	-----------------------------------------------------------
	 SCS Same-Spin Scale       =       0.3333333333333333 [-]
	 SCS Opposite-Spin Scale   =       1.2000000000000000 [-]
	 SCS Same-Spin Energy      =      -0.0129998592034307 [Eh]
	 SCS Opposite-Spin Energy  =      -0.1149320760257490 [Eh]
	 SCS Correlation Energy    =      -0.1279319352291797 [Eh]
	 SCS Total Energy          =    -599.1454489451010659 [Eh]
	-----------------------------------------------------------

*** Psi4 exiting successfully. Buy a developer a beer!
