                               Psi4 1.9 release

  ==> Input File <==

--------------------------------------------------------------------------
MEMORY 60 GB

molecule dimer {
1 1
K          0.000000     0.000000     0.000000
Gh(O)     -1.370696     1.604479    -1.550439
Gh(H)     -2.076934     1.905007    -1.017557
Gh(H)     -1.553716     1.524466    -2.505073
Gh(O)     -1.998737    -0.974662     1.599881
Gh(H)     -2.513349    -0.187129     1.508550
Gh(H)     -2.107385    -1.288235     2.520883
Gh(O)      1.577216    -0.657159     1.925838
Gh(H)      1.513681    -0.094488     2.713468
Gh(H)      2.523881    -0.722081     1.667496
Gh(O)     -0.990708    -1.602974    -1.918941
Gh(H)     -0.942529    -2.440920    -1.500342
Gh(H)     -0.185141    -1.605642    -2.464998
Gh(O)      0.436480     2.229228     1.505701
Gh(H)      0.369638     3.148405     1.178374
Gh(H)      1.255062     2.186885     2.041814
Gh(O)      2.765894     0.729757    -0.577149
Gh(H)      3.109093     1.422939    -1.184852
Gh(H)      2.919337     1.046345     0.333290

units ang
no_reorient
no_com
symmetry c1
}

set {
basis        aug-cc-pVTZ
scf_type     df
}

energy("mp2")
--------------------------------------------------------------------------

    Molecular point group: c1

    Geometry (in Angstrom), charge = 1, multiplicity = 1:

       Center              X                  Y                   Z               Mass
    ------------   -----------------  -----------------  -----------------  -----------------
         K            0.000000000000     0.000000000000     0.000000000000    38.963706486400
      Gh(O)          -1.370696000000     1.604479000000    -1.550439000000    15.994914619570
      Gh(H)          -2.076934000000     1.905007000000    -1.017557000000     1.007825032230
      Gh(H)          -1.553716000000     1.524466000000    -2.505073000000     1.007825032230
      Gh(O)          -1.998737000000    -0.974662000000     1.599881000000    15.994914619570
      Gh(H)          -2.513349000000    -0.187129000000     1.508550000000     1.007825032230
      Gh(H)          -2.107385000000    -1.288235000000     2.520883000000     1.007825032230
      Gh(O)           1.577216000000    -0.657159000000     1.925838000000    15.994914619570
      Gh(H)           1.513681000000    -0.094488000000     2.713468000000     1.007825032230
      Gh(H)           2.523881000000    -0.722081000000     1.667496000000     1.007825032230
      Gh(O)          -0.990708000000    -1.602974000000    -1.918941000000    15.994914619570
      Gh(H)          -0.942529000000    -2.440920000000    -1.500342000000     1.007825032230
      Gh(H)          -0.185141000000    -1.605642000000    -2.464998000000     1.007825032230
      Gh(O)           0.436480000000     2.229228000000     1.505701000000    15.994914619570
      Gh(H)           0.369638000000     3.148405000000     1.178374000000     1.007825032230
      Gh(H)           1.255062000000     2.186885000000     2.041814000000     1.007825032230
      Gh(O)           2.765894000000     0.729757000000    -0.577149000000    15.994914619570
      Gh(H)           3.109093000000     1.422939000000    -1.184852000000     1.007825032230
      Gh(H)           2.919337000000     1.046345000000     0.333290000000     1.007825032230

  Charge       = 1
  Multiplicity = 1
  Basis Set: AUG-CC-PVTZ
    Blend: AUG-CC-PVTZ
  Basis Set: (AUG-CC-PVTZ AUX)
    Blend: AUG-CC-PVTZ-JKFIT + DEF2-UNIVERSAL-JKFIT

    Orbital Energies [Eh]
    ---------------------

    Doubly Occupied:

       1A   -133.752356     2A    -14.708091     3A    -11.738150
       4A    -11.738149     5A    -11.738149     6A     -1.963841
       7A     -1.170561     8A     -1.170549     9A     -1.170544

  @DF-RHF Final Energy:  -599.01751740612701

   => Energetics <=

    Nuclear Repulsion Energy =              0.0000000000000000
    One-Electron Energy =                -819.7342553645876251
    Two-Electron Energy =                 220.7167379584606408
    Total Energy =                       -599.0175174061270127
 Dipole X            :         -0.0000094            0.0000000           -0.0000094
 Dipole Y            :          0.0000541            0.0000000            0.0000541
 Dipole Z            :          0.0000522            0.0000000            0.0000522
 Magnitude           :                                                    0.0000757
  Basis Set: (AUG-CC-PVTZ AUX)
    Blend: AUG-CC-PVTZ-RI + DEF2-QZVPP-RI
	 Reference Energy          =    -599.0175174061270127 [Eh]
	 Singles Energy            =      -0.0000000000000000 [Eh]
	 Same-Spin Energy          =      -0.0397638192854214 [Eh]
	 Opposite-Spin Energy      =      -0.0979995588085529 [Eh]
	 Correlation Energy        =      -0.1377633780939742 [Eh]
	 Total Energy              =    -599.1552807842209631 [Eh]

	 ================> DF-SCS-MP2 Energies <==================
	-----------------------------------------------------------
	 SCS Same-Spin Scale       =       0.3333333333333333 [-]
	 SCS Opposite-Spin Scale   =       1.2000000000000000 [-]
	 SCS Same-Spin Energy      =      -0.0132546064284738 [Eh]
	 SCS Opposite-Spin Energy  =      -0.1175994705702634 [Eh]
	 SCS Correlation Energy    =      -0.1308540769987372 [Eh]
	 SCS Total Energy          =    -599.1483714831257430 [Eh]
	-----------------------------------------------------------

*** Psi4 exiting successfully. Buy a developer a beer!
