                               Psi4 1.9 release

  ==> Input File <==

--------------------------------------------------------------------------
MEMORY 60 GB

molecule dimer {
1 1
K      0.000000     0.000000     0.000000
--
0 1
O      1.998788    -1.892981    -1.275619
H      1.360295    -2.129853    -1.967743
H      2.785721    -1.689378    -1.859302
O     -2.305916    -0.575904    -1.423238
H     -2.524150    -0.535467    -2.347313
H     -1.974768    -1.476719    -1.203696
O     -1.216902     2.172280     0.900711
H     -1.602851     1.834558     1.691032
H     -0.956919     3.082716     1.081943
O      1.514527    -2.061471     1.508858
H      1.933106    -2.366114     0.691556
H      0.944965    -2.736547     1.833539
O      2.272850     0.840728     1.315721
H      2.977124     0.173544     1.188519
H      2.679249     1.703018     1.056976
O      0.901593     1.890982    -1.438276
H      1.107019     2.546113    -0.725155
H      0.579848     2.387877    -2.155061

units ang
no_reorient
no_com
symmetry c1
}

set {
basis        aug-cc-pVTZ
scf_type     df
}

energy("mp2", bsse_type="cp")
--------------------------------------------------------------------------

                               Psi4 1.9 release
    Molecular point group: c1
  Charge       = 0
  Multiplicity = 1
  Basis Set: AUG-CC-PVTZ
    Blend: AUG-CC-PVTZ
  Basis Set: (AUG-CC-PVTZ AUX)
    Blend: AUG-CC-PVTZ-JKFIT + DEF2-UNIVERSAL-JKFIT
  @DF-RHF Final Energy:  -456.33659040184534
    Total Energy =                       -456.3365904018453421
 Dipole X            :        -61.1427793           61.6582845            0.5155052
 Dipole Y            :         -7.2047397            7.1484938           -0.0562460
 Dipole Z            :         10.0100881          -11.3562128           -1.3461247
 Magnitude           :                                                    1.4425536
  Basis Set: (AUG-CC-PVTZ AUX)
    Blend: AUG-CC-PVTZ-RI + DEF2-QZVPP-RI
	 Reference Energy          =    -456.3365904018453421 [Eh]
	 Singles Energy            =      -0.0000000000000000 [Eh]
	 Same-Spin Energy          =      -0.4153565750049799 [Eh]
	 Opposite-Spin Energy      =      -1.3017510417196743 [Eh]
	 Correlation Energy        =      -1.7171076167246542 [Eh]
	 Total Energy              =    -458.0536980185700031 [Eh]
	 SCS Total Energy          =    -458.0371438435772689 [Eh]
                               Psi4 1.9 release
    Molecular point group: c1
  Multiplicity = 1
  Basis Set: AUG-CC-PVTZ
    Blend: AUG-CC-PVTZ
  Basis Set: (AUG-CC-PVTZ AUX)
    Blend: AUG-CC-PVTZ-JKFIT + DEF2-UNIVERSAL-JKFIT
  @DF-RHF Final Energy:  -599.01751705873721
    Total Energy =                       -599.0175170587372122
  Basis Set: (AUG-CC-PVTZ AUX)
	 Singles Energy            =      -0.0000000000000000 [Eh]
	 Same-Spin Energy          =      -0.0389439310270311 [Eh]
	 Opposite-Spin Energy      =      -0.0956600300019260 [Eh]
	 Correlation Energy        =      -0.1346039610289571 [Eh]
	 Total Energy              =    -599.1521210197661276 [Eh]
	 SCS Total Energy          =    -599.1452904050818233 [Eh]
                               Psi4 1.9 release
    Molecular point group: c1

    Geometry (in Bohr), charge = 1, multiplicity = 1:

       Center              X                  Y                   Z               Mass
    ------------   -----------------  -----------------  -----------------  -----------------
         K            0.000000000000     0.000000000000     0.000000000000    38.963706486400
         O            3.777161902852    -3.577215650695    -2.410570550430    15.994914619570
         H            2.570584999830    -4.024838857485    -3.718495355287     1.007825032230
         H            5.264249751937    -3.192461742374    -3.513571564516     1.007825032230
         O           -4.357549708311    -1.088300834556    -2.689530031344    15.994914619570
         H           -4.769952199574    -1.011885979221    -4.435778700727     1.007825032230
         H           -3.731770681318    -2.790594474260    -2.274655778309     1.007825032230
         O           -2.299611501522     4.105014267810     1.702097108187    15.994914619570
         H           -3.028949409916     3.466812181268     3.195587349385     1.007825032230
         H           -1.808314834247     5.825488962567     2.044575953356     1.007825032230
         O            2.862041239611    -3.895615605574     2.851328382206    15.994914619570
         H            3.653040911479    -4.471307441612     1.306851440417     1.007825032230
         H            1.785725048143    -5.171324359443     3.464886550346     1.007825032230
         O            4.295064024247     1.588745666004     2.486352347513    15.994914619570
         H            5.625949001528     0.327950630716     2.245975404903     1.007825032230
         H            5.063046831907     3.218237606725     1.997395161182     1.007825032230
         O            1.703763846630     3.573438088170    -2.717947732819    15.994914619570
         H            2.091962725678     4.811456254468    -1.370344348506     1.007825032230
         H            1.095753914394     4.512433551280    -4.072475073655     1.007825032230

  Charge       = 1
  Multiplicity = 1
  Basis Set: AUG-CC-PVTZ
    Blend: AUG-CC-PVTZ
  Basis Set: (AUG-CC-PVTZ AUX)
    Blend: AUG-CC-PVTZ-JKFIT + DEF2-UNIVERSAL-JKFIT

    Orbital Energies [Eh]
    ---------------------

    Doubly Occupied:

       1A   -133.590338     2A    -20.728887     3A    -20.711482
       4A    -20.710873     5A    -20.705091     6A    -20.697257
       7A    -20.677022     8A    -14.548595     9A    -11.578438
      10A    -11.578430    11A    -11.578224    12A     -1.813185
      13A     -1.502841    14A     -1.502387    15A     -1.498009
      16A     -1.492856    17A     -1.470969    18A     -1.467418
      19A     -1.026837    20A     -1.024961    21A     -1.020644
      22A     -0.871338    23A     -0.868137    24A     -0.865154
      25A     -0.852906    26A     -0.848427    27A     -0.832259
      28A     -0.753391    29A     -0.736186    30A     -0.730757
      31A     -0.721449    32A     -0.713222    33A     -0.692730
      34A     -0.668795    35A     -0.661068    36A     -0.656392
      37A     -0.653963    38A     -0.638793    39A     -0.627318

  @DF-RHF Final Energy: -1055.44959502496340

   => Energetics <=

    Nuclear Repulsion Energy =            461.0688756578487641
    One-Electron Energy =               -2364.4028754095115801
    Two-Electron Energy =                 847.8844047266992447
    Total Energy =                      -1055.4495950249634006
 Dipole X            :        -60.8791403           61.6582845            0.7791442
 Dipole Y            :         -6.9560546            7.1484938            0.1924392
 Dipole Z            :          9.9200043          -11.3562128           -1.4362084
 Magnitude           :                                                    1.6452335
  Basis Set: (AUG-CC-PVTZ AUX)
    Blend: AUG-CC-PVTZ-RI + DEF2-QZVPP-RI
	 Reference Energy          =   -1055.4495950249634006 [Eh]
	 Singles Energy            =      -0.0000000000000000 [Eh]
	 Same-Spin Energy          =      -0.4584001760045867 [Eh]
	 Opposite-Spin Energy      =      -1.3975491905065933 [Eh]
	 Correlation Energy        =      -1.8559493665111799 [Eh]
	 Total Energy              =   -1057.3055443914745410 [Eh]

	 ================> DF-SCS-MP2 Energies <==================
	-----------------------------------------------------------
	 SCS Same-Spin Scale       =       0.3333333333333333 [-]
	 SCS Opposite-Spin Scale   =       1.2000000000000000 [-]
	 SCS Same-Spin Energy      =      -0.1528000586681956 [Eh]
	 SCS Opposite-Spin Energy  =      -1.6770590286079119 [Eh]
	 SCS Correlation Energy    =      -1.8298590872761076 [Eh]
	 SCS Total Energy          =   -1057.2794541122395913 [Eh]
	-----------------------------------------------------------

*** Psi4 exiting successfully. Buy a developer a beer!
