                               Psi4 1.9 release

  ==> Input File <==

--------------------------------------------------------------------------
MEMORY 60 GB

molecule dimer {
1 1
K          0.000000     0.000000     0.000000
O          0.309615    -2.623382    -1.550755
H          0.073529    -3.411695    -2.042004
H          0.732044    -2.924054    -0.731434
O         -2.529295     1.007717     0.149432
H         -3.031134     1.319525    -0.599291
H         -2.665484     0.041905     0.322961
O          1.728418     1.676356     0.611770
H          1.306700     2.209773     1.232986
H          2.018027     2.273752    -0.126886
O          0.635505    -0.312124     2.701636
H         -0.164451    -0.813360     3.054926
H          0.947635     0.214693     3.417860
O          0.007774     0.682534    -2.427733
H         -0.877989     0.809481    -2.864264
H          0.577915     0.435714    -3.144891

units ang
no_reorient
no_com
symmetry c1
}

set {
basis        aug-cc-pVTZ
scf_type     df
}

energy("mp2")
--------------------------------------------------------------------------

    Molecular point group: c1

    Geometry (in Angstrom), charge = 1, multiplicity = 1:

       Center              X                  Y                   Z               Mass
    ------------   -----------------  -----------------  -----------------  -----------------
         K            0.000000000000     0.000000000000     0.000000000000    38.963706486400
         O            0.309615000000    -2.623382000000    -1.550755000000    15.994914619570
         H            0.073529000000    -3.411695000000    -2.042004000000     1.007825032230
         H            0.732044000000    -2.924054000000    -0.731434000000     1.007825032230
         O           -2.529295000000     1.007717000000     0.149432000000    15.994914619570
         H           -3.031134000000     1.319525000000    -0.599291000000     1.007825032230
         H           -2.665484000000     0.041905000000     0.322961000000     1.007825032230
         O            1.728418000000     1.676356000000     0.611770000000    15.994914619570
         H            1.306700000000     2.209773000000     1.232986000000     1.007825032230
         H            2.018027000000     2.273752000000    -0.126886000000     1.007825032230
         O            0.635505000000    -0.312124000000     2.701636000000    15.994914619570
         H           -0.164451000000    -0.813360000000     3.054926000000     1.007825032230
         H            0.947635000000     0.214693000000     3.417860000000     1.007825032230
         O            0.007774000000     0.682534000000    -2.427733000000    15.994914619570
         H           -0.877989000000     0.809481000000    -2.864264000000     1.007825032230
         H            0.577915000000     0.435714000000    -3.144891000000     1.007825032230

  Charge       = 1
  Multiplicity = 1
  Basis Set: AUG-CC-PVTZ
    Blend: AUG-CC-PVTZ
  Basis Set: (AUG-CC-PVTZ AUX)
    Blend: AUG-CC-PVTZ-JKFIT + DEF2-UNIVERSAL-JKFIT

    Orbital Energies [Eh]
    ---------------------

    Doubly Occupied:

       1A   -133.598351     2A    -20.719425     3A    -20.716480
       4A    -20.712713     5A    -20.706647     6A    -20.703035
       7A    -14.557059     8A    -11.586853     9A    -11.586823
      10A    -11.586662    11A     -1.823091    12A     -1.501703
      13A     -1.499616    14A     -1.497781    15A     -1.490522
      16A     -1.485768    17A     -1.036561    18A     -1.033831
      19A     -1.032907    20A     -0.879681    21A     -0.868344
      22A     -0.859066    23A     -0.856239    24A     -0.855374
      25A     -0.743998    26A     -0.735747    27A     -0.724223
      28A     -0.723301    29A     -0.721040    30A     -0.664829
      31A     -0.662722    32A     -0.658733    33A     -0.655469
      34A     -0.647092

  @DF-RHF Final Energy:  -979.37838140586905

   => Energetics <=

    Nuclear Repulsion Energy =            350.6401547982894726
    One-Electron Energy =               -2039.7736943981490185
    Two-Electron Energy =                 709.7551581939903826
    Total Energy =                       -979.3783814058690496
 Dipole X            :         -1.0942353            0.2511975           -0.8430378
 Dipole Y            :         -7.1259310            6.8115972           -0.3143338
 Dipole Z            :         10.1905691          -10.5923628           -0.4017937
 Magnitude           :                                                    0.9853713
  Basis Set: (AUG-CC-PVTZ AUX)
    Blend: AUG-CC-PVTZ-RI + DEF2-QZVPP-RI
	 Reference Energy          =    -979.3783814058690496 [Eh]
	 Singles Energy            =      -0.0000000000000000 [Eh]
	 Same-Spin Energy          =      -0.3862352116897277 [Eh]
	 Opposite-Spin Energy      =      -1.1752680792892236 [Eh]
	 Correlation Energy        =      -1.5615032909789512 [Eh]
	 Total Energy              =    -980.9398846968480257 [Eh]

	 ================> DF-SCS-MP2 Energies <==================
	-----------------------------------------------------------
	 SCS Same-Spin Scale       =       0.3333333333333333 [-]
	 SCS Opposite-Spin Scale   =       1.2000000000000000 [-]
	 SCS Same-Spin Energy      =      -0.1287450705632426 [Eh]
	 SCS Opposite-Spin Energy  =      -1.4103216951470683 [Eh]
	 SCS Correlation Energy    =      -1.5390667657103108 [Eh]
	 SCS Total Energy          =    -980.9174481715793945 [Eh]
	-----------------------------------------------------------

*** Psi4 exiting successfully. Buy a developer a beer!
