                               Psi4 1.9 release

  ==> Input File <==

--------------------------------------------------------------------------
MEMORY 60 GB

molecule dimer {
1 1
K          0.000000     0.000000     0.000000
Gh(O)      2.210706     1.169674     1.148820
Gh(H)      2.542276     0.564502     1.883025
Gh(H)      2.469189     2.058712     1.390268
Gh(O)     -0.157161     0.568570    -2.648263
Gh(H)      0.654664     1.115551    -2.877620
Gh(H)     -0.061308    -0.316781    -3.128151
Gh(O)      1.720062    -1.820533    -1.495334
Gh(H)      1.720440    -2.330188    -2.342644
Gh(H)      2.311599    -2.331956    -0.890084
Gh(O)     -1.760100     1.823148     0.416399
Gh(H)     -1.645011     2.388567     1.190595
Gh(H)     -1.171767     2.247211    -0.232701
Gh(O)      0.101240    -2.179944     1.333505
Gh(H)     -0.422830    -2.543391     0.610743
Gh(H)      1.012164    -2.546319     1.146336

units ang
no_reorient
no_com
symmetry c1
}

set {
basis        aug-cc-pVTZ
scf_type     df
}

energy("mp2")
--------------------------------------------------------------------------

    Molecular point group: c1

    Geometry (in Angstrom), charge = 1, multiplicity = 1:

       Center              X                  Y                   Z               Mass
    ------------   -----------------  -----------------  -----------------  -----------------
         K            0.000000000000     0.000000000000     0.000000000000    38.963706486400
      Gh(O)           2.210706000000     1.169674000000     1.148820000000    15.994914619570
      Gh(H)           2.542276000000     0.564502000000     1.883025000000     1.007825032230
      Gh(H)           2.469189000000     2.058712000000     1.390268000000     1.007825032230
      Gh(O)          -0.157161000000     0.568570000000    -2.648263000000    15.994914619570
      Gh(H)           0.654664000000     1.115551000000    -2.877620000000     1.007825032230
      Gh(H)          -0.061308000000    -0.316781000000    -3.128151000000     1.007825032230
      Gh(O)           1.720062000000    -1.820533000000    -1.495334000000    15.994914619570
      Gh(H)           1.720440000000    -2.330188000000    -2.342644000000     1.007825032230
      Gh(H)           2.311599000000    -2.331956000000    -0.890084000000     1.007825032230
      Gh(O)          -1.760100000000     1.823148000000     0.416399000000    15.994914619570
      Gh(H)          -1.645011000000     2.388567000000     1.190595000000     1.007825032230
      Gh(H)          -1.171767000000     2.247211000000    -0.232701000000     1.007825032230
      Gh(O)           0.101240000000    -2.179944000000     1.333505000000    15.994914619570
      Gh(H)          -0.422830000000    -2.543391000000     0.610743000000     1.007825032230
      Gh(H)           1.012164000000    -2.546319000000     1.146336000000     1.007825032230

  Charge       = 1
  Multiplicity = 1
  Basis Set: AUG-CC-PVTZ
    Blend: AUG-CC-PVTZ
  Basis Set: (AUG-CC-PVTZ AUX)
    Blend: AUG-CC-PVTZ-JKFIT + DEF2-UNIVERSAL-JKFIT

    Orbital Energies [Eh]
    ---------------------

    Doubly Occupied:

       1A   -133.752539     2A    -14.708229     3A    -11.738291
       4A    -11.738288     5A    -11.738288     6A     -1.963897
       7A     -1.170613     8A     -1.170597     9A     -1.170576

  @DF-RHF Final Energy:  -599.01751647694221

   => Energetics <=

    Nuclear Repulsion Energy =              0.0000000000000000
    One-Electron Energy =                -819.7323955132262654
    Two-Electron Energy =                 220.7148790362841169
    Total Energy =                       -599.0175164769420917
 Dipole X            :          0.0001115            0.0000000            0.0001115
 Dipole Y            :         -0.0000071            0.0000000           -0.0000071
 Dipole Z            :         -0.0000451            0.0000000           -0.0000451
 Magnitude           :                                                    0.0001205
  Basis Set: (AUG-CC-PVTZ AUX)
    Blend: AUG-CC-PVTZ-RI + DEF2-QZVPP-RI
	 Reference Energy          =    -599.0175164769422054 [Eh]
	 Singles Energy            =      -0.0000000000000000 [Eh]
	 Same-Spin Energy          =      -0.0381079785477938 [Eh]
	 Opposite-Spin Energy      =      -0.0932429682096802 [Eh]
	 Correlation Energy        =      -0.1313509467574740 [Eh]
	 Total Energy              =    -599.1488674236996985 [Eh]

	 ================> DF-SCS-MP2 Energies <==================
	-----------------------------------------------------------
	 SCS Same-Spin Scale       =       0.3333333333333333 [-]
	 SCS Opposite-Spin Scale   =       1.2000000000000000 [-]
	 SCS Same-Spin Energy      =      -0.0127026595159313 [Eh]
	 SCS Opposite-Spin Energy  =      -0.1118915618516162 [Eh]
	 SCS Correlation Energy    =      -0.1245942213675475 [Eh]
	 SCS Total Energy          =    -599.1421106983098070 [Eh]
	-----------------------------------------------------------

*** Psi4 exiting successfully. Buy a developer a beer!
