                               Psi4 1.9 release

  ==> Input File <==

--------------------------------------------------------------------------
MEMORY 60 GB

molecule dimer {
1 1
K          0.000000     0.000000     0.000000
Gh(O)      0.612876    -1.115935    -2.349051
Gh(H)      0.426290    -1.552454    -3.196404
Gh(H)      1.249709    -1.726035    -1.997265
Gh(O)      0.226950    -1.309350     2.562510
Gh(H)      0.264022    -0.641943     3.257966
Gh(H)      1.068749    -1.730800     2.570162
Gh(O)     -2.056105     0.919747    -1.186773
Gh(H)     -2.198049     0.297455    -1.925318
Gh(H)     -2.809767     1.060828    -0.585807
Gh(O)     -1.976233    -2.079701    -0.110673
Gh(H)     -1.733104    -3.050987    -0.116702
Gh(H)     -2.703697    -1.948167    -0.750612
Gh(O)      1.852186     1.592652     1.468527
Gh(H)      2.464721     2.245763     1.040167
Gh(H)      1.990939     1.633926     2.445297
Gh(O)      2.746451    -1.160995     0.084226
Gh(H)      3.055897    -0.685917    -0.671043
Gh(H)      3.443294    -1.731569     0.452839

units ang
no_reorient
no_com
symmetry c1
}

set {
basis        aug-cc-pVTZ
scf_type     df
}

energy("mp2")
--------------------------------------------------------------------------

    Molecular point group: c1

    Geometry (in Angstrom), charge = 1, multiplicity = 1:

       Center              X                  Y                   Z               Mass
    ------------   -----------------  -----------------  -----------------  -----------------
         K            0.000000000000     0.000000000000     0.000000000000    38.963706486400
      Gh(O)           0.612876000000    -1.115935000000    -2.349051000000    15.994914619570
      Gh(H)           0.426290000000    -1.552454000000    -3.196404000000     1.007825032230
      Gh(H)           1.249709000000    -1.726035000000    -1.997265000000     1.007825032230
      Gh(O)           0.226950000000    -1.309350000000     2.562510000000    15.994914619570
      Gh(H)           0.264022000000    -0.641943000000     3.257966000000     1.007825032230
      Gh(H)           1.068749000000    -1.730800000000     2.570162000000     1.007825032230
      Gh(O)          -2.056105000000     0.919747000000    -1.186773000000    15.994914619570
      Gh(H)          -2.198049000000     0.297455000000    -1.925318000000     1.007825032230
      Gh(H)          -2.809767000000     1.060828000000    -0.585807000000     1.007825032230
      Gh(O)          -1.976233000000    -2.079701000000    -0.110673000000    15.994914619570
      Gh(H)          -1.733104000000    -3.050987000000    -0.116702000000     1.007825032230
      Gh(H)          -2.703697000000    -1.948167000000    -0.750612000000     1.007825032230
      Gh(O)           1.852186000000     1.592652000000     1.468527000000    15.994914619570
      Gh(H)           2.464721000000     2.245763000000     1.040167000000     1.007825032230
      Gh(H)           1.990939000000     1.633926000000     2.445297000000     1.007825032230
      Gh(O)           2.746451000000    -1.160995000000     0.084226000000    15.994914619570
      Gh(H)           3.055897000000    -0.685917000000    -0.671043000000     1.007825032230
      Gh(H)           3.443294000000    -1.731569000000     0.452839000000     1.007825032230

  Charge       = 1
  Multiplicity = 1
  Basis Set: AUG-CC-PVTZ
    Blend: AUG-CC-PVTZ
  Basis Set: (AUG-CC-PVTZ AUX)
    Blend: AUG-CC-PVTZ-JKFIT + DEF2-UNIVERSAL-JKFIT

    Orbital Energies [Eh]
    ---------------------

    Doubly Occupied:

       1A   -133.752454     2A    -14.708165     3A    -11.738225
       4A    -11.738224     5A    -11.738223     6A     -1.963872
       7A     -1.170593     8A     -1.170575     9A     -1.170561

  @DF-RHF Final Energy:  -599.01751694882000

   => Energetics <=

    Nuclear Repulsion Energy =              0.0000000000000000
    One-Electron Energy =                -819.7332520143121428
    Two-Electron Energy =                 220.7157350654921686
    Total Energy =                       -599.0175169488200027
 Dipole X            :          0.0000238            0.0000000            0.0000238
 Dipole Y            :         -0.0001368            0.0000000           -0.0001368
 Dipole Z            :         -0.0000254            0.0000000           -0.0000254
 Magnitude           :                                                    0.0001411
  Basis Set: (AUG-CC-PVTZ AUX)
    Blend: AUG-CC-PVTZ-RI + DEF2-QZVPP-RI
	 Reference Energy          =    -599.0175169488200027 [Eh]
	 Singles Energy            =      -0.0000000000000000 [Eh]
	 Same-Spin Energy          =      -0.0385424827829295 [Eh]
	 Opposite-Spin Energy      =      -0.0945328338586482 [Eh]
	 Correlation Energy        =      -0.1330753166415777 [Eh]
	 Total Energy              =    -599.1505922654615688 [Eh]

	 ================> DF-SCS-MP2 Energies <==================
	-----------------------------------------------------------
	 SCS Same-Spin Scale       =       0.3333333333333333 [-]
	 SCS Opposite-Spin Scale   =       1.2000000000000000 [-]
	 SCS Same-Spin Energy      =      -0.0128474942609765 [Eh]
	 SCS Opposite-Spin Energy  =      -0.1134394006303778 [Eh]
	 SCS Correlation Energy    =      -0.1262868948913543 [Eh]
	 SCS Total Energy          =    -599.1438038437113391 [Eh]
	-----------------------------------------------------------

*** Psi4 exiting successfully. Buy a developer a beer!
