                               Psi4 1.9 release

  ==> Input File <==

--------------------------------------------------------------------------
MEMORY 60 GB

molecule dimer {
1 1
K          0.000000     0.000000     0.000000
Gh(O)     -1.761971     1.679819    -1.384796
Gh(H)     -1.993530     1.859311    -2.310131
Gh(H)     -1.491064     2.551322    -1.061033
Gh(O)     -1.934913    -2.329125     0.427012
Gh(H)     -2.429676    -2.843944    -0.200316
Gh(H)     -2.478147    -1.527226     0.550138
Gh(O)     -0.769395    -1.744512    -2.140743
Gh(H)     -0.280499    -2.412102    -1.484121
Gh(H)     -1.513491    -2.237356    -2.422087
Gh(O)      0.163245     3.037506     0.036371
Gh(H)      0.343344     3.833379    -0.472962
Gh(H)      0.088329     3.252112     0.940310
Gh(O)      2.337800     1.279403    -0.997110
Gh(H)      2.614134     2.061165    -0.590317
Gh(H)      1.747208     1.653313    -1.667772
Gh(O)      0.977425    -0.442696     2.492052
Gh(H)      1.859603    -0.903416     2.580845
Gh(H)      0.477952    -0.770092     3.245807

units ang
no_reorient
no_com
symmetry c1
}

set {
basis        aug-cc-pVTZ
scf_type     df
}

energy("mp2")
--------------------------------------------------------------------------

    Molecular point group: c1

    Geometry (in Angstrom), charge = 1, multiplicity = 1:

       Center              X                  Y                   Z               Mass
    ------------   -----------------  -----------------  -----------------  -----------------
         K            0.000000000000     0.000000000000     0.000000000000    38.963706486400
      Gh(O)          -1.761971000000     1.679819000000    -1.384796000000    15.994914619570
      Gh(H)          -1.993530000000     1.859311000000    -2.310131000000     1.007825032230
      Gh(H)          -1.491064000000     2.551322000000    -1.061033000000     1.007825032230
      Gh(O)          -1.934913000000    -2.329125000000     0.427012000000    15.994914619570
      Gh(H)          -2.429676000000    -2.843944000000    -0.200316000000     1.007825032230
      Gh(H)          -2.478147000000    -1.527226000000     0.550138000000     1.007825032230
      Gh(O)          -0.769395000000    -1.744512000000    -2.140743000000    15.994914619570
      Gh(H)          -0.280499000000    -2.412102000000    -1.484121000000     1.007825032230
      Gh(H)          -1.513491000000    -2.237356000000    -2.422087000000     1.007825032230
      Gh(O)           0.163245000000     3.037506000000     0.036371000000    15.994914619570
      Gh(H)           0.343344000000     3.833379000000    -0.472962000000     1.007825032230
      Gh(H)           0.088329000000     3.252112000000     0.940310000000     1.007825032230
      Gh(O)           2.337800000000     1.279403000000    -0.997110000000    15.994914619570
      Gh(H)           2.614134000000     2.061165000000    -0.590317000000     1.007825032230
      Gh(H)           1.747208000000     1.653313000000    -1.667772000000     1.007825032230
      Gh(O)           0.977425000000    -0.442696000000     2.492052000000    15.994914619570
      Gh(H)           1.859603000000    -0.903416000000     2.580845000000     1.007825032230
      Gh(H)           0.477952000000    -0.770092000000     3.245807000000     1.007825032230

  Charge       = 1
  Multiplicity = 1
  Basis Set: AUG-CC-PVTZ
    Blend: AUG-CC-PVTZ
  Basis Set: (AUG-CC-PVTZ AUX)
    Blend: AUG-CC-PVTZ-JKFIT + DEF2-UNIVERSAL-JKFIT

    Orbital Energies [Eh]
    ---------------------

    Doubly Occupied:

       1A   -133.752492     2A    -14.708197     3A    -11.738258
       4A    -11.738256     5A    -11.738254     6A     -1.963889
       7A     -1.170606     8A     -1.170588     9A     -1.170572

  @DF-RHF Final Energy:  -599.01751651677921

   => Energetics <=

    Nuclear Repulsion Energy =              0.0000000000000000
    One-Electron Energy =                -819.7328056997342856
    Two-Electron Energy =                 220.7152891829551606
    Total Energy =                       -599.0175165167790965
 Dipole X            :         -0.0000571            0.0000000           -0.0000571
 Dipole Y            :          0.0000718            0.0000000            0.0000718
 Dipole Z            :         -0.0000379            0.0000000           -0.0000379
 Magnitude           :                                                    0.0000992
  Basis Set: (AUG-CC-PVTZ AUX)
    Blend: AUG-CC-PVTZ-RI + DEF2-QZVPP-RI
	 Reference Energy          =    -599.0175165167792102 [Eh]
	 Singles Energy            =      -0.0000000000000000 [Eh]
	 Same-Spin Energy          =      -0.0378329467042130 [Eh]
	 Opposite-Spin Energy      =      -0.0924146485218193 [Eh]
	 Correlation Energy        =      -0.1302475952260322 [Eh]
	 Total Energy              =    -599.1477641120052340 [Eh]

	 ================> DF-SCS-MP2 Energies <==================
	-----------------------------------------------------------
	 SCS Same-Spin Scale       =       0.3333333333333333 [-]
	 SCS Opposite-Spin Scale   =       1.2000000000000000 [-]
	 SCS Same-Spin Energy      =      -0.0126109822347376 [Eh]
	 SCS Opposite-Spin Energy  =      -0.1108975782261832 [Eh]
	 SCS Correlation Energy    =      -0.1235085604609208 [Eh]
	 SCS Total Energy          =    -599.1410250772401014 [Eh]
	-----------------------------------------------------------

*** Psi4 exiting successfully. Buy a developer a beer!
