                               Psi4 1.9 release

  ==> Input File <==

--------------------------------------------------------------------------
MEMORY 60 GB

molecule dimer {
0 1
Gh(K)      0.000000     0.000000     0.000000
Gh(O)     -1.729110    -1.440725    -1.595164
Gh(H)     -2.115495    -2.310628    -1.338981
Gh(H)     -0.967161    -1.699838    -2.095225
Gh(O)      0.740104    -1.194157    -2.503143
Gh(H)      1.668496    -1.305924    -2.331578
Gh(H)      0.556187    -0.378147    -2.935790
O          2.193072    -0.562674     1.394934
H          2.531896     0.323809     1.640430
H          3.009910    -1.052773     1.088316
Gh(O)     -1.344795     2.320045    -0.663814
Gh(H)     -1.343982     2.818484     0.147861
Gh(H)     -0.624916     2.584864    -1.279756

units ang
no_reorient
no_com
symmetry c1
}

set {
basis        aug-cc-pVTZ
scf_type     df
}

energy("mp2")
--------------------------------------------------------------------------

    Molecular point group: c1

    Geometry (in Angstrom), charge = 0, multiplicity = 1:

       Center              X                  Y                   Z               Mass
    ------------   -----------------  -----------------  -----------------  -----------------
      Gh(K)           0.000000000000     0.000000000000     0.000000000000    38.963706486400
      Gh(O)          -1.729110000000    -1.440725000000    -1.595164000000    15.994914619570
      Gh(H)          -2.115495000000    -2.310628000000    -1.338981000000     1.007825032230
      Gh(H)          -0.967161000000    -1.699838000000    -2.095225000000     1.007825032230
      Gh(O)           0.740104000000    -1.194157000000    -2.503143000000    15.994914619570
      Gh(H)           1.668496000000    -1.305924000000    -2.331578000000     1.007825032230
      Gh(H)           0.556187000000    -0.378147000000    -2.935790000000     1.007825032230
         O            2.193072000000    -0.562674000000     1.394934000000    15.994914619570
         H            2.531896000000     0.323809000000     1.640430000000     1.007825032230
         H            3.009910000000    -1.052773000000     1.088316000000     1.007825032230
      Gh(O)          -1.344795000000     2.320045000000    -0.663814000000    15.994914619570
      Gh(H)          -1.343982000000     2.818484000000     0.147861000000     1.007825032230
      Gh(H)          -0.624916000000     2.584864000000    -1.279756000000     1.007825032230

  Charge       = 0
  Multiplicity = 1
  Basis Set: AUG-CC-PVTZ
    Blend: AUG-CC-PVTZ
  Basis Set: (AUG-CC-PVTZ AUX)
    Blend: AUG-CC-PVTZ-JKFIT + DEF2-UNIVERSAL-JKFIT

    Orbital Energies [Eh]
    ---------------------

    Doubly Occupied:

       1A    -20.573176     2A     -1.337642     3A     -0.698564
       4A     -0.579954     5A     -0.507961

  @DF-RHF Final Energy:   -76.05627979000592

   => Energetics <=

    Nuclear Repulsion Energy =              8.8886075146588599
    One-Electron Energy =                -122.4951785705162735
    Two-Electron Energy =                  37.5502912658514987
    Total Energy =                        -76.0562797900059167
 Dipole X            :        -42.8765218           43.6269392            0.7504175
 Dipole Y            :         10.1447994           -9.8839404            0.2608590
 Dipole Z            :        -26.2832184           26.2449284           -0.0382900
 Magnitude           :                                                    0.7953866
  Basis Set: (AUG-CC-PVTZ AUX)
    Blend: AUG-CC-PVTZ-RI + DEF2-QZVPP-RI
	 Reference Energy          =     -76.0562797900059167 [Eh]
	 Singles Energy            =      -0.0000000000000000 [Eh]
	 Same-Spin Energy          =      -0.0689685049846873 [Eh]
	 Opposite-Spin Energy      =      -0.2172998860535911 [Eh]
	 Correlation Energy        =      -0.2862683910382784 [Eh]
	 Total Energy              =     -76.3425481810441937 [Eh]

	 ================> DF-SCS-MP2 Energies <==================
	-----------------------------------------------------------
	 SCS Same-Spin Scale       =       0.3333333333333333 [-]
	 SCS Opposite-Spin Scale   =       1.2000000000000000 [-]
	 SCS Same-Spin Energy      =      -0.0229895016615624 [Eh]
	 SCS Opposite-Spin Energy  =      -0.2607598632643093 [Eh]
	 SCS Correlation Energy    =      -0.2837493649258718 [Eh]
	 SCS Total Energy          =     -76.3400291549317842 [Eh]
	-----------------------------------------------------------

*** Psi4 exiting successfully. Buy a developer a beer!
