                               Psi4 1.9 release

  ==> Input File <==

--------------------------------------------------------------------------
MEMORY 60 GB

molecule dimer {
0 1
Gh(K)      0.000000     0.000000     0.000000
Gh(O)     -0.031652     2.144978    -1.608259
Gh(H)      0.277586     1.427590    -2.192862
Gh(H)     -1.017221     2.264700    -1.738852
Gh(O)     -0.788931    -0.740656     2.321277
Gh(H)     -1.501247    -0.231443     2.705598
Gh(H)     -0.076222    -0.711789     2.986251
O         -1.974576    -1.628499    -1.490287
H         -2.671600    -1.230877    -0.969768
H         -2.022568    -2.568609    -1.304728
Gh(O)     -0.874063     1.982276     2.140067
Gh(H)     -1.510546     2.328273     1.516840
Gh(H)     -1.133805     2.374863     2.943937
Gh(O)      2.540164     1.201918     0.024099
Gh(H)      2.914567     1.138412     0.906595
Gh(H)      2.914729     2.003474    -0.363718

units ang
no_reorient
no_com
symmetry c1
}

set {
basis        aug-cc-pVTZ
scf_type     df
}

energy("mp2")
--------------------------------------------------------------------------

    Molecular point group: c1

    Geometry (in Angstrom), charge = 0, multiplicity = 1:

       Center              X                  Y                   Z               Mass
    ------------   -----------------  -----------------  -----------------  -----------------
      Gh(K)           0.000000000000     0.000000000000     0.000000000000    38.963706486400
      Gh(O)          -0.031652000000     2.144978000000    -1.608259000000    15.994914619570
      Gh(H)           0.277586000000     1.427590000000    -2.192862000000     1.007825032230
      Gh(H)          -1.017221000000     2.264700000000    -1.738852000000     1.007825032230
      Gh(O)          -0.788931000000    -0.740656000000     2.321277000000    15.994914619570
      Gh(H)          -1.501247000000    -0.231443000000     2.705598000000     1.007825032230
      Gh(H)          -0.076222000000    -0.711789000000     2.986251000000     1.007825032230
         O           -1.974576000000    -1.628499000000    -1.490287000000    15.994914619570
         H           -2.671600000000    -1.230877000000    -0.969768000000     1.007825032230
         H           -2.022568000000    -2.568609000000    -1.304728000000     1.007825032230
      Gh(O)          -0.874063000000     1.982276000000     2.140067000000    15.994914619570
      Gh(H)          -1.510546000000     2.328273000000     1.516840000000     1.007825032230
      Gh(H)          -1.133805000000     2.374863000000     2.943937000000     1.007825032230
      Gh(O)           2.540164000000     1.201918000000     0.024099000000    15.994914619570
      Gh(H)           2.914567000000     1.138412000000     0.906595000000     1.007825032230
      Gh(H)           2.914729000000     2.003474000000    -0.363718000000     1.007825032230

  Charge       = 0
  Multiplicity = 1
  Basis Set: AUG-CC-PVTZ
    Blend: AUG-CC-PVTZ
  Basis Set: (AUG-CC-PVTZ AUX)
    Blend: AUG-CC-PVTZ-JKFIT + DEF2-UNIVERSAL-JKFIT

    Orbital Energies [Eh]
    ---------------------

    Doubly Occupied:

       1A    -20.566822     2A     -1.352518     3A     -0.719098
       4A     -0.583000     5A     -0.510020

  @DF-RHF Final Energy:   -76.06064996985907

   => Energetics <=

    Nuclear Repulsion Energy =              9.1855050270585981
    One-Electron Energy =                -123.0293936580779359
    Two-Electron Energy =                  37.7832386611602686
    Total Energy =                        -76.0606499698590710
 Dipole X            :         38.2249240          -38.7219547           -0.4970307
 Dipole Y            :         31.4380021          -31.7993248           -0.3613227
 Dipole Z            :         27.2987494          -26.8280487            0.4707006
 Magnitude           :                                                    0.7740496
  Basis Set: (AUG-CC-PVTZ AUX)
    Blend: AUG-CC-PVTZ-RI + DEF2-QZVPP-RI
	 Reference Energy          =     -76.0606499698590710 [Eh]
	 Singles Energy            =      -0.0000000000000000 [Eh]
	 Same-Spin Energy          =      -0.0683698137570281 [Eh]
	 Opposite-Spin Energy      =      -0.2154783495984764 [Eh]
	 Correlation Energy        =      -0.2838481633555045 [Eh]
	 Total Energy              =     -76.3444981332145716 [Eh]

	 ================> DF-SCS-MP2 Energies <==================
	-----------------------------------------------------------
	 SCS Same-Spin Scale       =       0.3333333333333333 [-]
	 SCS Opposite-Spin Scale   =       1.2000000000000000 [-]
	 SCS Same-Spin Energy      =      -0.0227899379190094 [Eh]
	 SCS Opposite-Spin Energy  =      -0.2585740195181717 [Eh]
	 SCS Correlation Energy    =      -0.2813639574371811 [Eh]
	 SCS Total Energy          =     -76.3420139272962501 [Eh]
	-----------------------------------------------------------

*** Psi4 exiting successfully. Buy a developer a beer!
