                               Psi4 1.9 release

  ==> Input File <==

--------------------------------------------------------------------------
MEMORY 60 GB

molecule dimer {
1 1
K          0.000000     0.000000     0.000000
Gh(O)     -2.788678     0.406415     0.653974
Gh(H)     -3.199869     0.958424    -0.018216
Gh(H)     -2.648871     0.994298     1.339656
Gh(O)     -0.538075    -0.007256    -2.587985
Gh(H)     -1.178974     0.573219    -3.036130
Gh(H)     -0.622551    -0.842304    -3.100694
Gh(O)      1.217666    -2.504639    -1.246697
Gh(H)      2.075220    -2.521579    -1.694555
Gh(H)      1.096683    -3.374284    -0.758390
Gh(O)     -0.231617     1.394607     2.438855
Gh(H)     -0.561266     2.289091     2.589398
Gh(H)      0.557946     1.311939     2.977921
Gh(O)      2.575424     0.453046    -0.769981
Gh(H)      2.519390    -0.471796    -0.995216
Gh(H)      3.471222     0.584527    -0.443942

units ang
no_reorient
no_com
symmetry c1
}

set {
basis        aug-cc-pVTZ
scf_type     df
}

energy("mp2")
--------------------------------------------------------------------------

    Molecular point group: c1

    Geometry (in Angstrom), charge = 1, multiplicity = 1:

       Center              X                  Y                   Z               Mass
    ------------   -----------------  -----------------  -----------------  -----------------
         K            0.000000000000     0.000000000000     0.000000000000    38.963706486400
      Gh(O)          -2.788678000000     0.406415000000     0.653974000000    15.994914619570
      Gh(H)          -3.199869000000     0.958424000000    -0.018216000000     1.007825032230
      Gh(H)          -2.648871000000     0.994298000000     1.339656000000     1.007825032230
      Gh(O)          -0.538075000000    -0.007256000000    -2.587985000000    15.994914619570
      Gh(H)          -1.178974000000     0.573219000000    -3.036130000000     1.007825032230
      Gh(H)          -0.622551000000    -0.842304000000    -3.100694000000     1.007825032230
      Gh(O)           1.217666000000    -2.504639000000    -1.246697000000    15.994914619570
      Gh(H)           2.075220000000    -2.521579000000    -1.694555000000     1.007825032230
      Gh(H)           1.096683000000    -3.374284000000    -0.758390000000     1.007825032230
      Gh(O)          -0.231617000000     1.394607000000     2.438855000000    15.994914619570
      Gh(H)          -0.561266000000     2.289091000000     2.589398000000     1.007825032230
      Gh(H)           0.557946000000     1.311939000000     2.977921000000     1.007825032230
      Gh(O)           2.575424000000     0.453046000000    -0.769981000000    15.994914619570
      Gh(H)           2.519390000000    -0.471796000000    -0.995216000000     1.007825032230
      Gh(H)           3.471222000000     0.584527000000    -0.443942000000     1.007825032230

  Charge       = 1
  Multiplicity = 1
  Basis Set: AUG-CC-PVTZ
    Blend: AUG-CC-PVTZ
  Basis Set: (AUG-CC-PVTZ AUX)
    Blend: AUG-CC-PVTZ-JKFIT + DEF2-UNIVERSAL-JKFIT

    Orbital Energies [Eh]
    ---------------------

    Doubly Occupied:

       1A   -133.752638     2A    -14.708313     3A    -11.738375
       4A    -11.738373     5A    -11.738371     6A     -1.963942
       7A     -1.170658     8A     -1.170639     9A     -1.170596

  @DF-RHF Final Energy:  -599.01751545430125

   => Energetics <=

    Nuclear Repulsion Energy =              0.0000000000000000
    One-Electron Energy =                -819.7312208147097863
    Two-Electron Energy =                 220.7137053604085679
    Total Energy =                       -599.0175154543012468
 Dipole X            :         -0.0000167            0.0000000           -0.0000167
 Dipole Y            :         -0.0000258            0.0000000           -0.0000258
 Dipole Z            :         -0.0000988            0.0000000           -0.0000988
 Magnitude           :                                                    0.0001035
  Basis Set: (AUG-CC-PVTZ AUX)
    Blend: AUG-CC-PVTZ-RI + DEF2-QZVPP-RI
	 Reference Energy          =    -599.0175154543012468 [Eh]
	 Singles Energy            =      -0.0000000000000000 [Eh]
	 Same-Spin Energy          =      -0.0364224132567588 [Eh]
	 Opposite-Spin Energy      =      -0.0886229006392600 [Eh]
	 Correlation Energy        =      -0.1250453138960188 [Eh]
	 Total Energy              =    -599.1425607681973133 [Eh]

	 ================> DF-SCS-MP2 Energies <==================
	-----------------------------------------------------------
	 SCS Same-Spin Scale       =       0.3333333333333333 [-]
	 SCS Opposite-Spin Scale   =       1.2000000000000000 [-]
	 SCS Same-Spin Energy      =      -0.0121408044189196 [Eh]
	 SCS Opposite-Spin Energy  =      -0.1063474807671120 [Eh]
	 SCS Correlation Energy    =      -0.1184882851860316 [Eh]
	 SCS Total Energy          =    -599.1360037394872506 [Eh]
	-----------------------------------------------------------

*** Psi4 exiting successfully. Buy a developer a beer!
