                               Psi4 1.9 release

  ==> Input File <==

--------------------------------------------------------------------------
MEMORY 60 GB

molecule dimer {
1 1
K      0.000000     0.000000     0.000000
--
0 1
O     -0.502703    -2.334457    -1.283675
H      0.237008    -2.749133    -1.803266
H     -1.286908    -2.624519    -1.722892
O      2.099037     0.906527     1.636457
H      2.896740     1.100518     1.113670
H      1.969279     1.530828     2.370669
O      0.462307     2.678042    -0.359156
H      0.213104     2.711476    -1.330404
H      1.161890     3.384492    -0.307642
O      1.843513    -0.310552    -1.771290
H      2.148881     0.527834    -2.195735
H      2.570572    -0.916573    -1.716041
O     -2.431167     1.182859    -0.447565
H     -2.521700     1.224046    -1.399351
H     -2.195533     2.014004     0.091471

units ang
no_reorient
no_com
symmetry c1
}

set {
basis        aug-cc-pVTZ
scf_type     df
}

energy("mp2", bsse_type="cp")
--------------------------------------------------------------------------

                               Psi4 1.9 release
    Molecular point group: c1
  Charge       = 0
  Multiplicity = 1
  Basis Set: AUG-CC-PVTZ
    Blend: AUG-CC-PVTZ
  Basis Set: (AUG-CC-PVTZ AUX)
    Blend: AUG-CC-PVTZ-JKFIT + DEF2-UNIVERSAL-JKFIT
  @DF-RHF Final Energy:  -380.26210162037125
    Total Energy =                       -380.2621016203712543
 Dipole X            :        -30.6014359           32.0520776            1.4506417
 Dipole Y            :        -42.5428176           43.8082452            1.2654277
 Dipole Z            :         45.1715100          -46.6787921           -1.5072821
 Magnitude           :                                                    2.4449065
  Basis Set: (AUG-CC-PVTZ AUX)
    Blend: AUG-CC-PVTZ-RI + DEF2-QZVPP-RI
	 Reference Energy          =    -380.2621016203712543 [Eh]
	 Singles Energy            =      -0.0000000000000000 [Eh]
	 Same-Spin Energy          =      -0.3462598849265062 [Eh]
	 Opposite-Spin Energy      =      -1.0863745224119397 [Eh]
	 Correlation Energy        =      -1.4326344073384458 [Eh]
	 Total Energy              =    -381.6947360277097232 [Eh]
	 SCS Total Energy          =    -381.6811710089077678 [Eh]
                               Psi4 1.9 release
    Molecular point group: c1
  Multiplicity = 1
  Basis Set: AUG-CC-PVTZ
    Blend: AUG-CC-PVTZ
  Basis Set: (AUG-CC-PVTZ AUX)
    Blend: AUG-CC-PVTZ-JKFIT + DEF2-UNIVERSAL-JKFIT
  @DF-RHF Final Energy:  -599.01751611718475
    Total Energy =                       -599.0175161171846412
  Basis Set: (AUG-CC-PVTZ AUX)
	 Singles Energy            =      -0.0000000000000000 [Eh]
	 Same-Spin Energy          =      -0.0372488304983820 [Eh]
	 Opposite-Spin Energy      =      -0.0907519050510838 [Eh]
	 Correlation Energy        =      -0.1280007355494657 [Eh]
	 Total Energy              =    -599.1455168527342039 [Eh]
	 SCS Total Energy          =    -599.1388346800788440 [Eh]
                               Psi4 1.9 release
    Molecular point group: c1

    Geometry (in Bohr), charge = 1, multiplicity = 1:

       Center              X                  Y                   Z               Mass
    ------------   -----------------  -----------------  -----------------  -----------------
         K            0.000000000000     0.000000000000     0.000000000000    38.963706486400
         O           -0.949970992446    -4.411484381658    -2.425794184097    15.994914619570
         H            0.447880209543    -5.195108452458    -3.407678871350     1.007825032230
         H           -2.431903668661    -4.959622121060    -3.255794023742     1.007825032230
         O            3.966605057203     1.713087755333     3.092455546088    15.994914619570
         H            5.474045256659     2.079677616137     2.104531294139     1.007825032230
         H            3.721397974615     2.892845665182     4.479915144113     1.007825032230
         O            0.873633615882     5.060765932473    -0.678706476315    15.994914619570
         H            0.402708196240     5.123947035752    -2.514099196214     1.007825032230
         H            2.195653887908     6.395762953803    -0.581359124688     1.007825032230
         O            3.483734678721    -0.586858227713    -3.347252988762    15.994914619570
         H            4.060796566200     0.997461699705    -4.149337794082     1.007825032230
         H            4.857677065770    -1.732071943989    -3.242847510057     1.007825032230
         O           -4.594239795251     2.235279555033    -0.845775273341    15.994914619570
         H           -4.765322370567     2.313111704962    -2.644390143386     1.007825032230
         H           -4.148956069405     3.805915975577     0.172855138422     1.007825032230

  Charge       = 1
  Multiplicity = 1
  Basis Set: AUG-CC-PVTZ
    Blend: AUG-CC-PVTZ
  Basis Set: (AUG-CC-PVTZ AUX)
    Blend: AUG-CC-PVTZ-JKFIT + DEF2-UNIVERSAL-JKFIT

    Orbital Energies [Eh]
    ---------------------

    Doubly Occupied:

       1A   -133.592114     2A    -20.732182     3A    -20.725233
       4A    -20.703854     5A    -20.702907     6A    -20.702809
       7A    -14.550338     8A    -11.580248     9A    -11.580103
      10A    -11.580018    11A     -1.814606    12A     -1.509286
      13A     -1.495844    14A     -1.486139    15A     -1.479981
      16A     -1.472259    17A     -1.027288    18A     -1.025653
      19A     -1.022924    20A     -0.883592    21A     -0.869407
      22A     -0.862850    23A     -0.849914    24A     -0.847942
      25A     -0.748279    26A     -0.742845    27A     -0.727608
      28A     -0.711683    29A     -0.693158    30A     -0.675551
      31A     -0.669746    32A     -0.648536    33A     -0.646837
      34A     -0.644314

  @DF-RHF Final Energy:  -979.37661369273462

   => Energetics <=

    Nuclear Repulsion Energy =            355.2976201492862174
    One-Electron Energy =               -2049.3363590131034471
    Two-Electron Energy =                 714.6621251710827210
    Total Energy =                       -979.3766136927346224
 Dipole X            :        -30.3918170           32.0520776            1.6602605
 Dipole Y            :        -42.3320955           43.8082452            1.4761497
 Dipole Z            :         44.8859016          -46.6787921           -1.7928905
 Magnitude           :                                                    2.8548099
  Basis Set: (AUG-CC-PVTZ AUX)
    Blend: AUG-CC-PVTZ-RI + DEF2-QZVPP-RI
	 Reference Energy          =    -979.3766136927346224 [Eh]
	 Singles Energy            =      -0.0000000000000000 [Eh]
	 Same-Spin Energy          =      -0.3869625143127701 [Eh]
	 Opposite-Spin Energy      =      -1.1764539669061733 [Eh]
	 Correlation Energy        =      -1.5634164812189435 [Eh]
	 Total Energy              =    -980.9400301739535735 [Eh]

	 ================> DF-SCS-MP2 Energies <==================
	-----------------------------------------------------------
	 SCS Same-Spin Scale       =       0.3333333333333333 [-]
	 SCS Opposite-Spin Scale   =       1.2000000000000000 [-]
	 SCS Same-Spin Energy      =      -0.1289875047709234 [Eh]
	 SCS Opposite-Spin Energy  =      -1.4117447602874080 [Eh]
	 SCS Correlation Energy    =      -1.5407322650583315 [Eh]
	 SCS Total Energy          =    -980.9173459577929179 [Eh]
	-----------------------------------------------------------

*** Psi4 exiting successfully. Buy a developer a beer!
