                               Psi4 1.9 release

  ==> Input File <==

--------------------------------------------------------------------------
MEMORY 60 GB

molecule dimer {
0 1
Gh(K)      0.000000     0.000000     0.000000
Gh(O)     -2.324873    -1.404209    -0.719175
Gh(H)     -2.508892    -2.382152    -0.757465
Gh(H)     -3.103411    -1.007604    -0.391341
Gh(O)      0.928383    -2.282472     1.098452
Gh(H)      1.810797    -2.654173     1.272065
Gh(H)      0.418300    -2.312404     1.908116
O          1.667709     2.265231     0.418502
H          1.289449     2.964199     0.969759
H          1.716548     2.696389    -0.446786

units ang
no_reorient
no_com
symmetry c1
}

set {
basis        aug-cc-pVTZ
scf_type     df
}

energy("mp2")
--------------------------------------------------------------------------

    Molecular point group: c1

    Geometry (in Angstrom), charge = 0, multiplicity = 1:

       Center              X                  Y                   Z               Mass
    ------------   -----------------  -----------------  -----------------  -----------------
      Gh(K)           0.000000000000     0.000000000000     0.000000000000    38.963706486400
      Gh(O)          -2.324873000000    -1.404209000000    -0.719175000000    15.994914619570
      Gh(H)          -2.508892000000    -2.382152000000    -0.757465000000     1.007825032230
      Gh(H)          -3.103411000000    -1.007604000000    -0.391341000000     1.007825032230
      Gh(O)           0.928383000000    -2.282472000000     1.098452000000    15.994914619570
      Gh(H)           1.810797000000    -2.654173000000     1.272065000000     1.007825032230
      Gh(H)           0.418300000000    -2.312404000000     1.908116000000     1.007825032230
         O            1.667709000000     2.265231000000     0.418502000000    15.994914619570
         H            1.289449000000     2.964199000000     0.969759000000     1.007825032230
         H            1.716548000000     2.696389000000    -0.446786000000     1.007825032230

  Charge       = 0
  Multiplicity = 1
  Basis Set: AUG-CC-PVTZ
    Blend: AUG-CC-PVTZ
  Basis Set: (AUG-CC-PVTZ AUX)
    Blend: AUG-CC-PVTZ-JKFIT + DEF2-UNIVERSAL-JKFIT

    Orbital Energies [Eh]
    ---------------------

    Doubly Occupied:

       1A    -20.570049     2A     -1.350071     3A     -0.707198
       4A     -0.587898     5A     -0.510246

  @DF-RHF Final Energy:   -76.05947930553826

   => Energetics <=

    Nuclear Repulsion Energy =              9.1022307195755037
    One-Electron Energy =                -122.8724938474307606
    Two-Electron Energy =                  37.7107838223169836
    Total Energy =                        -76.0594793055382752
 Dipole X            :        -31.1086219           30.8926172           -0.2160047
 Dipole Y            :        -44.2006861           44.9422906            0.7416045
 Dipole Z            :         -7.5209815            7.3151090           -0.2058724
 Magnitude           :                                                    0.7993865
  Basis Set: (AUG-CC-PVTZ AUX)
    Blend: AUG-CC-PVTZ-RI + DEF2-QZVPP-RI
	 Reference Energy          =     -76.0594793055382610 [Eh]
	 Singles Energy            =      -0.0000000000000000 [Eh]
	 Same-Spin Energy          =      -0.0686036443060835 [Eh]
	 Opposite-Spin Energy      =      -0.2160994805309361 [Eh]
	 Correlation Energy        =      -0.2847031248370196 [Eh]
	 Total Energy              =     -76.3441824303752838 [Eh]

	 ================> DF-SCS-MP2 Energies <==================
	-----------------------------------------------------------
	 SCS Same-Spin Scale       =       0.3333333333333333 [-]
	 SCS Opposite-Spin Scale   =       1.2000000000000000 [-]
	 SCS Same-Spin Energy      =      -0.0228678814353612 [Eh]
	 SCS Opposite-Spin Energy  =      -0.2593193766371233 [Eh]
	 SCS Correlation Energy    =      -0.2821872580724845 [Eh]
	 SCS Total Energy          =     -76.3416665636107439 [Eh]
	-----------------------------------------------------------

*** Psi4 exiting successfully. Buy a developer a beer!
