                               Psi4 1.9 release

  ==> Input File <==

--------------------------------------------------------------------------
MEMORY 60 GB

molecule dimer {
1 1
K      0.000000     0.000000     0.000000
--
0 1
O      1.420878    -0.711211     2.184934
H      1.736688    -0.202833     2.919371
H      1.868927    -1.577892     2.226855
O     -1.598928     0.560235    -2.419403
H     -1.365736    -0.118708    -3.123021
H     -1.346237     1.399038    -2.845520
O     -1.131301    -2.523257     0.183596
H     -1.987351    -3.054599     0.383189
H     -0.368094    -3.072588     0.451747
O      1.518076     2.324623    -0.594473
H      2.305331     2.111401    -0.053256
H      1.802919     2.957861    -1.298562
O     -2.049095     1.423091     0.741955
H     -2.503284     1.989797     0.085011
H     -2.823126     0.947412     1.182702
O      2.220787    -1.004945    -1.229033
H      2.829877    -1.684268    -1.114338
H      2.221823    -0.766439    -2.173954

units ang
no_reorient
no_com
symmetry c1
}

set {
basis        aug-cc-pVTZ
scf_type     df
}

energy("mp2", bsse_type="cp")
--------------------------------------------------------------------------

                               Psi4 1.9 release
    Molecular point group: c1
  Charge       = 0
  Multiplicity = 1
  Basis Set: AUG-CC-PVTZ
    Blend: AUG-CC-PVTZ
  Basis Set: (AUG-CC-PVTZ AUX)
    Blend: AUG-CC-PVTZ-JKFIT + DEF2-UNIVERSAL-JKFIT
  @DF-RHF Final Energy:  -456.32040084529888
    Total Energy =                       -456.3204008452988774
 Dipole X            :         -9.1427033           10.2330049            1.0903016
 Dipole Y            :          0.2035767           -0.9893283           -0.7857516
 Dipole Z            :         22.8036487          -23.4688262           -0.6651776
 Magnitude           :                                                    1.4995414
  Basis Set: (AUG-CC-PVTZ AUX)
    Blend: AUG-CC-PVTZ-RI + DEF2-QZVPP-RI
	 Reference Energy          =    -456.3204008452988774 [Eh]
	 Singles Energy            =      -0.0000000000000000 [Eh]
	 Same-Spin Energy          =      -0.4150133698562483 [Eh]
	 Opposite-Spin Energy      =      -1.3043453924575334 [Eh]
	 Correlation Energy        =      -1.7193587623137816 [Eh]
	 Total Energy              =    -458.0397596076126661 [Eh]
	 SCS Total Energy          =    -458.0239531061999969 [Eh]
                               Psi4 1.9 release
    Molecular point group: c1
  Multiplicity = 1
  Basis Set: AUG-CC-PVTZ
    Blend: AUG-CC-PVTZ
  Basis Set: (AUG-CC-PVTZ AUX)
    Blend: AUG-CC-PVTZ-JKFIT + DEF2-UNIVERSAL-JKFIT
  @DF-RHF Final Energy:  -599.01751720493689
    Total Energy =                       -599.0175172049368939
  Basis Set: (AUG-CC-PVTZ AUX)
	 Singles Energy            =      -0.0000000000000000 [Eh]
	 Same-Spin Energy          =      -0.0390182923482168 [Eh]
	 Opposite-Spin Energy      =      -0.0957472485503029 [Eh]
	 Correlation Energy        =      -0.1347655408985197 [Eh]
	 Total Energy              =    -599.1522827458354641 [Eh]
	 SCS Total Energy          =    -599.1454200006467090 [Eh]
                               Psi4 1.9 release
    Molecular point group: c1

    Geometry (in Bohr), charge = 1, multiplicity = 1:

       Center              X                  Y                   Z               Mass
    ------------   -----------------  -----------------  -----------------  -----------------
         K            0.000000000000     0.000000000000     0.000000000000    38.963706486400
         O            2.685070277688    -1.343994007413     4.128926862201    15.994914619570
         H            3.281864685369    -0.383298819205     5.516811648604     1.007825032230
         H            3.531760178474    -2.981783735551     4.208146071106     1.007825032230
         O           -3.021536014326     1.058690715896    -4.572009057111    15.994914619570
         H           -2.580866999678    -0.224325608901    -5.901654374053     1.007825032230
         H           -2.544019229958     2.643798659108    -5.377253484513     1.007825032230
         O           -2.137849055457    -4.768264674144     0.346946157730    15.994914619570
         H           -3.755549105155    -5.772355533097     0.724122264288     1.007825032230
         H           -0.695596848424    -5.806349816368     0.853678107997     1.007825032230
         O            2.868747877631     4.392900814940    -1.123391158979    15.994914619570
         H            4.356444218528     3.989969631018    -0.100639254537     1.007825032230
         H            3.407023136384     5.589547207173    -2.453926536927     1.007825032230
         O           -3.872228355045     2.689252241604     1.402091747414    15.994914619570
         H           -4.730521174241     3.760171375258     0.160647507651     1.007825032230
         H           -5.334934957659     1.790349207972     2.234982868031     1.007825032230
         O            4.196679212977    -1.899070821148    -2.322535769150    15.994914619570
         H            5.347692498732    -3.182805241873    -2.105793631190     1.007825032230
         H            4.198636969243    -1.448359801870    -4.108177669344     1.007825032230

  Charge       = 1
  Multiplicity = 1
  Basis Set: AUG-CC-PVTZ
    Blend: AUG-CC-PVTZ
  Basis Set: (AUG-CC-PVTZ AUX)
    Blend: AUG-CC-PVTZ-JKFIT + DEF2-UNIVERSAL-JKFIT

    Orbital Energies [Eh]
    ---------------------

    Doubly Occupied:

       1A   -133.564763     2A    -20.703310     3A    -20.703187
       4A    -20.702652     5A    -20.699119     6A    -20.695531
       7A    -20.692297     8A    -14.523001     9A    -11.552840
      10A    -11.552801    11A    -11.552729    12A     -1.787327
      13A     -1.499722    14A     -1.489377    15A     -1.466870
      16A     -1.466189    17A     -1.462734    18A     -1.460041
      19A     -0.999200    20A     -0.998109    21A     -0.997652
      22A     -0.870991    23A     -0.858503    24A     -0.836242
      25A     -0.831447    26A     -0.823698    27A     -0.814748
      28A     -0.730824    29A     -0.725148    30A     -0.713132
      31A     -0.710776    32A     -0.708461    33A     -0.704931
      34A     -0.654984    35A     -0.649949    36A     -0.638793
      37A     -0.638254    38A     -0.634674    39A     -0.631667

  @DF-RHF Final Energy: -1055.45951940179248

   => Energetics <=

    Nuclear Repulsion Energy =            451.0121223664247054
    One-Electron Energy =               -2345.4499268452359502
    Two-Electron Energy =                 838.9782850770188816
    Total Energy =                      -1055.4595194017924769
 Dipole X            :         -9.1356636           10.2330049            1.0973414
 Dipole Y            :          0.1818945           -0.9893283           -0.8074338
 Dipole Z            :         22.7334105          -23.4688262           -0.7354158
 Magnitude           :                                                    1.5482066
  Basis Set: (AUG-CC-PVTZ AUX)
    Blend: AUG-CC-PVTZ-RI + DEF2-QZVPP-RI
	 Reference Energy          =   -1055.4595194017924769 [Eh]
	 Singles Energy            =      -0.0000000000000000 [Eh]
	 Same-Spin Energy          =      -0.4575878332030787 [Eh]
	 Opposite-Spin Energy      =      -1.3985404257479546 [Eh]
	 Correlation Energy        =      -1.8561282589510333 [Eh]
	 Total Energy              =   -1057.3156476607434797 [Eh]

	 ================> DF-SCS-MP2 Energies <==================
	-----------------------------------------------------------
	 SCS Same-Spin Scale       =       0.3333333333333333 [-]
	 SCS Opposite-Spin Scale   =       1.2000000000000000 [-]
	 SCS Same-Spin Energy      =      -0.1525292777343595 [Eh]
	 SCS Opposite-Spin Energy  =      -1.6782485108975453 [Eh]
	 SCS Correlation Energy    =      -1.8307777886319050 [Eh]
	 SCS Total Energy          =   -1057.2902971904243259 [Eh]
	-----------------------------------------------------------

*** Psi4 exiting successfully. Buy a developer a beer!
