                               Psi4 1.9 release

  ==> Input File <==

--------------------------------------------------------------------------
MEMORY 60 GB

molecule dimer {
0 1
Gh(K)      0.000000     0.000000     0.000000
Gh(O)      1.649798    -2.297513     0.068375
Gh(H)      0.966347    -3.009432     0.268920
Gh(H)      2.415982    -2.455505     0.666808
Gh(O)     -1.651512     1.316542     1.618952
Gh(H)     -2.531349     1.240121     2.010840
Gh(H)     -1.216179     2.096571     2.037483
Gh(O)     -2.184128    -0.807746    -0.773576
Gh(H)     -2.827219    -1.529499    -0.681704
Gh(H)     -2.210682    -0.412574    -1.661052
O          1.487946     1.247924     2.225563
H          1.142883     1.150397     3.114392
H          2.490161     1.303890     2.274317

units ang
no_reorient
no_com
symmetry c1
}

set {
basis        aug-cc-pVTZ
scf_type     df
}

energy("mp2")
--------------------------------------------------------------------------

    Molecular point group: c1

    Geometry (in Angstrom), charge = 0, multiplicity = 1:

       Center              X                  Y                   Z               Mass
    ------------   -----------------  -----------------  -----------------  -----------------
      Gh(K)           0.000000000000     0.000000000000     0.000000000000    38.963706486400
      Gh(O)           1.649798000000    -2.297513000000     0.068375000000    15.994914619570
      Gh(H)           0.966347000000    -3.009432000000     0.268920000000     1.007825032230
      Gh(H)           2.415982000000    -2.455505000000     0.666808000000     1.007825032230
      Gh(O)          -1.651512000000     1.316542000000     1.618952000000    15.994914619570
      Gh(H)          -2.531349000000     1.240121000000     2.010840000000     1.007825032230
      Gh(H)          -1.216179000000     2.096571000000     2.037483000000     1.007825032230
      Gh(O)          -2.184128000000    -0.807746000000    -0.773576000000    15.994914619570
      Gh(H)          -2.827219000000    -1.529499000000    -0.681704000000     1.007825032230
      Gh(H)          -2.210682000000    -0.412574000000    -1.661052000000     1.007825032230
         O            1.487946000000     1.247924000000     2.225563000000    15.994914619570
         H            1.142883000000     1.150397000000     3.114392000000     1.007825032230
         H            2.490161000000     1.303890000000     2.274317000000     1.007825032230

  Charge       = 0
  Multiplicity = 1
  Basis Set: AUG-CC-PVTZ
    Blend: AUG-CC-PVTZ
  Basis Set: (AUG-CC-PVTZ AUX)
    Blend: AUG-CC-PVTZ-JKFIT + DEF2-UNIVERSAL-JKFIT

    Orbital Energies [Eh]
    ---------------------

    Doubly Occupied:

       1A    -20.569292     2A     -1.338980     3A     -0.712172
       4A     -0.572105     5A     -0.507117

  @DF-RHF Final Energy:   -76.05666796513145

   => Energetics <=

    Nuclear Repulsion Energy =              8.9612822784904349
    One-Electron Energy =                -122.6365645934178588
    Two-Electron Energy =                  37.6186143497959762
    Total Energy =                        -76.0566679651314530
 Dipole X            :        -28.9298732           29.3599416            0.4300684
 Dipole Y            :        -23.5317350           23.5038069           -0.0279281
 Dipole Z            :        -43.2030801           43.8288205            0.6257405
 Magnitude           :                                                    0.7597960
  Basis Set: (AUG-CC-PVTZ AUX)
    Blend: AUG-CC-PVTZ-RI + DEF2-QZVPP-RI
	 Reference Energy          =     -76.0566679651314530 [Eh]
	 Singles Energy            =      -0.0000000000000000 [Eh]
	 Same-Spin Energy          =      -0.0687304094902967 [Eh]
	 Opposite-Spin Energy      =      -0.2165828556050944 [Eh]
	 Correlation Energy        =      -0.2853132650953912 [Eh]
	 Total Energy              =     -76.3419812302268497 [Eh]

	 ================> DF-SCS-MP2 Energies <==================
	-----------------------------------------------------------
	 SCS Same-Spin Scale       =       0.3333333333333333 [-]
	 SCS Opposite-Spin Scale   =       1.2000000000000000 [-]
	 SCS Same-Spin Energy      =      -0.0229101364967656 [Eh]
	 SCS Opposite-Spin Energy  =      -0.2598994267261133 [Eh]
	 SCS Correlation Energy    =      -0.2828095632228789 [Eh]
	 SCS Total Energy          =     -76.3394775283543368 [Eh]
	-----------------------------------------------------------

*** Psi4 exiting successfully. Buy a developer a beer!
