                               Psi4 1.9 release

  ==> Input File <==

--------------------------------------------------------------------------
MEMORY 60 GB

molecule dimer {
0 1
Gh(K)      0.000000     0.000000     0.000000
Gh(O)     -0.783516    -1.726652    -2.324142
Gh(H)     -0.445420    -2.452607    -2.906614
Gh(H)     -1.685040    -1.971929    -2.112103
Gh(O)     -1.927039     1.937313     0.043663
Gh(H)     -2.389142     2.022854    -0.811322
Gh(H)     -2.517278     1.567321     0.684851
Gh(O)     -2.525078    -0.395205     1.459688
Gh(H)     -3.459078    -0.500987     1.132919
Gh(H)     -2.571024    -0.259444     2.424365
O          0.460553     2.520123    -1.287438
H          0.400227     3.147385    -0.553485
H         -0.048493     2.950684    -2.000751
Gh(O)      2.234484    -1.510392    -1.101739
Gh(H)      2.294983    -2.389683    -1.472288
Gh(H)      3.130234    -1.125978    -1.166978
Gh(O)      0.616844     0.643018     2.586690
Gh(H)      1.504879     1.005239     2.404662
Gh(H)      0.025962     1.431530     2.685422
Gh(O)     -0.281188    -2.832605     0.143332
Gh(H)      0.444960    -3.141684    -0.384431
Gh(H)     -1.165527    -3.190720    -0.205701

units ang
no_reorient
no_com
symmetry c1
}

set {
basis        aug-cc-pVTZ
scf_type     df
}

energy("mp2")
--------------------------------------------------------------------------

    Molecular point group: c1

    Geometry (in Angstrom), charge = 0, multiplicity = 1:

       Center              X                  Y                   Z               Mass
    ------------   -----------------  -----------------  -----------------  -----------------
      Gh(K)           0.000000000000     0.000000000000     0.000000000000    38.963706486400
      Gh(O)          -0.783516000000    -1.726652000000    -2.324142000000    15.994914619570
      Gh(H)          -0.445420000000    -2.452607000000    -2.906614000000     1.007825032230
      Gh(H)          -1.685040000000    -1.971929000000    -2.112103000000     1.007825032230
      Gh(O)          -1.927039000000     1.937313000000     0.043663000000    15.994914619570
      Gh(H)          -2.389142000000     2.022854000000    -0.811322000000     1.007825032230
      Gh(H)          -2.517278000000     1.567321000000     0.684851000000     1.007825032230
      Gh(O)          -2.525078000000    -0.395205000000     1.459688000000    15.994914619570
      Gh(H)          -3.459078000000    -0.500987000000     1.132919000000     1.007825032230
      Gh(H)          -2.571024000000    -0.259444000000     2.424365000000     1.007825032230
         O            0.460553000000     2.520123000000    -1.287438000000    15.994914619570
         H            0.400227000000     3.147385000000    -0.553485000000     1.007825032230
         H           -0.048493000000     2.950684000000    -2.000751000000     1.007825032230
      Gh(O)           2.234484000000    -1.510392000000    -1.101739000000    15.994914619570
      Gh(H)           2.294983000000    -2.389683000000    -1.472288000000     1.007825032230
      Gh(H)           3.130234000000    -1.125978000000    -1.166978000000     1.007825032230
      Gh(O)           0.616844000000     0.643018000000     2.586690000000    15.994914619570
      Gh(H)           1.504879000000     1.005239000000     2.404662000000     1.007825032230
      Gh(H)           0.025962000000     1.431530000000     2.685422000000     1.007825032230
      Gh(O)          -0.281188000000    -2.832605000000     0.143332000000    15.994914619570
      Gh(H)           0.444960000000    -3.141684000000    -0.384431000000     1.007825032230
      Gh(H)          -1.165527000000    -3.190720000000    -0.205701000000     1.007825032230

  Charge       = 0
  Multiplicity = 1
  Basis Set: AUG-CC-PVTZ
    Blend: AUG-CC-PVTZ
  Basis Set: (AUG-CC-PVTZ AUX)
    Blend: AUG-CC-PVTZ-JKFIT + DEF2-UNIVERSAL-JKFIT

    Orbital Energies [Eh]
    ---------------------

    Doubly Occupied:

       1A    -20.569983     2A     -1.346690     3A     -0.708136
       4A     -0.583736     5A     -0.509410

  @DF-RHF Final Energy:   -76.05925875615745

   => Energetics <=

    Nuclear Repulsion Energy =              9.0584061569105092
    One-Electron Energy =                -122.7994167320453585
    Two-Electron Energy =                  37.6817518189773892
    Total Energy =                        -76.0592587561574618
 Dipole X            :         -8.0008529            7.6272332           -0.3736197
 Dipole Y            :        -48.9266972           49.6224185            0.6957213
 Dipole Z            :         24.3051175          -24.2900483            0.0150692
 Magnitude           :                                                    0.7898398
  Basis Set: (AUG-CC-PVTZ AUX)
    Blend: AUG-CC-PVTZ-RI + DEF2-QZVPP-RI
	 Reference Energy          =     -76.0592587561574476 [Eh]
	 Singles Energy            =      -0.0000000000000000 [Eh]
	 Same-Spin Energy          =      -0.0686689687974697 [Eh]
	 Opposite-Spin Energy      =      -0.2165164104891831 [Eh]
	 Correlation Energy        =      -0.2851853792866528 [Eh]
	 Total Energy              =     -76.3444441354441068 [Eh]

	 ================> DF-SCS-MP2 Energies <==================
	-----------------------------------------------------------
	 SCS Same-Spin Scale       =       0.3333333333333333 [-]
	 SCS Opposite-Spin Scale   =       1.2000000000000000 [-]
	 SCS Same-Spin Energy      =      -0.0228896562658232 [Eh]
	 SCS Opposite-Spin Energy  =      -0.2598196925870197 [Eh]
	 SCS Correlation Energy    =      -0.2827093488528429 [Eh]
	 SCS Total Energy          =     -76.3419681050102952 [Eh]
	-----------------------------------------------------------

*** Psi4 exiting successfully. Buy a developer a beer!
