                               Psi4 1.9 release

  ==> Input File <==

--------------------------------------------------------------------------
MEMORY 60 GB

molecule dimer {
0 1
Gh(K)      0.000000     0.000000     0.000000
Gh(O)     -2.673776     0.948720     0.824417
Gh(H)     -3.167263     0.143970     0.942318
Gh(H)     -3.136901     1.459363     0.150868
O          0.110920     1.957449     2.167223
H          1.097248     2.052670     2.037989
H         -0.141234     1.268912     2.776564
Gh(O)      1.687577    -1.962600     0.509768
Gh(H)      1.167472    -2.750807     0.847882
Gh(H)      2.480538    -2.345650     0.073359
Gh(O)     -0.890535    -1.759466    -2.025758
Gh(H)     -0.401801    -2.629097    -1.882489
Gh(H)     -1.631369    -1.780708    -1.454003
Gh(O)     -0.772890     1.155494    -2.301149
Gh(H)     -0.888182     0.209431    -2.448873
Gh(H)     -1.511275     1.637928    -2.717803

units ang
no_reorient
no_com
symmetry c1
}

set {
basis        aug-cc-pVTZ
scf_type     df
}

energy("mp2")
--------------------------------------------------------------------------

    Molecular point group: c1

    Geometry (in Angstrom), charge = 0, multiplicity = 1:

       Center              X                  Y                   Z               Mass
    ------------   -----------------  -----------------  -----------------  -----------------
      Gh(K)           0.000000000000     0.000000000000     0.000000000000    38.963706486400
      Gh(O)          -2.673776000000     0.948720000000     0.824417000000    15.994914619570
      Gh(H)          -3.167263000000     0.143970000000     0.942318000000     1.007825032230
      Gh(H)          -3.136901000000     1.459363000000     0.150868000000     1.007825032230
         O            0.110920000000     1.957449000000     2.167223000000    15.994914619570
         H            1.097248000000     2.052670000000     2.037989000000     1.007825032230
         H           -0.141234000000     1.268912000000     2.776564000000     1.007825032230
      Gh(O)           1.687577000000    -1.962600000000     0.509768000000    15.994914619570
      Gh(H)           1.167472000000    -2.750807000000     0.847882000000     1.007825032230
      Gh(H)           2.480538000000    -2.345650000000     0.073359000000     1.007825032230
      Gh(O)          -0.890535000000    -1.759466000000    -2.025758000000    15.994914619570
      Gh(H)          -0.401801000000    -2.629097000000    -1.882489000000     1.007825032230
      Gh(H)          -1.631369000000    -1.780708000000    -1.454003000000     1.007825032230
      Gh(O)          -0.772890000000     1.155494000000    -2.301149000000    15.994914619570
      Gh(H)          -0.888182000000     0.209431000000    -2.448873000000     1.007825032230
      Gh(H)          -1.511275000000     1.637928000000    -2.717803000000     1.007825032230

  Charge       = 0
  Multiplicity = 1
  Basis Set: AUG-CC-PVTZ
    Blend: AUG-CC-PVTZ
  Basis Set: (AUG-CC-PVTZ AUX)
    Blend: AUG-CC-PVTZ-JKFIT + DEF2-UNIVERSAL-JKFIT

    Orbital Energies [Eh]
    ---------------------

    Doubly Occupied:

       1A    -20.565521     2A     -1.337814     3A     -0.724663
       4A     -0.562302     5A     -0.505690

  @DF-RHF Final Energy:   -76.05566474086272

   => Energetics <=

    Nuclear Repulsion Energy =              8.9991514406641375
    One-Electron Energy =                -122.7176475417176817
    Two-Electron Energy =                  37.6628313601908147
    Total Energy =                        -76.0556647408627384
 Dipole X            :         -2.9895224            3.4834720            0.4939496
 Dipole Y            :        -36.2740287           35.8692204           -0.4048083
 Dipole Z            :        -41.5336695           41.8618500            0.3281805
 Magnitude           :                                                    0.7180240
  Basis Set: (AUG-CC-PVTZ AUX)
    Blend: AUG-CC-PVTZ-RI + DEF2-QZVPP-RI
	 Reference Energy          =     -76.0556647408627242 [Eh]
	 Singles Energy            =      -0.0000000000000000 [Eh]
	 Same-Spin Energy          =      -0.0686210307595398 [Eh]
	 Opposite-Spin Energy      =      -0.2161557503994314 [Eh]
	 Correlation Energy        =      -0.2847767811589712 [Eh]
	 Total Energy              =     -76.3404415220216919 [Eh]

	 ================> DF-SCS-MP2 Energies <==================
	-----------------------------------------------------------
	 SCS Same-Spin Scale       =       0.3333333333333333 [-]
	 SCS Opposite-Spin Scale   =       1.2000000000000000 [-]
	 SCS Same-Spin Energy      =      -0.0228736769198466 [Eh]
	 SCS Opposite-Spin Energy  =      -0.2593869004793177 [Eh]
	 SCS Correlation Energy    =      -0.2822605773991643 [Eh]
	 SCS Total Energy          =     -76.3379253182618953 [Eh]
	-----------------------------------------------------------

*** Psi4 exiting successfully. Buy a developer a beer!
