                               Psi4 1.9 release

  ==> Input File <==

--------------------------------------------------------------------------
MEMORY 60 GB

molecule dimer {
1 1
K          0.000000     0.000000     0.000000
O          0.612876    -1.115935    -2.349051
H          0.426290    -1.552454    -3.196404
H          1.249709    -1.726035    -1.997265
O          0.226950    -1.309350     2.562510
H          0.264022    -0.641943     3.257966
H          1.068749    -1.730800     2.570162
O         -2.056105     0.919747    -1.186773
H         -2.198049     0.297455    -1.925318
H         -2.809767     1.060828    -0.585807
O         -1.976233    -2.079701    -0.110673
H         -1.733104    -3.050987    -0.116702
H         -2.703697    -1.948167    -0.750612
O          1.852186     1.592652     1.468527
H          2.464721     2.245763     1.040167
H          1.990939     1.633926     2.445297
O          2.746451    -1.160995     0.084226
H          3.055897    -0.685917    -0.671043
H          3.443294    -1.731569     0.452839

units ang
no_reorient
no_com
symmetry c1
}

set {
basis        aug-cc-pVTZ
scf_type     df
}

energy("mp2")
--------------------------------------------------------------------------

    Molecular point group: c1

    Geometry (in Angstrom), charge = 1, multiplicity = 1:

       Center              X                  Y                   Z               Mass
    ------------   -----------------  -----------------  -----------------  -----------------
         K            0.000000000000     0.000000000000     0.000000000000    38.963706486400
         O            0.612876000000    -1.115935000000    -2.349051000000    15.994914619570
         H            0.426290000000    -1.552454000000    -3.196404000000     1.007825032230
         H            1.249709000000    -1.726035000000    -1.997265000000     1.007825032230
         O            0.226950000000    -1.309350000000     2.562510000000    15.994914619570
         H            0.264022000000    -0.641943000000     3.257966000000     1.007825032230
         H            1.068749000000    -1.730800000000     2.570162000000     1.007825032230
         O           -2.056105000000     0.919747000000    -1.186773000000    15.994914619570
         H           -2.198049000000     0.297455000000    -1.925318000000     1.007825032230
         H           -2.809767000000     1.060828000000    -0.585807000000     1.007825032230
         O           -1.976233000000    -2.079701000000    -0.110673000000    15.994914619570
         H           -1.733104000000    -3.050987000000    -0.116702000000     1.007825032230
         H           -2.703697000000    -1.948167000000    -0.750612000000     1.007825032230
         O            1.852186000000     1.592652000000     1.468527000000    15.994914619570
         H            2.464721000000     2.245763000000     1.040167000000     1.007825032230
         H            1.990939000000     1.633926000000     2.445297000000     1.007825032230
         O            2.746451000000    -1.160995000000     0.084226000000    15.994914619570
         H            3.055897000000    -0.685917000000    -0.671043000000     1.007825032230
         H            3.443294000000    -1.731569000000     0.452839000000     1.007825032230

  Charge       = 1
  Multiplicity = 1
  Basis Set: AUG-CC-PVTZ
    Blend: AUG-CC-PVTZ
  Basis Set: (AUG-CC-PVTZ AUX)
    Blend: AUG-CC-PVTZ-JKFIT + DEF2-UNIVERSAL-JKFIT

    Orbital Energies [Eh]
    ---------------------

    Doubly Occupied:

       1A   -133.577761     2A    -20.710664     3A    -20.703333
       4A    -20.701586     5A    -20.700813     6A    -20.697084
       7A    -20.688356     8A    -14.535910     9A    -11.565798
      10A    -11.565719    11A    -11.565602    12A     -1.799914
      13A     -1.501381    14A     -1.489870    15A     -1.479951
      16A     -1.479687    17A     -1.468433    18A     -1.463932
      19A     -1.012717    20A     -1.009552    21A     -1.009129
      22A     -0.872528    23A     -0.868991    24A     -0.849028
      25A     -0.846449    26A     -0.839689    27A     -0.834698
      28A     -0.745204    29A     -0.720560    30A     -0.712771
      31A     -0.710509    32A     -0.704822    33A     -0.702283
      34A     -0.659723    35A     -0.654972    36A     -0.648596
      37A     -0.636939    38A     -0.635358    39A     -0.633995

  @DF-RHF Final Energy: -1055.45470379730182

   => Energetics <=

    Nuclear Repulsion Energy =            455.7820728191971398
    One-Electron Energy =               -2354.4649256007146505
    Two-Electron Energy =                 843.2281489842156361
    Total Energy =                      -1055.4547037973020451
 Dipole X            :        -28.5815246           29.7972091            1.2156846
 Dipole Y            :         61.2797063          -62.4716169           -1.1919106
 Dipole Z            :         -8.3332316            8.0755707           -0.2576608
 Magnitude           :                                                    1.7218969
  Basis Set: (AUG-CC-PVTZ AUX)
    Blend: AUG-CC-PVTZ-RI + DEF2-QZVPP-RI
	 Reference Energy          =   -1055.4547037973018178 [Eh]
	 Singles Energy            =      -0.0000000000000000 [Eh]
	 Same-Spin Energy          =      -0.4570673102392433 [Eh]
	 Opposite-Spin Energy      =      -1.3954607075312202 [Eh]
	 Correlation Energy        =      -1.8525280177704635 [Eh]
	 Total Energy              =   -1057.3072318150723277 [Eh]

	 ================> DF-SCS-MP2 Energies <==================
	-----------------------------------------------------------
	 SCS Same-Spin Scale       =       0.3333333333333333 [-]
	 SCS Opposite-Spin Scale   =       1.2000000000000000 [-]
	 SCS Same-Spin Energy      =      -0.1523557700797478 [Eh]
	 SCS Opposite-Spin Energy  =      -1.6745528490374642 [Eh]
	 SCS Correlation Energy    =      -1.8269086191172119 [Eh]
	 SCS Total Energy          =   -1057.2816124164189659 [Eh]
	-----------------------------------------------------------

*** Psi4 exiting successfully. Buy a developer a beer!
