                               Psi4 1.9 release

  ==> Input File <==

--------------------------------------------------------------------------
MEMORY 60 GB

molecule dimer {
0 1
Gh(K)      0.000000     0.000000     0.000000
Gh(O)      2.014013    -0.279703    -1.888881
Gh(H)      3.005208    -0.295363    -1.835973
Gh(H)      1.699269     0.613752    -2.030273
Gh(O)      0.082691    -2.431143     0.831079
Gh(H)     -0.605822    -3.008170     1.093025
Gh(H)      0.806277    -2.617354     1.392155
O          0.852450     2.369236    -1.112997
H          0.649638     2.424980    -2.052198
H          1.809668     2.651018    -1.046812
Gh(O)     -1.193213     1.995766     1.576577
Gh(H)     -2.103942     1.982930     1.219885
Gh(H)     -1.169090     2.215535     2.486101
Gh(O)      2.364288     0.103389     1.226266
Gh(H)      2.966756    -0.556210     0.863653
Gh(H)      2.914997     0.928049     1.020854
Gh(O)     -1.864427    -0.250800    -2.008152
Gh(H)     -1.879585     0.539119    -2.581299
Gh(H)     -2.686209    -0.323600    -1.550985
Gh(O)     -2.311800    -0.876132     1.478322
Gh(H)     -2.741898    -0.025471     1.369603
Gh(H)     -2.307840    -0.999897     2.401276

units ang
no_reorient
no_com
symmetry c1
}

set {
basis        aug-cc-pVTZ
scf_type     df
}

energy("mp2")
--------------------------------------------------------------------------

    Molecular point group: c1

    Geometry (in Angstrom), charge = 0, multiplicity = 1:

       Center              X                  Y                   Z               Mass
    ------------   -----------------  -----------------  -----------------  -----------------
      Gh(K)           0.000000000000     0.000000000000     0.000000000000    38.963706486400
      Gh(O)           2.014013000000    -0.279703000000    -1.888881000000    15.994914619570
      Gh(H)           3.005208000000    -0.295363000000    -1.835973000000     1.007825032230
      Gh(H)           1.699269000000     0.613752000000    -2.030273000000     1.007825032230
      Gh(O)           0.082691000000    -2.431143000000     0.831079000000    15.994914619570
      Gh(H)          -0.605822000000    -3.008170000000     1.093025000000     1.007825032230
      Gh(H)           0.806277000000    -2.617354000000     1.392155000000     1.007825032230
         O            0.852450000000     2.369236000000    -1.112997000000    15.994914619570
         H            0.649638000000     2.424980000000    -2.052198000000     1.007825032230
         H            1.809668000000     2.651018000000    -1.046812000000     1.007825032230
      Gh(O)          -1.193213000000     1.995766000000     1.576577000000    15.994914619570
      Gh(H)          -2.103942000000     1.982930000000     1.219885000000     1.007825032230
      Gh(H)          -1.169090000000     2.215535000000     2.486101000000     1.007825032230
      Gh(O)           2.364288000000     0.103389000000     1.226266000000    15.994914619570
      Gh(H)           2.966756000000    -0.556210000000     0.863653000000     1.007825032230
      Gh(H)           2.914997000000     0.928049000000     1.020854000000     1.007825032230
      Gh(O)          -1.864427000000    -0.250800000000    -2.008152000000    15.994914619570
      Gh(H)          -1.879585000000     0.539119000000    -2.581299000000     1.007825032230
      Gh(H)          -2.686209000000    -0.323600000000    -1.550985000000     1.007825032230
      Gh(O)          -2.311800000000    -0.876132000000     1.478322000000    15.994914619570
      Gh(H)          -2.741898000000    -0.025471000000     1.369603000000     1.007825032230
      Gh(H)          -2.307840000000    -0.999897000000     2.401276000000     1.007825032230

  Charge       = 0
  Multiplicity = 1
  Basis Set: AUG-CC-PVTZ
    Blend: AUG-CC-PVTZ
  Basis Set: (AUG-CC-PVTZ AUX)
    Blend: AUG-CC-PVTZ-JKFIT + DEF2-UNIVERSAL-JKFIT

    Orbital Energies [Eh]
    ---------------------

    Doubly Occupied:

       1A    -20.571098     2A     -1.341756     3A     -0.704813
       4A     -0.580166     5A     -0.508436

  @DF-RHF Final Energy:   -76.05750006246325

   => Energetics <=

    Nuclear Repulsion Energy =              8.9728784266133914
    One-Electron Energy =                -122.6482138762226271
    Two-Electron Energy =                  37.6178353871459947
    Total Energy =                        -76.0575000624632480
 Dipole X            :        -17.0452749           17.5345911            0.4893161
 Dipole Y            :        -45.1896027           45.4099034            0.2203006
 Dipole Z            :         22.1061953          -22.6823562           -0.5761609
 Magnitude           :                                                    0.7873526
  Basis Set: (AUG-CC-PVTZ AUX)
    Blend: AUG-CC-PVTZ-RI + DEF2-QZVPP-RI
	 Reference Energy          =     -76.0575000624632480 [Eh]
	 Singles Energy            =      -0.0000000000000000 [Eh]
	 Same-Spin Energy          =      -0.0688521119340510 [Eh]
	 Opposite-Spin Energy      =      -0.2173498838560050 [Eh]
	 Correlation Energy        =      -0.2862019957900560 [Eh]
	 Total Energy              =     -76.3437020582532995 [Eh]

	 ================> DF-SCS-MP2 Energies <==================
	-----------------------------------------------------------
	 SCS Same-Spin Scale       =       0.3333333333333333 [-]
	 SCS Opposite-Spin Scale   =       1.2000000000000000 [-]
	 SCS Same-Spin Energy      =      -0.0229507039780170 [Eh]
	 SCS Opposite-Spin Energy  =      -0.2608198606272060 [Eh]
	 SCS Correlation Energy    =      -0.2837705646052230 [Eh]
	 SCS Total Energy          =     -76.3412706270684680 [Eh]
	-----------------------------------------------------------

*** Psi4 exiting successfully. Buy a developer a beer!
