                               Psi4 1.9 release

  ==> Input File <==

--------------------------------------------------------------------------
MEMORY 60 GB

molecule dimer {
1 1
K          0.000000     0.000000     0.000000
O         -1.065191    -0.359975    -2.461163
H         -1.794196    -0.828061    -2.830220
H         -1.027565     0.480586    -2.947244
O          2.344028     1.678726    -0.213882
H          3.157394     1.389741    -0.585666
H          2.557494     1.811841     0.674913
O         -1.246221     2.415696    -0.621119
H         -2.238963     2.335390    -0.711467
H         -0.854818     2.401486    -1.478482
O         -1.890709     0.266806     2.144480
H         -1.944298     1.042797     2.694641
H         -2.715672     0.216960     1.683755

units ang
no_reorient
no_com
symmetry c1
}

set {
basis        aug-cc-pVTZ
scf_type     df
}

energy("mp2")
--------------------------------------------------------------------------

    Molecular point group: c1

    Geometry (in Angstrom), charge = 1, multiplicity = 1:

       Center              X                  Y                   Z               Mass
    ------------   -----------------  -----------------  -----------------  -----------------
         K            0.000000000000     0.000000000000     0.000000000000    38.963706486400
         O           -1.065191000000    -0.359975000000    -2.461163000000    15.994914619570
         H           -1.794196000000    -0.828061000000    -2.830220000000     1.007825032230
         H           -1.027565000000     0.480586000000    -2.947244000000     1.007825032230
         O            2.344028000000     1.678726000000    -0.213882000000    15.994914619570
         H            3.157394000000     1.389741000000    -0.585666000000     1.007825032230
         H            2.557494000000     1.811841000000     0.674913000000     1.007825032230
         O           -1.246221000000     2.415696000000    -0.621119000000    15.994914619570
         H           -2.238963000000     2.335390000000    -0.711467000000     1.007825032230
         H           -0.854818000000     2.401486000000    -1.478482000000     1.007825032230
         O           -1.890709000000     0.266806000000     2.144480000000    15.994914619570
         H           -1.944298000000     1.042797000000     2.694641000000     1.007825032230
         H           -2.715672000000     0.216960000000     1.683755000000     1.007825032230

  Charge       = 1
  Multiplicity = 1
  Basis Set: AUG-CC-PVTZ
    Blend: AUG-CC-PVTZ
  Basis Set: (AUG-CC-PVTZ AUX)
    Blend: AUG-CC-PVTZ-JKFIT + DEF2-UNIVERSAL-JKFIT

    Orbital Energies [Eh]
    ---------------------

    Doubly Occupied:

       1A   -133.637227     2A    -20.732530     3A    -20.721753
       4A    -20.712399     5A    -20.712199     6A    -14.594382
       7A    -11.624310     8A    -11.624272     9A    -11.624231
      10A     -1.855055    11A     -1.522820    12A     -1.518922
      13A     -1.505922    14A     -1.501653    15A     -1.064914
      16A     -1.063751    17A     -1.062887    18A     -0.889143
      19A     -0.878287    20A     -0.874311    21A     -0.872962
      22A     -0.760114    23A     -0.748679    24A     -0.737853
      25A     -0.731807    26A     -0.683746    27A     -0.666697
      28A     -0.665742    29A     -0.659805

  @DF-RHF Final Energy:  -903.32327811209905

   => Energetics <=

    Nuclear Repulsion Energy =            252.6127574843201842
    One-Electron Energy =               -1739.3753222914419894
    Two-Electron Energy =                 583.4392866950228154
    Total Energy =                       -903.3232781120990467
 Dipole X            :         36.3671551          -37.2755432           -0.9083882
 Dipole Y            :        -76.3469269           77.2156532            0.8687263
 Dipole Z            :         23.1243134          -24.0245455           -0.9002322
 Magnitude           :                                                    1.5460506
  Basis Set: (AUG-CC-PVTZ AUX)
    Blend: AUG-CC-PVTZ-RI + DEF2-QZVPP-RI
	 Reference Energy          =    -903.3232781120990467 [Eh]
	 Singles Energy            =      -0.0000000000000000 [Eh]
	 Same-Spin Energy          =      -0.3110100557787444 [Eh]
	 Opposite-Spin Energy      =      -0.9449574963799139 [Eh]
	 Correlation Energy        =      -1.2559675521586584 [Eh]
	 Total Energy              =    -904.5792456642576553 [Eh]

	 ================> DF-SCS-MP2 Energies <==================
	-----------------------------------------------------------
	 SCS Same-Spin Scale       =       0.3333333333333333 [-]
	 SCS Opposite-Spin Scale   =       1.2000000000000000 [-]
	 SCS Same-Spin Energy      =      -0.1036700185929148 [Eh]
	 SCS Opposite-Spin Energy  =      -1.1339489956558966 [Eh]
	 SCS Correlation Energy    =      -1.2376190142488115 [Eh]
	 SCS Total Energy          =    -904.5608971263478679 [Eh]
	-----------------------------------------------------------

*** Psi4 exiting successfully. Buy a developer a beer!
