                               Psi4 1.9 release

  ==> Input File <==

--------------------------------------------------------------------------
MEMORY 60 GB

molecule dimer {
1 1
K          0.000000     0.000000     0.000000
O          0.577144     2.541320     0.000600
H          1.213804     2.744613     0.747683
H         -0.094201     3.104652     0.284161
O         -2.116734    -0.221233    -1.605170
H         -2.311595     0.706106    -1.826664
H         -1.611838    -0.483958    -2.409399
O         -0.049892    -1.890371     2.061110
H          0.247910    -2.821836     2.137168
H         -0.958496    -1.910780     2.339261
O          1.916245     0.015119    -1.956164
H          2.821662     0.235522    -1.746799
H          1.929350    -0.944808    -2.052363

units ang
no_reorient
no_com
symmetry c1
}

set {
basis        aug-cc-pVTZ
scf_type     df
}

energy("mp2")
--------------------------------------------------------------------------

    Molecular point group: c1

    Geometry (in Angstrom), charge = 1, multiplicity = 1:

       Center              X                  Y                   Z               Mass
    ------------   -----------------  -----------------  -----------------  -----------------
         K            0.000000000000     0.000000000000     0.000000000000    38.963706486400
         O            0.577144000000     2.541320000000     0.000600000000    15.994914619570
         H            1.213804000000     2.744613000000     0.747683000000     1.007825032230
         H           -0.094201000000     3.104652000000     0.284161000000     1.007825032230
         O           -2.116734000000    -0.221233000000    -1.605170000000    15.994914619570
         H           -2.311595000000     0.706106000000    -1.826664000000     1.007825032230
         H           -1.611838000000    -0.483958000000    -2.409399000000     1.007825032230
         O           -0.049892000000    -1.890371000000     2.061110000000    15.994914619570
         H            0.247910000000    -2.821836000000     2.137168000000     1.007825032230
         H           -0.958496000000    -1.910780000000     2.339261000000     1.007825032230
         O            1.916245000000     0.015119000000    -1.956164000000    15.994914619570
         H            2.821662000000     0.235522000000    -1.746799000000     1.007825032230
         H            1.929350000000    -0.944808000000    -2.052363000000     1.007825032230

  Charge       = 1
  Multiplicity = 1
  Basis Set: AUG-CC-PVTZ
    Blend: AUG-CC-PVTZ
  Basis Set: (AUG-CC-PVTZ AUX)
    Blend: AUG-CC-PVTZ-JKFIT + DEF2-UNIVERSAL-JKFIT

    Orbital Energies [Eh]
    ---------------------

    Doubly Occupied:

       1A   -133.624775     2A    -20.729367     3A    -20.727559
       4A    -20.722033     5A    -20.720625     6A    -14.582836
       7A    -11.612733     8A    -11.612634     9A    -11.612513
      10A     -1.846441    11A     -1.522350    12A     -1.510068
      13A     -1.505165    14A     -1.504332    15A     -1.058147
      16A     -1.056092    17A     -1.054587    18A     -0.870951
      19A     -0.866461    20A     -0.861063    21A     -0.854055
      22A     -0.766923    23A     -0.750207    24A     -0.745824
      25A     -0.744296    26A     -0.678161    27A     -0.671418
      28A     -0.669646    29A     -0.666116

  @DF-RHF Final Energy:  -903.31575415686007

   => Energetics <=

    Nuclear Repulsion Energy =            253.4338037453812262
    One-Electron Energy =               -1741.2043574005213031
    Two-Electron Energy =                 584.4547994982799537
    Total Energy =                       -903.3157541568600664
 Dipole X            :         -6.8531074            7.2767684            0.4236610
 Dipole Y            :         -7.9996469            7.9145340           -0.0851130
 Dipole Z            :         27.6243807          -27.4462764            0.1781042
 Magnitude           :                                                    0.4673906
  Basis Set: (AUG-CC-PVTZ AUX)
    Blend: AUG-CC-PVTZ-RI + DEF2-QZVPP-RI
	 Reference Energy          =    -903.3157541568600664 [Eh]
	 Singles Energy            =      -0.0000000000000000 [Eh]
	 Same-Spin Energy          =      -0.3139374785478191 [Eh]
	 Opposite-Spin Energy      =      -0.9519939996077105 [Eh]
	 Correlation Energy        =      -1.2659314781555295 [Eh]
	 Total Energy              =    -904.5816856350155604 [Eh]

	 ================> DF-SCS-MP2 Energies <==================
	-----------------------------------------------------------
	 SCS Same-Spin Scale       =       0.3333333333333333 [-]
	 SCS Opposite-Spin Scale   =       1.2000000000000000 [-]
	 SCS Same-Spin Energy      =      -0.1046458261826064 [Eh]
	 SCS Opposite-Spin Energy  =      -1.1423927995292524 [Eh]
	 SCS Correlation Energy    =      -1.2470386257118589 [Eh]
	 SCS Total Energy          =    -904.5627927825719325 [Eh]
	-----------------------------------------------------------

*** Psi4 exiting successfully. Buy a developer a beer!
