                               Psi4 1.9 release

  ==> Input File <==

--------------------------------------------------------------------------
MEMORY 60 GB

molecule dimer {
1 1
K          0.000000     0.000000     0.000000
O         -0.173319    -2.840391     0.867645
H          0.361358    -3.018681     0.103750
H          0.418315    -2.846524     1.610566
O          2.897650    -0.409254     0.514190
H          3.425469    -0.973584     1.091300
H          3.301664     0.485390     0.727381
O          0.932781     1.909151    -1.488458
H          0.748588     2.219972    -2.358054
H          1.394457     2.688798    -1.067496
O          0.561714     0.650297     2.488368
H          1.438825     0.343526     2.322741
H         -0.011650    -0.078291     2.840390
O         -1.989521     1.668299     0.915195
H         -1.899444     2.314467     1.611632
H         -2.406715     2.104578     0.181580
O         -0.629671    -1.110605    -2.391014
H         -0.994888    -2.016476    -2.229954
H          0.034334    -1.219319    -3.116133

units ang
no_reorient
no_com
symmetry c1
}

set {
basis        aug-cc-pVTZ
scf_type     df
}

energy("mp2")
--------------------------------------------------------------------------

    Molecular point group: c1

    Geometry (in Angstrom), charge = 1, multiplicity = 1:

       Center              X                  Y                   Z               Mass
    ------------   -----------------  -----------------  -----------------  -----------------
         K            0.000000000000     0.000000000000     0.000000000000    38.963706486400
         O           -0.173319000000    -2.840391000000     0.867645000000    15.994914619570
         H            0.361358000000    -3.018681000000     0.103750000000     1.007825032230
         H            0.418315000000    -2.846524000000     1.610566000000     1.007825032230
         O            2.897650000000    -0.409254000000     0.514190000000    15.994914619570
         H            3.425469000000    -0.973584000000     1.091300000000     1.007825032230
         H            3.301664000000     0.485390000000     0.727381000000     1.007825032230
         O            0.932781000000     1.909151000000    -1.488458000000    15.994914619570
         H            0.748588000000     2.219972000000    -2.358054000000     1.007825032230
         H            1.394457000000     2.688798000000    -1.067496000000     1.007825032230
         O            0.561714000000     0.650297000000     2.488368000000    15.994914619570
         H            1.438825000000     0.343526000000     2.322741000000     1.007825032230
         H           -0.011650000000    -0.078291000000     2.840390000000     1.007825032230
         O           -1.989521000000     1.668299000000     0.915195000000    15.994914619570
         H           -1.899444000000     2.314467000000     1.611632000000     1.007825032230
         H           -2.406715000000     2.104578000000     0.181580000000     1.007825032230
         O           -0.629671000000    -1.110605000000    -2.391014000000    15.994914619570
         H           -0.994888000000    -2.016476000000    -2.229954000000     1.007825032230
         H            0.034334000000    -1.219319000000    -3.116133000000     1.007825032230

  Charge       = 1
  Multiplicity = 1
  Basis Set: AUG-CC-PVTZ
    Blend: AUG-CC-PVTZ
  Basis Set: (AUG-CC-PVTZ AUX)
    Blend: AUG-CC-PVTZ-JKFIT + DEF2-UNIVERSAL-JKFIT

    Orbital Energies [Eh]
    ---------------------

    Doubly Occupied:

       1A   -133.583514     2A    -20.729663     3A    -20.714479
       4A    -20.712983     5A    -20.707418     6A    -20.705738
       7A    -20.691088     8A    -14.541979     9A    -11.571784
      10A    -11.571747    11A    -11.571672    12A     -1.807150
      13A     -1.502435    14A     -1.500564    15A     -1.497924
      16A     -1.490666    17A     -1.483191    18A     -1.481516
      19A     -1.018882    20A     -1.018615    21A     -1.016650
      22A     -0.870234    23A     -0.868337    24A     -0.856159
      25A     -0.852911    26A     -0.851215    27A     -0.844603
      28A     -0.751006    29A     -0.741349    30A     -0.726908
      31A     -0.725845    32A     -0.719262    33A     -0.713295
      34A     -0.670429    35A     -0.660561    36A     -0.658038
      37A     -0.653688    38A     -0.650552    39A     -0.639716

  @DF-RHF Final Energy: -1055.45349983277265

   => Energetics <=

    Nuclear Repulsion Energy =            456.3689026123484496
    One-Electron Energy =               -2354.8972622233559377
    Two-Electron Energy =                 843.0748597782350089
    Total Energy =                      -1055.4534998327726498
 Dipole X            :        -33.3180863           35.1628616            1.8447752
 Dipole Y            :          2.2572523           -1.9958683            0.2613841
 Dipole Z            :        -17.1044213           16.9416045           -0.1628168
 Magnitude           :                                                    1.8703012
  Basis Set: (AUG-CC-PVTZ AUX)
    Blend: AUG-CC-PVTZ-RI + DEF2-QZVPP-RI
	 Reference Energy          =   -1055.4534998327726498 [Eh]
	 Singles Energy            =      -0.0000000000000000 [Eh]
	 Same-Spin Energy          =      -0.4576801772840796 [Eh]
	 Opposite-Spin Energy      =      -1.3971285626141319 [Eh]
	 Correlation Energy        =      -1.8548087398982114 [Eh]
	 Total Energy              =   -1057.3083085726709669 [Eh]

	 ================> DF-SCS-MP2 Energies <==================
	-----------------------------------------------------------
	 SCS Same-Spin Scale       =       0.3333333333333333 [-]
	 SCS Opposite-Spin Scale   =       1.2000000000000000 [-]
	 SCS Same-Spin Energy      =      -0.1525600590946932 [Eh]
	 SCS Opposite-Spin Energy  =      -1.6765542751369582 [Eh]
	 SCS Correlation Energy    =      -1.8291143342316514 [Eh]
	 SCS Total Energy          =   -1057.2826141670043398 [Eh]
	-----------------------------------------------------------

*** Psi4 exiting successfully. Buy a developer a beer!
