                               Psi4 1.9 release

  ==> Input File <==

--------------------------------------------------------------------------
MEMORY 60 GB

molecule dimer {
0 1
Gh(K)      0.000000     0.000000     0.000000
Gh(O)     -1.265699    -2.742015    -0.100037
Gh(H)     -2.179241    -2.698658     0.327361
Gh(H)     -1.419350    -2.792292    -1.054146
O          1.272599    -1.329958     1.835236
H          1.045544    -2.218621     1.644981
H          1.990525    -1.335279     2.504667
Gh(O)     -2.112318     0.381367     2.020921
Gh(H)     -3.046245     0.751485     2.160738
Gh(H)     -1.624816     1.165296     2.260813
Gh(O)      0.975616     1.537608    -2.344587
Gh(H)      1.718704     1.125633    -2.807348
Gh(H)      1.478579     2.238025    -1.771565
Gh(O)     -2.703279     0.101022    -1.389176
Gh(H)     -3.313767     0.118266    -0.654596
Gh(H)     -2.877541     0.906785    -1.885854
Gh(O)      1.701775    -1.458525    -1.511955
Gh(H)      1.521016    -2.311011    -1.145006
Gh(H)      1.247312    -1.424578    -2.334159

units ang
no_reorient
no_com
symmetry c1
}

set {
basis        aug-cc-pVTZ
scf_type     df
}

energy("mp2")
--------------------------------------------------------------------------

    Molecular point group: c1

    Geometry (in Angstrom), charge = 0, multiplicity = 1:

       Center              X                  Y                   Z               Mass
    ------------   -----------------  -----------------  -----------------  -----------------
      Gh(K)           0.000000000000     0.000000000000     0.000000000000    38.963706486400
      Gh(O)          -1.265699000000    -2.742015000000    -0.100037000000    15.994914619570
      Gh(H)          -2.179241000000    -2.698658000000     0.327361000000     1.007825032230
      Gh(H)          -1.419350000000    -2.792292000000    -1.054146000000     1.007825032230
         O            1.272599000000    -1.329958000000     1.835236000000    15.994914619570
         H            1.045544000000    -2.218621000000     1.644981000000     1.007825032230
         H            1.990525000000    -1.335279000000     2.504667000000     1.007825032230
      Gh(O)          -2.112318000000     0.381367000000     2.020921000000    15.994914619570
      Gh(H)          -3.046245000000     0.751485000000     2.160738000000     1.007825032230
      Gh(H)          -1.624816000000     1.165296000000     2.260813000000     1.007825032230
      Gh(O)           0.975616000000     1.537608000000    -2.344587000000    15.994914619570
      Gh(H)           1.718704000000     1.125633000000    -2.807348000000     1.007825032230
      Gh(H)           1.478579000000     2.238025000000    -1.771565000000     1.007825032230
      Gh(O)          -2.703279000000     0.101022000000    -1.389176000000    15.994914619570
      Gh(H)          -3.313767000000     0.118266000000    -0.654596000000     1.007825032230
      Gh(H)          -2.877541000000     0.906785000000    -1.885854000000     1.007825032230
      Gh(O)           1.701775000000    -1.458525000000    -1.511955000000    15.994914619570
      Gh(H)           1.521016000000    -2.311011000000    -1.145006000000     1.007825032230
      Gh(H)           1.247312000000    -1.424578000000    -2.334159000000     1.007825032230

  Charge       = 0
  Multiplicity = 1
  Basis Set: AUG-CC-PVTZ
    Blend: AUG-CC-PVTZ
  Basis Set: (AUG-CC-PVTZ AUX)
    Blend: AUG-CC-PVTZ-JKFIT + DEF2-UNIVERSAL-JKFIT

    Orbital Energies [Eh]
    ---------------------

    Doubly Occupied:

       1A    -20.565703     2A     -1.350486     3A     -0.723626
       4A     -0.577386     5A     -0.509134

  @DF-RHF Final Energy:   -76.05942469683264

   => Energetics <=

    Nuclear Repulsion Energy =              9.1727109444512287
    One-Electron Energy =                -123.0115963366680916
    Two-Electron Energy =                  37.7794606953842305
    Total Energy =                        -76.0594246968326360
 Dipole X            :        -24.6507174           24.9762475            0.3255302
 Dipole Y            :         26.2174536          -26.8219487           -0.6044951
 Dipole Z            :        -35.2681966           35.5864456            0.3182490
 Magnitude           :                                                    0.7567474
  Basis Set: (AUG-CC-PVTZ AUX)
    Blend: AUG-CC-PVTZ-RI + DEF2-QZVPP-RI
	 Reference Energy          =     -76.0594246968326360 [Eh]
	 Singles Energy            =      -0.0000000000000000 [Eh]
	 Same-Spin Energy          =      -0.0683612653524169 [Eh]
	 Opposite-Spin Energy      =      -0.2155622518467314 [Eh]
	 Correlation Energy        =      -0.2839235171991483 [Eh]
	 Total Energy              =     -76.3433482140317778 [Eh]

	 ================> DF-SCS-MP2 Energies <==================
	-----------------------------------------------------------
	 SCS Same-Spin Scale       =       0.3333333333333333 [-]
	 SCS Opposite-Spin Scale   =       1.2000000000000000 [-]
	 SCS Same-Spin Energy      =      -0.0227870884508056 [Eh]
	 SCS Opposite-Spin Energy  =      -0.2586747022160777 [Eh]
	 SCS Correlation Energy    =      -0.2814617906668834 [Eh]
	 SCS Total Energy          =     -76.3408864874995174 [Eh]
	-----------------------------------------------------------

*** Psi4 exiting successfully. Buy a developer a beer!
