                               Psi4 1.9 release

  ==> Input File <==

--------------------------------------------------------------------------
MEMORY 60 GB

molecule dimer {
0 1
Gh(K)      0.000000     0.000000     0.000000
Gh(O)     -1.578613    -2.113716     0.218354
Gh(H)     -0.981947    -2.793452    -0.097712
Gh(H)     -2.324957    -2.073157    -0.378677
Gh(O)      1.295700    -2.515411    -0.325869
Gh(H)      0.949642    -3.369730    -0.036852
Gh(H)      2.279970    -2.442741    -0.095265
O          2.568601     0.147719    -0.427268
H          2.727281    -0.077392    -1.363704
H          3.370881     0.599596    -0.084938
Gh(O)     -0.362166     2.669565     0.838638
Gh(H)     -1.033657     3.293462     0.421097
Gh(H)      0.445519     2.915189     0.370285

units ang
no_reorient
no_com
symmetry c1
}

set {
basis        aug-cc-pVTZ
scf_type     df
}

energy("mp2")
--------------------------------------------------------------------------

    Molecular point group: c1

    Geometry (in Angstrom), charge = 0, multiplicity = 1:

       Center              X                  Y                   Z               Mass
    ------------   -----------------  -----------------  -----------------  -----------------
      Gh(K)           0.000000000000     0.000000000000     0.000000000000    38.963706486400
      Gh(O)          -1.578613000000    -2.113716000000     0.218354000000    15.994914619570
      Gh(H)          -0.981947000000    -2.793452000000    -0.097712000000     1.007825032230
      Gh(H)          -2.324957000000    -2.073157000000    -0.378677000000     1.007825032230
      Gh(O)           1.295700000000    -2.515411000000    -0.325869000000    15.994914619570
      Gh(H)           0.949642000000    -3.369730000000    -0.036852000000     1.007825032230
      Gh(H)           2.279970000000    -2.442741000000    -0.095265000000     1.007825032230
         O            2.568601000000     0.147719000000    -0.427268000000    15.994914619570
         H            2.727281000000    -0.077392000000    -1.363704000000     1.007825032230
         H            3.370881000000     0.599596000000    -0.084938000000     1.007825032230
      Gh(O)          -0.362166000000     2.669565000000     0.838638000000    15.994914619570
      Gh(H)          -1.033657000000     3.293462000000     0.421097000000     1.007825032230
      Gh(H)           0.445519000000     2.915189000000     0.370285000000     1.007825032230

  Charge       = 0
  Multiplicity = 1
  Basis Set: AUG-CC-PVTZ
    Blend: AUG-CC-PVTZ
  Basis Set: (AUG-CC-PVTZ AUX)
    Blend: AUG-CC-PVTZ-JKFIT + DEF2-UNIVERSAL-JKFIT

    Orbital Energies [Eh]
    ---------------------

    Doubly Occupied:

       1A    -20.569294     2A     -1.340141     3A     -0.712041
       4A     -0.574101     5A     -0.507508

  @DF-RHF Final Energy:   -76.05811515631491

   => Energetics <=

    Nuclear Repulsion Energy =              8.9806714868545825
    One-Electron Energy =                -122.6714009773205873
    Two-Electron Energy =                  37.6326143341510928
    Total Energy =                        -76.0581151563148978
 Dipole X            :        -49.7189367           50.3554754            0.6365386
 Dipole Y            :         -3.0701033            3.2200102            0.1499069
 Dipole Z            :          8.8023761           -9.1968927           -0.3945165
 Magnitude           :                                                    0.7637387
  Basis Set: (AUG-CC-PVTZ AUX)
    Blend: AUG-CC-PVTZ-RI + DEF2-QZVPP-RI
	 Reference Energy          =     -76.0581151563149120 [Eh]
	 Singles Energy            =      -0.0000000000000000 [Eh]
	 Same-Spin Energy          =      -0.0687175306117812 [Eh]
	 Opposite-Spin Energy      =      -0.2165797893433652 [Eh]
	 Correlation Energy        =      -0.2852973199551463 [Eh]
	 Total Energy              =     -76.3434124762700606 [Eh]

	 ================> DF-SCS-MP2 Energies <==================
	-----------------------------------------------------------
	 SCS Same-Spin Scale       =       0.3333333333333333 [-]
	 SCS Opposite-Spin Scale   =       1.2000000000000000 [-]
	 SCS Same-Spin Energy      =      -0.0229058435372604 [Eh]
	 SCS Opposite-Spin Energy  =      -0.2598957472120382 [Eh]
	 SCS Correlation Energy    =      -0.2828015907492986 [Eh]
	 SCS Total Energy          =     -76.3409167470642132 [Eh]
	-----------------------------------------------------------

*** Psi4 exiting successfully. Buy a developer a beer!
