                               Psi4 1.9 release

  ==> Input File <==

--------------------------------------------------------------------------
MEMORY 60 GB

molecule dimer {
1 1
K      0.000000     0.000000     0.000000
--
0 1
O      0.934950     1.557658     1.866682
H      1.223641     2.403238     1.526633
H      1.560546     1.275463     2.571452
O     -0.413699    -2.204341    -1.603818
H     -1.436891    -2.151326    -1.552654
H     -0.309238    -2.351733    -2.534913
O      2.387388    -0.706598     0.434979
H      3.112159    -1.260928     0.324550
H      2.611801    -0.158530     1.180506
O     -2.888982    -0.504542     0.112087
H     -3.193254    -0.834635     0.984426
H     -3.583834     0.130394    -0.063180
O      2.029999     0.579035    -1.935349
H      2.782212     0.571319    -1.253322
H      2.354613     1.285694    -2.436344
O     -0.653789    -1.945918     2.055554
H     -0.923902    -1.843674     2.940345
H     -1.151574    -2.735000     1.778164

units ang
no_reorient
no_com
symmetry c1
}

set {
basis        aug-cc-pVTZ
scf_type     df
}

energy("mp2", bsse_type="cp")
--------------------------------------------------------------------------

                               Psi4 1.9 release
    Molecular point group: c1
  Charge       = 0
  Multiplicity = 1
  Basis Set: AUG-CC-PVTZ
    Blend: AUG-CC-PVTZ
  Basis Set: (AUG-CC-PVTZ AUX)
    Blend: AUG-CC-PVTZ-JKFIT + DEF2-UNIVERSAL-JKFIT
  @DF-RHF Final Energy:  -456.32298416592511
    Total Energy =                       -456.3229841659251065
 Dipole X            :        -26.7695300           26.8590837            0.0895537
 Dipole Y            :         59.9966093          -59.4647036            0.5319057
 Dipole Z            :        -19.4998822           20.6107572            1.1108750
 Magnitude           :                                                    1.2349035
  Basis Set: (AUG-CC-PVTZ AUX)
    Blend: AUG-CC-PVTZ-RI + DEF2-QZVPP-RI
	 Reference Energy          =    -456.3229841659251065 [Eh]
	 Singles Energy            =      -0.0000000000000000 [Eh]
	 Same-Spin Energy          =      -0.4163167924735990 [Eh]
	 Opposite-Spin Energy      =      -1.3037677385616786 [Eh]
	 Correlation Energy        =      -1.7200845310352777 [Eh]
	 Total Energy              =    -458.0430686969604039 [Eh]
	 SCS Total Energy          =    -458.0262777163570149 [Eh]
                               Psi4 1.9 release
    Molecular point group: c1
  Multiplicity = 1
  Basis Set: AUG-CC-PVTZ
    Blend: AUG-CC-PVTZ
  Basis Set: (AUG-CC-PVTZ AUX)
    Blend: AUG-CC-PVTZ-JKFIT + DEF2-UNIVERSAL-JKFIT
  @DF-RHF Final Energy:  -599.01751682443626
    Total Energy =                       -599.0175168244362567
  Basis Set: (AUG-CC-PVTZ AUX)
	 Singles Energy            =      -0.0000000000000000 [Eh]
	 Same-Spin Energy          =      -0.0386894111481773 [Eh]
	 Opposite-Spin Energy      =      -0.0949884197907426 [Eh]
	 Correlation Energy        =      -0.1336778309389200 [Eh]
	 Total Energy              =    -599.1511946553752068 [Eh]
	 SCS Total Energy          =    -599.1443993985678844 [Eh]
                               Psi4 1.9 release
    Molecular point group: c1

    Geometry (in Bohr), charge = 1, multiplicity = 1:

       Center              X                  Y                   Z               Mass
    ------------   -----------------  -----------------  -----------------  -----------------
         K            0.000000000000     0.000000000000     0.000000000000    38.963706486400
         O            1.766799440997     2.943547017128     3.527517743322    15.994914619570
         H            2.312346365881     4.541461634293     2.884918264086     1.007825032230
         H            2.949004546179     2.410275753155     4.859340024761     1.007825032230
         O           -0.781777808376    -4.165600777118    -3.030776775080    15.994914619570
         H           -2.715330462135    -4.065416946577    -2.934090827597     1.007825032230
         H           -0.584375127584    -4.444131290201    -4.790291321863     1.007825032230
         O            4.511509475205    -1.335276700796     0.821991180326    15.994914619570
         H            5.881128168879    -2.382808583921     0.613310614017     1.007825032230
         H            4.935588584197    -0.299578282669     2.230833029460     1.007825032230
         O           -5.459384761377    -0.953446198791     0.211813732224    15.994914619570
         H           -6.034375509023    -1.577231564721     1.860295530780     1.007825032230
         H           -6.772464739104     0.246408948403    -0.119392896606     1.007825032230
         O            3.836142144953     1.094217567054    -3.657279567179    15.994914619570
         H            5.257618702962     1.079636440270    -2.368435327011     1.007825032230
         H            4.449573701443     2.429609541144    -4.604022907402     1.007825032230
         O           -1.235482153837    -3.677252082599     3.884434096089    15.994914619570
         H           -1.745921746763    -3.484038924627     5.556446764359     1.007825032230
         H           -2.176159473198    -5.168400953127     3.360242966149     1.007825032230

  Charge       = 1
  Multiplicity = 1
  Basis Set: AUG-CC-PVTZ
    Blend: AUG-CC-PVTZ
  Basis Set: (AUG-CC-PVTZ AUX)
    Blend: AUG-CC-PVTZ-JKFIT + DEF2-UNIVERSAL-JKFIT

    Orbital Energies [Eh]
    ---------------------

    Doubly Occupied:

       1A   -133.573229     2A    -20.723482     3A    -20.706745
       4A    -20.706071     5A    -20.695379     6A    -20.687973
       7A    -20.685573     8A    -14.531582     9A    -11.561428
      10A    -11.561352    11A    -11.561296    12A     -1.796349
      13A     -1.516818    14A     -1.505677    15A     -1.489776
      16A     -1.487751    17A     -1.471333    18A     -1.460723
      19A     -1.010723    20A     -1.007598    21A     -1.005454
      22A     -0.884558    23A     -0.872110    24A     -0.846069
      25A     -0.837207    26A     -0.818697    27A     -0.810353
      28A     -0.742211    29A     -0.738441    30A     -0.735018
      31A     -0.725907    32A     -0.718801    33A     -0.707791
      34A     -0.670400    35A     -0.659717    36A     -0.651517
      37A     -0.641743    38A     -0.629970    39A     -0.628338

  @DF-RHF Final Energy: -1055.45279422179783

   => Energetics <=

    Nuclear Repulsion Energy =            462.7354707630231019
    One-Electron Energy =               -2368.2461988864374689
    Two-Electron Energy =                 850.0579339016164795
    Total Energy =                      -1055.4527942217978307
 Dipole X            :        -26.5488299           26.8590837            0.3102538
 Dipole Y            :         59.7389734          -59.4647036            0.2742698
 Dipole Z            :        -19.3918137           20.6107572            1.2189435
 Magnitude           :                                                    1.2873635
  Basis Set: (AUG-CC-PVTZ AUX)
    Blend: AUG-CC-PVTZ-RI + DEF2-QZVPP-RI
	 Reference Energy          =   -1055.4527942217978307 [Eh]
	 Singles Energy            =      -0.0000000000000000 [Eh]
	 Same-Spin Energy          =      -0.4585883192864776 [Eh]
	 Opposite-Spin Energy      =      -1.3976168568606837 [Eh]
	 Correlation Energy        =      -1.8562051761471614 [Eh]
	 Total Energy              =   -1057.3089993979449446 [Eh]

	 ================> DF-SCS-MP2 Energies <==================
	-----------------------------------------------------------
	 SCS Same-Spin Scale       =       0.3333333333333333 [-]
	 SCS Opposite-Spin Scale   =       1.2000000000000000 [-]
	 SCS Same-Spin Energy      =      -0.1528627730954925 [Eh]
	 SCS Opposite-Spin Energy  =      -1.6771402282328205 [Eh]
	 SCS Correlation Energy    =      -1.8300030013283131 [Eh]
	 SCS Total Energy          =   -1057.2827972231261811 [Eh]
	-----------------------------------------------------------

*** Psi4 exiting successfully. Buy a developer a beer!
