                               Psi4 1.9 release

  ==> Input File <==

--------------------------------------------------------------------------
MEMORY 60 GB

molecule dimer {
0 1
Gh(K)      0.000000     0.000000     0.000000
Gh(O)      0.798245    -2.673232     0.586516
Gh(H)      1.259072    -3.227763    -0.050608
Gh(H)      1.531752    -2.180835     0.924560
O          1.063720    -0.518108     2.608119
H          1.747934    -1.086894     2.959635
H          0.362801    -0.538207     3.240479
Gh(O)     -0.749147     2.531063     1.106211
Gh(H)     -1.357034     2.493353     1.855151
Gh(H)     -0.245091     3.336779     1.345826
Gh(O)     -0.978931     1.576870    -1.879881
Gh(H)     -0.514846     1.896055    -2.647649
Gh(H)     -1.625313     0.989072    -2.202663

units ang
no_reorient
no_com
symmetry c1
}

set {
basis        aug-cc-pVTZ
scf_type     df
}

energy("mp2")
--------------------------------------------------------------------------

    Molecular point group: c1

    Geometry (in Angstrom), charge = 0, multiplicity = 1:

       Center              X                  Y                   Z               Mass
    ------------   -----------------  -----------------  -----------------  -----------------
      Gh(K)           0.000000000000     0.000000000000     0.000000000000    38.963706486400
      Gh(O)           0.798245000000    -2.673232000000     0.586516000000    15.994914619570
      Gh(H)           1.259072000000    -3.227763000000    -0.050608000000     1.007825032230
      Gh(H)           1.531752000000    -2.180835000000     0.924560000000     1.007825032230
         O            1.063720000000    -0.518108000000     2.608119000000    15.994914619570
         H            1.747934000000    -1.086894000000     2.959635000000     1.007825032230
         H            0.362801000000    -0.538207000000     3.240479000000     1.007825032230
      Gh(O)          -0.749147000000     2.531063000000     1.106211000000    15.994914619570
      Gh(H)          -1.357034000000     2.493353000000     1.855151000000     1.007825032230
      Gh(H)          -0.245091000000     3.336779000000     1.345826000000     1.007825032230
      Gh(O)          -0.978931000000     1.576870000000    -1.879881000000    15.994914619570
      Gh(H)          -0.514846000000     1.896055000000    -2.647649000000     1.007825032230
      Gh(H)          -1.625313000000     0.989072000000    -2.202663000000     1.007825032230

  Charge       = 0
  Multiplicity = 1
  Basis Set: AUG-CC-PVTZ
    Blend: AUG-CC-PVTZ
  Basis Set: (AUG-CC-PVTZ AUX)
    Blend: AUG-CC-PVTZ-JKFIT + DEF2-UNIVERSAL-JKFIT

    Orbital Energies [Eh]
    ---------------------

    Doubly Occupied:

       1A    -20.565260     2A     -1.356165     3A     -0.724023
       4A     -0.583640     5A     -0.510543

  @DF-RHF Final Energy:   -76.06101228246210

   => Energetics <=

    Nuclear Repulsion Energy =              9.2576307273460188
    One-Electron Energy =                -123.1580224662358347
    Two-Electron Energy =                  37.8393794564277215
    Total Energy =                        -76.0610122824621016
 Dipole X            :        -20.0828336           20.0698269           -0.0130068
 Dipole Y            :         10.5097363          -10.9036536           -0.3939173
 Dipole Z            :        -50.4853693           51.1455623            0.6601930
 Magnitude           :                                                    0.7688920
  Basis Set: (AUG-CC-PVTZ AUX)
    Blend: AUG-CC-PVTZ-RI + DEF2-QZVPP-RI
	 Reference Energy          =     -76.0610122824621016 [Eh]
	 Singles Energy            =      -0.0000000000000000 [Eh]
	 Same-Spin Energy          =      -0.0682545559622632 [Eh]
	 Opposite-Spin Energy      =      -0.2152037076431769 [Eh]
	 Correlation Energy        =      -0.2834582636054401 [Eh]
	 Total Energy              =     -76.3444705460675408 [Eh]

	 ================> DF-SCS-MP2 Energies <==================
	-----------------------------------------------------------
	 SCS Same-Spin Scale       =       0.3333333333333333 [-]
	 SCS Opposite-Spin Scale   =       1.2000000000000000 [-]
	 SCS Same-Spin Energy      =      -0.0227515186540877 [Eh]
	 SCS Opposite-Spin Energy  =      -0.2582444491718122 [Eh]
	 SCS Correlation Energy    =      -0.2809959678259000 [Eh]
	 SCS Total Energy          =     -76.3420082502880035 [Eh]
	-----------------------------------------------------------

*** Psi4 exiting successfully. Buy a developer a beer!
