                               Psi4 1.9 release

  ==> Input File <==

--------------------------------------------------------------------------
MEMORY 60 GB

molecule dimer {
1 1
K          0.000000     0.000000     0.000000
O          2.396279     0.775608    -0.451841
H          2.861485     0.358524    -1.212679
H          2.964841     0.677780     0.338905
O         -0.804734     2.543152     1.001045
H         -0.610352     3.441400     0.770337
H         -0.791853     2.593161     1.934941
O          1.230894    -1.869188    -1.275336
H          1.585639    -1.664232    -2.153730
H          1.204694    -2.795554    -1.187042
O         -1.211205     1.758805    -1.667366
H         -1.911099     2.172143    -1.102733
H         -0.856874     2.386555    -2.247478
O          0.894477    -0.492812     2.544623
H          1.829653    -0.334025     2.571714
H          0.668104    -0.888251     3.434370
O         -1.983101    -1.526150     1.175537
H         -2.303839    -1.002062     1.943197
H         -1.706738    -2.417397     1.491046

units ang
no_reorient
no_com
symmetry c1
}

set {
basis        aug-cc-pVTZ
scf_type     df
}

energy("mp2")
--------------------------------------------------------------------------

    Molecular point group: c1

    Geometry (in Angstrom), charge = 1, multiplicity = 1:

       Center              X                  Y                   Z               Mass
    ------------   -----------------  -----------------  -----------------  -----------------
         K            0.000000000000     0.000000000000     0.000000000000    38.963706486400
         O            2.396279000000     0.775608000000    -0.451841000000    15.994914619570
         H            2.861485000000     0.358524000000    -1.212679000000     1.007825032230
         H            2.964841000000     0.677780000000     0.338905000000     1.007825032230
         O           -0.804734000000     2.543152000000     1.001045000000    15.994914619570
         H           -0.610352000000     3.441400000000     0.770337000000     1.007825032230
         H           -0.791853000000     2.593161000000     1.934941000000     1.007825032230
         O            1.230894000000    -1.869188000000    -1.275336000000    15.994914619570
         H            1.585639000000    -1.664232000000    -2.153730000000     1.007825032230
         H            1.204694000000    -2.795554000000    -1.187042000000     1.007825032230
         O           -1.211205000000     1.758805000000    -1.667366000000    15.994914619570
         H           -1.911099000000     2.172143000000    -1.102733000000     1.007825032230
         H           -0.856874000000     2.386555000000    -2.247478000000     1.007825032230
         O            0.894477000000    -0.492812000000     2.544623000000    15.994914619570
         H            1.829653000000    -0.334025000000     2.571714000000     1.007825032230
         H            0.668104000000    -0.888251000000     3.434370000000     1.007825032230
         O           -1.983101000000    -1.526150000000     1.175537000000    15.994914619570
         H           -2.303839000000    -1.002062000000     1.943197000000     1.007825032230
         H           -1.706738000000    -2.417397000000     1.491046000000     1.007825032230

  Charge       = 1
  Multiplicity = 1
  Basis Set: AUG-CC-PVTZ
    Blend: AUG-CC-PVTZ
  Basis Set: (AUG-CC-PVTZ AUX)
    Blend: AUG-CC-PVTZ-JKFIT + DEF2-UNIVERSAL-JKFIT

    Orbital Energies [Eh]
    ---------------------

    Doubly Occupied:

       1A   -133.555984     2A    -20.713856     3A    -20.706902
       4A    -20.705072     5A    -20.696862     6A    -20.696298
       7A    -20.678021     8A    -14.514874     9A    -11.544647
      10A    -11.544595    11A    -11.544538    12A     -1.781487
      13A     -1.501351    14A     -1.499349    15A     -1.492672
      16A     -1.482415    17A     -1.468647    18A     -1.467206
      19A     -0.995338    20A     -0.993866    21A     -0.992151
      22A     -0.874379    23A     -0.858624    24A     -0.855825
      25A     -0.850426    26A     -0.844110    27A     -0.839779
      28A     -0.738352    29A     -0.733308    30A     -0.729285
      31A     -0.720529    32A     -0.703934    33A     -0.697213
      34A     -0.662630    35A     -0.657347    36A     -0.647931
      37A     -0.645097    38A     -0.637256    39A     -0.626140

  @DF-RHF Final Energy: -1055.45994384684650

   => Energetics <=

    Nuclear Repulsion Energy =            464.7427316474760346
    One-Electron Energy =               -2372.6087429871736276
    Two-Electron Energy =                 852.4060674928512071
    Total Energy =                      -1055.4599438468464996
 Dipole X            :        -12.0796394           13.4445340            1.3648946
 Dipole Y            :        -22.6466236           22.7586558            0.1120322
 Dipole Z            :        -27.3485423           28.7127709            1.3642285
 Magnitude           :                                                    1.9330308
  Basis Set: (AUG-CC-PVTZ AUX)
    Blend: AUG-CC-PVTZ-RI + DEF2-QZVPP-RI
	 Reference Energy          =   -1055.4599438468464996 [Eh]
	 Singles Energy            =      -0.0000000000000000 [Eh]
	 Same-Spin Energy          =      -0.4577038715845155 [Eh]
	 Opposite-Spin Energy      =      -1.3956038110889331 [Eh]
	 Correlation Energy        =      -1.8533076826734485 [Eh]
	 Total Energy              =   -1057.3132515295199028 [Eh]

	 ================> DF-SCS-MP2 Energies <==================
	-----------------------------------------------------------
	 SCS Same-Spin Scale       =       0.3333333333333333 [-]
	 SCS Opposite-Spin Scale   =       1.2000000000000000 [-]
	 SCS Same-Spin Energy      =      -0.1525679571948385 [Eh]
	 SCS Opposite-Spin Energy  =      -1.6747245733067195 [Eh]
	 SCS Correlation Energy    =      -1.8272925305015582 [Eh]
	 SCS Total Energy          =   -1057.2872363773481084 [Eh]
	-----------------------------------------------------------

*** Psi4 exiting successfully. Buy a developer a beer!
