                               Psi4 1.9 release

  ==> Input File <==

--------------------------------------------------------------------------
MEMORY 60 GB

molecule dimer {
0 1
Gh(K)      0.000000     0.000000     0.000000
Gh(O)      0.943634     1.540384    -2.239203
Gh(H)      1.835162     1.914466    -2.211791
Gh(H)      0.256757     2.195615    -2.041790
Gh(O)     -1.920742    -0.633797    -1.813826
Gh(H)     -2.580219    -1.072039    -1.329826
Gh(H)     -2.116309     0.283541    -1.612310
Gh(O)     -1.787723     1.870031     1.131142
Gh(H)     -2.161469     2.114690     0.289051
Gh(H)     -1.202138     2.601312     1.399681
O          0.489597    -2.771440    -0.697134
H          1.059577    -2.807431    -1.496358
H          0.870276    -3.282004     0.035325

units ang
no_reorient
no_com
symmetry c1
}

set {
basis        aug-cc-pVTZ
scf_type     df
}

energy("mp2")
--------------------------------------------------------------------------

    Molecular point group: c1

    Geometry (in Angstrom), charge = 0, multiplicity = 1:

       Center              X                  Y                   Z               Mass
    ------------   -----------------  -----------------  -----------------  -----------------
      Gh(K)           0.000000000000     0.000000000000     0.000000000000    38.963706486400
      Gh(O)           0.943634000000     1.540384000000    -2.239203000000    15.994914619570
      Gh(H)           1.835162000000     1.914466000000    -2.211791000000     1.007825032230
      Gh(H)           0.256757000000     2.195615000000    -2.041790000000     1.007825032230
      Gh(O)          -1.920742000000    -0.633797000000    -1.813826000000    15.994914619570
      Gh(H)          -2.580219000000    -1.072039000000    -1.329826000000     1.007825032230
      Gh(H)          -2.116309000000     0.283541000000    -1.612310000000     1.007825032230
      Gh(O)          -1.787723000000     1.870031000000     1.131142000000    15.994914619570
      Gh(H)          -2.161469000000     2.114690000000     0.289051000000     1.007825032230
      Gh(H)          -1.202138000000     2.601312000000     1.399681000000     1.007825032230
         O            0.489597000000    -2.771440000000    -0.697134000000    15.994914619570
         H            1.059577000000    -2.807431000000    -1.496358000000     1.007825032230
         H            0.870276000000    -3.282004000000     0.035325000000     1.007825032230

  Charge       = 0
  Multiplicity = 1
  Basis Set: AUG-CC-PVTZ
    Blend: AUG-CC-PVTZ
  Basis Set: (AUG-CC-PVTZ AUX)
    Blend: AUG-CC-PVTZ-JKFIT + DEF2-UNIVERSAL-JKFIT

    Orbital Energies [Eh]
    ---------------------

    Doubly Occupied:

       1A    -20.567108     2A     -1.339144     3A     -0.719861
       4A     -0.567735     5A     -0.506579

  @DF-RHF Final Energy:   -76.05759654647046

   => Energetics <=

    Nuclear Repulsion Energy =              8.9989875336734908
    One-Electron Energy =                -122.7123068946788891
    Two-Electron Energy =                  37.6557228145349470
    Total Energy =                        -76.0575965464704495
 Dipole X            :        -10.4099668           11.0485276            0.6385608
 Dipole Y            :         53.0377337          -53.4054650           -0.3677313
 Dipole Z            :         13.2567284          -13.3000909           -0.0433625
 Magnitude           :                                                    0.7381507
  Basis Set: (AUG-CC-PVTZ AUX)
    Blend: AUG-CC-PVTZ-RI + DEF2-QZVPP-RI
	 Reference Energy          =     -76.0575965464704637 [Eh]
	 Singles Energy            =      -0.0000000000000000 [Eh]
	 Same-Spin Energy          =      -0.0686238143595182 [Eh]
	 Opposite-Spin Energy      =      -0.2161354484615243 [Eh]
	 Correlation Energy        =      -0.2847592628210426 [Eh]
	 Total Energy              =     -76.3423558092915044 [Eh]

	 ================> DF-SCS-MP2 Energies <==================
	-----------------------------------------------------------
	 SCS Same-Spin Scale       =       0.3333333333333333 [-]
	 SCS Opposite-Spin Scale   =       1.2000000000000000 [-]
	 SCS Same-Spin Energy      =      -0.0228746047865061 [Eh]
	 SCS Opposite-Spin Energy  =      -0.2593625381538292 [Eh]
	 SCS Correlation Energy    =      -0.2822371429403353 [Eh]
	 SCS Total Energy          =     -76.3398336894107956 [Eh]
	-----------------------------------------------------------

*** Psi4 exiting successfully. Buy a developer a beer!
