                               Psi4 1.9 release

  ==> Input File <==

--------------------------------------------------------------------------
MEMORY 60 GB

molecule dimer {
0 1
Gh(K)      0.000000     0.000000     0.000000
O         -2.137032    -0.856625     1.512180
H         -1.868986    -0.256897     2.167979
H         -2.239988    -1.648355     2.041290
Gh(O)      2.175127     1.925803    -0.413797
Gh(H)      1.709840     2.569824    -0.952341
Gh(H)      2.889234     1.626517    -1.020393
Gh(O)      0.141167     0.967816     2.459987
Gh(H)     -0.589109     1.582427     2.558548
Gh(H)      0.912326     1.572431     2.509376
Gh(O)     -1.688514     1.833831    -0.432819
Gh(H)     -2.264011     1.940198     0.309424
Gh(H)     -2.154571     1.891732    -1.244451
Gh(O)      1.446652    -0.632454    -2.619546
Gh(H)      2.280514    -0.166052    -2.786880
Gh(H)      1.538590    -1.544524    -2.934943
Gh(O)      2.182475    -1.748894     0.845704
Gh(H)      2.180246    -2.541209     0.250924
Gh(H)      2.896339    -1.190755     0.512360

units ang
no_reorient
no_com
symmetry c1
}

set {
basis        aug-cc-pVTZ
scf_type     df
}

energy("mp2")
--------------------------------------------------------------------------

    Molecular point group: c1

    Geometry (in Angstrom), charge = 0, multiplicity = 1:

       Center              X                  Y                   Z               Mass
    ------------   -----------------  -----------------  -----------------  -----------------
      Gh(K)           0.000000000000     0.000000000000     0.000000000000    38.963706486400
         O           -2.137032000000    -0.856625000000     1.512180000000    15.994914619570
         H           -1.868986000000    -0.256897000000     2.167979000000     1.007825032230
         H           -2.239988000000    -1.648355000000     2.041290000000     1.007825032230
      Gh(O)           2.175127000000     1.925803000000    -0.413797000000    15.994914619570
      Gh(H)           1.709840000000     2.569824000000    -0.952341000000     1.007825032230
      Gh(H)           2.889234000000     1.626517000000    -1.020393000000     1.007825032230
      Gh(O)           0.141167000000     0.967816000000     2.459987000000    15.994914619570
      Gh(H)          -0.589109000000     1.582427000000     2.558548000000     1.007825032230
      Gh(H)           0.912326000000     1.572431000000     2.509376000000     1.007825032230
      Gh(O)          -1.688514000000     1.833831000000    -0.432819000000    15.994914619570
      Gh(H)          -2.264011000000     1.940198000000     0.309424000000     1.007825032230
      Gh(H)          -2.154571000000     1.891732000000    -1.244451000000     1.007825032230
      Gh(O)           1.446652000000    -0.632454000000    -2.619546000000    15.994914619570
      Gh(H)           2.280514000000    -0.166052000000    -2.786880000000     1.007825032230
      Gh(H)           1.538590000000    -1.544524000000    -2.934943000000     1.007825032230
      Gh(O)           2.182475000000    -1.748894000000     0.845704000000    15.994914619570
      Gh(H)           2.180246000000    -2.541209000000     0.250924000000     1.007825032230
      Gh(H)           2.896339000000    -1.190755000000     0.512360000000     1.007825032230

  Charge       = 0
  Multiplicity = 1
  Basis Set: AUG-CC-PVTZ
    Blend: AUG-CC-PVTZ
  Basis Set: (AUG-CC-PVTZ AUX)
    Blend: AUG-CC-PVTZ-JKFIT + DEF2-UNIVERSAL-JKFIT

    Orbital Energies [Eh]
    ---------------------

    Doubly Occupied:

       1A    -20.566265     2A     -1.364639     3A     -0.716555
       4A     -0.596342     5A     -0.512799

  @DF-RHF Final Energy:   -76.05976634174473

   => Energetics <=

    Nuclear Repulsion Energy =              9.3467461445500870
    One-Electron Energy =                -123.2998230035242955
    Two-Electron Energy =                  37.8933105172294731
    Total Energy =                        -76.0597663417447336
 Dipole X            :         40.1827653          -40.0720771            0.1106882
 Dipole Y            :         16.4291050          -16.5506976           -0.1215926
 Dipole Z            :        -30.0293402           30.8152140            0.7858738
 Magnitude           :                                                    0.8028912
  Basis Set: (AUG-CC-PVTZ AUX)
    Blend: AUG-CC-PVTZ-RI + DEF2-QZVPP-RI
	 Reference Energy          =     -76.0597663417447336 [Eh]
	 Singles Energy            =      -0.0000000000000000 [Eh]
	 Same-Spin Energy          =      -0.0682586497749653 [Eh]
	 Opposite-Spin Energy      =      -0.2152882202564905 [Eh]
	 Correlation Energy        =      -0.2835468700314558 [Eh]
	 Total Energy              =     -76.3433132117761915 [Eh]

	 ================> DF-SCS-MP2 Energies <==================
	-----------------------------------------------------------
	 SCS Same-Spin Scale       =       0.3333333333333333 [-]
	 SCS Opposite-Spin Scale   =       1.2000000000000000 [-]
	 SCS Same-Spin Energy      =      -0.0227528832583218 [Eh]
	 SCS Opposite-Spin Energy  =      -0.2583458643077886 [Eh]
	 SCS Correlation Energy    =      -0.2810987475661103 [Eh]
	 SCS Total Energy          =     -76.3408650893108387 [Eh]
	-----------------------------------------------------------

*** Psi4 exiting successfully. Buy a developer a beer!
