                               Psi4 1.9 release

  ==> Input File <==

--------------------------------------------------------------------------
MEMORY 60 GB

molecule dimer {
0 1
Gh(K)      0.000000     0.000000     0.000000
O         -1.401294    -2.319984     0.595642
H         -2.165323    -2.489013     0.056141
H         -1.692797    -2.298776     1.519253
Gh(O)      2.059328     0.860530    -2.001607
Gh(H)      2.218543     0.995393    -2.926651
Gh(H)      2.931273     0.579426    -1.708589
Gh(O)      0.139810    -2.074268    -2.048206
Gh(H)     -0.472017    -2.790168    -2.193251
Gh(H)      0.858437    -2.515223    -1.525697
Gh(O)      1.813080    -1.091665     1.643608
Gh(H)      2.014250    -0.544059     2.384550
Gh(H)      2.088929    -1.972871     1.887999
Gh(O)     -1.899757     0.527696    -1.929873
Gh(H)     -1.769861    -0.112460    -2.593047
Gh(H)     -2.048566     1.322323    -2.439166
Gh(O)     -0.463187     2.715830     0.308455
Gh(H)     -0.267254     3.616369    -0.030918
Gh(H)     -0.970271     2.903521     1.119489

units ang
no_reorient
no_com
symmetry c1
}

set {
basis        aug-cc-pVTZ
scf_type     df
}

energy("mp2")
--------------------------------------------------------------------------

    Molecular point group: c1

    Geometry (in Angstrom), charge = 0, multiplicity = 1:

       Center              X                  Y                   Z               Mass
    ------------   -----------------  -----------------  -----------------  -----------------
      Gh(K)           0.000000000000     0.000000000000     0.000000000000    38.963706486400
         O           -1.401294000000    -2.319984000000     0.595642000000    15.994914619570
         H           -2.165323000000    -2.489013000000     0.056141000000     1.007825032230
         H           -1.692797000000    -2.298776000000     1.519253000000     1.007825032230
      Gh(O)           2.059328000000     0.860530000000    -2.001607000000    15.994914619570
      Gh(H)           2.218543000000     0.995393000000    -2.926651000000     1.007825032230
      Gh(H)           2.931273000000     0.579426000000    -1.708589000000     1.007825032230
      Gh(O)           0.139810000000    -2.074268000000    -2.048206000000    15.994914619570
      Gh(H)          -0.472017000000    -2.790168000000    -2.193251000000     1.007825032230
      Gh(H)           0.858437000000    -2.515223000000    -1.525697000000     1.007825032230
      Gh(O)           1.813080000000    -1.091665000000     1.643608000000    15.994914619570
      Gh(H)           2.014250000000    -0.544059000000     2.384550000000     1.007825032230
      Gh(H)           2.088929000000    -1.972871000000     1.887999000000     1.007825032230
      Gh(O)          -1.899757000000     0.527696000000    -1.929873000000    15.994914619570
      Gh(H)          -1.769861000000    -0.112460000000    -2.593047000000     1.007825032230
      Gh(H)          -2.048566000000     1.322323000000    -2.439166000000     1.007825032230
      Gh(O)          -0.463187000000     2.715830000000     0.308455000000    15.994914619570
      Gh(H)          -0.267254000000     3.616369000000    -0.030918000000     1.007825032230
      Gh(H)          -0.970271000000     2.903521000000     1.119489000000     1.007825032230

  Charge       = 0
  Multiplicity = 1
  Basis Set: AUG-CC-PVTZ
    Blend: AUG-CC-PVTZ
  Basis Set: (AUG-CC-PVTZ AUX)
    Blend: AUG-CC-PVTZ-JKFIT + DEF2-UNIVERSAL-JKFIT

    Orbital Energies [Eh]
    ---------------------

    Doubly Occupied:

       1A    -20.566044     2A     -1.350158     3A     -0.722429
       4A     -0.578292     5A     -0.509199

  @DF-RHF Final Energy:   -76.06029750783854

   => Energetics <=

    Nuclear Repulsion Energy =              9.1656163602353562
    One-Electron Energy =                -122.9995787514726118
    Two-Electron Energy =                  37.7736648833987019
    Total Energy =                        -76.0602975078385555
 Dipole X            :         27.7666880          -28.4752852           -0.7085972
 Dipole Y            :         44.0211022          -44.1206850           -0.0995827
 Dipole Z            :        -11.7269871           11.9818652            0.2548781
 Magnitude           :                                                    0.7595983
  Basis Set: (AUG-CC-PVTZ AUX)
    Blend: AUG-CC-PVTZ-RI + DEF2-QZVPP-RI
	 Reference Energy          =     -76.0602975078385413 [Eh]
	 Singles Energy            =      -0.0000000000000000 [Eh]
	 Same-Spin Energy          =      -0.0683800502457145 [Eh]
	 Opposite-Spin Energy      =      -0.2155705082580183 [Eh]
	 Correlation Energy        =      -0.2839505585037328 [Eh]
	 Total Energy              =     -76.3442480663422742 [Eh]

	 ================> DF-SCS-MP2 Energies <==================
	-----------------------------------------------------------
	 SCS Same-Spin Scale       =       0.3333333333333333 [-]
	 SCS Opposite-Spin Scale   =       1.2000000000000000 [-]
	 SCS Same-Spin Energy      =      -0.0227933500819048 [Eh]
	 SCS Opposite-Spin Energy  =      -0.2586846099096220 [Eh]
	 SCS Correlation Energy    =      -0.2814779599915268 [Eh]
	 SCS Total Energy          =     -76.3417754678300611 [Eh]
	-----------------------------------------------------------

*** Psi4 exiting successfully. Buy a developer a beer!
