                               Psi4 1.9 release

  ==> Input File <==

--------------------------------------------------------------------------
MEMORY 60 GB

molecule dimer {
1 1
K      0.000000     0.000000     0.000000
--
0 1
O     -2.635555    -0.276395     1.367629
H     -2.296026    -0.337391     2.286535
H     -3.490352    -0.708308     1.251761
O      2.756429    -0.515741    -0.495604
H      3.405562    -0.731420     0.158018
H      2.773624     0.411513    -0.812172
O      0.329265     0.299331    -2.532931
H      0.307016    -0.242145    -3.289589
H      0.466834     1.212367    -2.850108
O      0.201952     1.346168     2.493417
H     -0.355586     2.214469     2.733889
H     -0.029793     0.631912     3.061578
O     -1.125899    -2.279212    -1.110246
H     -1.831871    -2.461089    -1.782069
H     -0.507812    -3.042224    -1.253317

units ang
no_reorient
no_com
symmetry c1
}

set {
basis        aug-cc-pVTZ
scf_type     df
}

energy("mp2", bsse_type="cp")
--------------------------------------------------------------------------

                               Psi4 1.9 release
    Molecular point group: c1
  Charge       = 0
  Multiplicity = 1
  Basis Set: AUG-CC-PVTZ
    Blend: AUG-CC-PVTZ
  Basis Set: (AUG-CC-PVTZ AUX)
    Blend: AUG-CC-PVTZ-JKFIT + DEF2-UNIVERSAL-JKFIT
  @DF-RHF Final Energy:  -380.26440180840973
    Total Energy =                       -380.2644018084097297
 Dipole X            :          9.7086260          -10.1078956           -0.3992696
 Dipole Y            :         27.2162305          -27.3237541           -0.1075237
 Dipole Z            :          5.1773847           -5.1350548            0.0423298
 Magnitude           :                                                    0.4156554
  Basis Set: (AUG-CC-PVTZ AUX)
    Blend: AUG-CC-PVTZ-RI + DEF2-QZVPP-RI
	 Reference Energy          =    -380.2644018084097297 [Eh]
	 Singles Energy            =      -0.0000000000000000 [Eh]
	 Same-Spin Energy          =      -0.3451948817316066 [Eh]
	 Opposite-Spin Energy      =      -1.0847315834275986 [Eh]
	 Correlation Energy        =      -1.4299264651592052 [Eh]
	 Total Energy              =    -381.6943282735689422 [Eh]
	 SCS Total Energy          =    -381.6811446691000356 [Eh]
                               Psi4 1.9 release
    Molecular point group: c1
  Multiplicity = 1
  Basis Set: AUG-CC-PVTZ
    Blend: AUG-CC-PVTZ
  Basis Set: (AUG-CC-PVTZ AUX)
    Blend: AUG-CC-PVTZ-JKFIT + DEF2-UNIVERSAL-JKFIT
  @DF-RHF Final Energy:  -599.01751586764067
    Total Energy =                       -599.0175158676406681
  Basis Set: (AUG-CC-PVTZ AUX)
	 Singles Energy            =      -0.0000000000000000 [Eh]
	 Same-Spin Energy          =      -0.0368307135224332 [Eh]
	 Opposite-Spin Energy      =      -0.0897251150617521 [Eh]
	 Correlation Energy        =      -0.1265558285841853 [Eh]
	 Total Energy              =    -599.1440716962248416 [Eh]
	 SCS Total Energy          =    -599.1374629102222116 [Eh]
                               Psi4 1.9 release
    Molecular point group: c1

    Geometry (in Bohr), charge = 1, multiplicity = 1:

       Center              X                  Y                   Z               Mass
    ------------   -----------------  -----------------  -----------------  -----------------
         K            0.000000000000     0.000000000000     0.000000000000    38.963706486400
         O           -4.980477138581    -0.522310852446     2.584444251234    15.994914619570
         H           -4.338860316930    -0.637576587194     4.320924926274     1.007825032230
         H           -6.595809361444    -1.338508132471     2.365485464529     1.007825032230
         O            5.208895894270    -0.974609241670    -0.936555826681    15.994914619570
         H            6.435579483266    -1.382183482682     0.298610742893     1.007825032230
         H            5.241389734997     0.777646867066    -1.534782646765     1.007825032230
         O            0.622220672699     0.565653610859    -4.786545884682    15.994914619570
         H            0.580176156134    -0.457587732649    -6.216422275319     1.007825032230
         H            0.882188406052     2.291041593543    -5.385923547976     1.007825032230
         O            0.381633970488     2.543888838855     4.711875246561    15.994914619570
         H           -0.671960154047     4.184739923316     5.166301467402     1.007825032230
         H           -0.056300610456     1.194140615390     5.785543931727     1.007825032230
         O           -2.127640754927    -4.307086461857    -2.098060871885    15.994914619570
         H           -3.461734487169    -4.650784180377    -3.367622346669     1.007825032230
         H           -0.959625603221    -5.748970172295    -2.368425878380     1.007825032230

  Charge       = 1
  Multiplicity = 1
  Basis Set: AUG-CC-PVTZ
    Blend: AUG-CC-PVTZ
  Basis Set: (AUG-CC-PVTZ AUX)
    Blend: AUG-CC-PVTZ-JKFIT + DEF2-UNIVERSAL-JKFIT

    Orbital Energies [Eh]
    ---------------------

    Doubly Occupied:

       1A   -133.603078     2A    -20.716370     3A    -20.711930
       4A    -20.707379     5A    -20.698601     6A    -20.697074
       7A    -14.560756     8A    -11.590739     9A    -11.590565
      10A    -11.590498    11A     -1.823155    12A     -1.505836
      13A     -1.480593    14A     -1.479698    15A     -1.474989
      16A     -1.473929    17A     -1.035788    18A     -1.031669
      19A     -1.031481    20A     -0.873907    21A     -0.868660
      22A     -0.859645    23A     -0.853015    24A     -0.829803
      25A     -0.741192    26A     -0.726768    27A     -0.716017
      28A     -0.704833    29A     -0.701434    30A     -0.662563
      31A     -0.655390    32A     -0.646747    33A     -0.644502
      34A     -0.639953

  @DF-RHF Final Energy:  -979.37881271523622

   => Energetics <=

    Nuclear Repulsion Energy =            342.4243576225338188
    One-Electron Energy =               -2023.7492190294378815
    Two-Electron Energy =                 701.9460486916678974
    Total Energy =                       -979.3788127152362222
 Dipole X            :          9.6599422          -10.1078956           -0.4479534
 Dipole Y            :         27.0783849          -27.3237541           -0.2453693
 Dipole Z            :          5.0468789           -5.1350548           -0.0881759
 Magnitude           :                                                    0.5183081
  Basis Set: (AUG-CC-PVTZ AUX)
    Blend: AUG-CC-PVTZ-RI + DEF2-QZVPP-RI
	 Reference Energy          =    -979.3788127152362222 [Eh]
	 Singles Energy            =      -0.0000000000000000 [Eh]
	 Same-Spin Energy          =      -0.3849922640497812 [Eh]
	 Opposite-Spin Energy      =      -1.1736628383015111 [Eh]
	 Correlation Energy        =      -1.5586551023512922 [Eh]
	 Total Energy              =    -980.9374678175875033 [Eh]

	 ================> DF-SCS-MP2 Energies <==================
	-----------------------------------------------------------
	 SCS Same-Spin Scale       =       0.3333333333333333 [-]
	 SCS Opposite-Spin Scale   =       1.2000000000000000 [-]
	 SCS Same-Spin Energy      =      -0.1283307546832604 [Eh]
	 SCS Opposite-Spin Energy  =      -1.4083954059618133 [Eh]
	 SCS Correlation Energy    =      -1.5367261606450737 [Eh]
	 SCS Total Energy          =    -980.9155388758813388 [Eh]
	-----------------------------------------------------------

*** Psi4 exiting successfully. Buy a developer a beer!
