                               Psi4 1.9 release

  ==> Input File <==

--------------------------------------------------------------------------
MEMORY 60 GB

molecule dimer {
1 1
K          0.000000     0.000000     0.000000
O         -1.265699    -2.742015    -0.100037
H         -2.179241    -2.698658     0.327361
H         -1.419350    -2.792292    -1.054146
O          1.272599    -1.329958     1.835236
H          1.045544    -2.218621     1.644981
H          1.990525    -1.335279     2.504667
O         -2.112318     0.381367     2.020921
H         -3.046245     0.751485     2.160738
H         -1.624816     1.165296     2.260813
O          0.975616     1.537608    -2.344587
H          1.718704     1.125633    -2.807348
H          1.478579     2.238025    -1.771565
O         -2.703279     0.101022    -1.389176
H         -3.313767     0.118266    -0.654596
H         -2.877541     0.906785    -1.885854
O          1.701775    -1.458525    -1.511955
H          1.521016    -2.311011    -1.145006
H          1.247312    -1.424578    -2.334159

units ang
no_reorient
no_com
symmetry c1
}

set {
basis        aug-cc-pVTZ
scf_type     df
}

energy("mp2")
--------------------------------------------------------------------------

    Molecular point group: c1

    Geometry (in Angstrom), charge = 1, multiplicity = 1:

       Center              X                  Y                   Z               Mass
    ------------   -----------------  -----------------  -----------------  -----------------
         K            0.000000000000     0.000000000000     0.000000000000    38.963706486400
         O           -1.265699000000    -2.742015000000    -0.100037000000    15.994914619570
         H           -2.179241000000    -2.698658000000     0.327361000000     1.007825032230
         H           -1.419350000000    -2.792292000000    -1.054146000000     1.007825032230
         O            1.272599000000    -1.329958000000     1.835236000000    15.994914619570
         H            1.045544000000    -2.218621000000     1.644981000000     1.007825032230
         H            1.990525000000    -1.335279000000     2.504667000000     1.007825032230
         O           -2.112318000000     0.381367000000     2.020921000000    15.994914619570
         H           -3.046245000000     0.751485000000     2.160738000000     1.007825032230
         H           -1.624816000000     1.165296000000     2.260813000000     1.007825032230
         O            0.975616000000     1.537608000000    -2.344587000000    15.994914619570
         H            1.718704000000     1.125633000000    -2.807348000000     1.007825032230
         H            1.478579000000     2.238025000000    -1.771565000000     1.007825032230
         O           -2.703279000000     0.101022000000    -1.389176000000    15.994914619570
         H           -3.313767000000     0.118266000000    -0.654596000000     1.007825032230
         H           -2.877541000000     0.906785000000    -1.885854000000     1.007825032230
         O            1.701775000000    -1.458525000000    -1.511955000000    15.994914619570
         H            1.521016000000    -2.311011000000    -1.145006000000     1.007825032230
         H            1.247312000000    -1.424578000000    -2.334159000000     1.007825032230

  Charge       = 1
  Multiplicity = 1
  Basis Set: AUG-CC-PVTZ
    Blend: AUG-CC-PVTZ
  Basis Set: (AUG-CC-PVTZ AUX)
    Blend: AUG-CC-PVTZ-JKFIT + DEF2-UNIVERSAL-JKFIT

    Orbital Energies [Eh]
    ---------------------

    Doubly Occupied:

       1A   -133.604089     2A    -20.717701     3A    -20.710475
       4A    -20.705906     5A    -20.703905     6A    -20.703344
       7A    -20.700814     8A    -14.561679     9A    -11.591649
      10A    -11.591459    11A    -11.591453    12A     -1.823947
      13A     -1.504493    14A     -1.492848    15A     -1.491636
      16A     -1.487342    17A     -1.473808    18A     -1.472352
      19A     -1.035703    20A     -1.033000    21A     -1.031844
      22A     -0.873025    23A     -0.863657    24A     -0.853434
      25A     -0.839479    26A     -0.836244    27A     -0.823281
      28A     -0.741014    29A     -0.730803    30A     -0.727729
      31A     -0.723356    32A     -0.722198    33A     -0.715310
      34A     -0.661559    35A     -0.657702    36A     -0.651554
      37A     -0.645485    38A     -0.645330    39A     -0.644726

  @DF-RHF Final Energy: -1055.44769897415540

   => Energetics <=

    Nuclear Repulsion Energy =            449.2753835299088223
    One-Electron Energy =               -2340.6754891338650850
    Two-Electron Energy =                 835.9524066298007483
    Total Energy =                      -1055.4476989741556281
 Dipole X            :         41.6580200          -42.5372211           -0.8792011
 Dipole Y            :         65.3808370          -65.3069639            0.0738731
 Dipole Z            :         27.8541105          -27.7239792            0.1301312
 Magnitude           :                                                    0.8918441
  Basis Set: (AUG-CC-PVTZ AUX)
    Blend: AUG-CC-PVTZ-RI + DEF2-QZVPP-RI
	 Reference Energy          =   -1055.4476989741554007 [Eh]
	 Singles Energy            =      -0.0000000000000000 [Eh]
	 Same-Spin Energy          =      -0.4562406363737384 [Eh]
	 Opposite-Spin Energy      =      -1.3949471904586872 [Eh]
	 Correlation Energy        =      -1.8511878268324256 [Eh]
	 Total Energy              =   -1057.2988868009879297 [Eh]

	 ================> DF-SCS-MP2 Energies <==================
	-----------------------------------------------------------
	 SCS Same-Spin Scale       =       0.3333333333333333 [-]
	 SCS Opposite-Spin Scale   =       1.2000000000000000 [-]
	 SCS Same-Spin Energy      =      -0.1520802121245795 [Eh]
	 SCS Opposite-Spin Energy  =      -1.6739366285504247 [Eh]
	 SCS Correlation Energy    =      -1.8260168406750041 [Eh]
	 SCS Total Energy          =   -1057.2737158148304388 [Eh]
	-----------------------------------------------------------

*** Psi4 exiting successfully. Buy a developer a beer!
