                               Psi4 1.9 release

  ==> Input File <==

--------------------------------------------------------------------------
MEMORY 60 GB

molecule dimer {
0 1
Gh(K)      0.000000     0.000000     0.000000
Gh(O)      0.381547    -2.552558    -1.504867
Gh(H)      1.305011    -2.508122    -1.562112
Gh(H)      0.195752    -3.068888    -0.743103
Gh(O)     -2.152753    -1.918638    -0.513085
Gh(H)     -3.032715    -1.893013    -0.107358
Gh(H)     -2.129564    -2.762877    -0.889215
O          1.881209    -1.325987     1.692441
H          2.801171    -1.317073     1.472737
H          1.822881    -1.212799     2.637718
Gh(O)     -0.856008     2.370718     1.286842
Gh(H)     -1.091753     2.561565     2.221772
Gh(H)     -0.547518     3.153373     0.860940
Gh(O)     -0.195392     1.168538    -2.406268
Gh(H)      0.427603     1.930953    -2.467495
Gh(H)     -0.179593     0.694044    -3.196332

units ang
no_reorient
no_com
symmetry c1
}

set {
basis        aug-cc-pVTZ
scf_type     df
}

energy("mp2")
--------------------------------------------------------------------------

    Molecular point group: c1

    Geometry (in Angstrom), charge = 0, multiplicity = 1:

       Center              X                  Y                   Z               Mass
    ------------   -----------------  -----------------  -----------------  -----------------
      Gh(K)           0.000000000000     0.000000000000     0.000000000000    38.963706486400
      Gh(O)           0.381547000000    -2.552558000000    -1.504867000000    15.994914619570
      Gh(H)           1.305011000000    -2.508122000000    -1.562112000000     1.007825032230
      Gh(H)           0.195752000000    -3.068888000000    -0.743103000000     1.007825032230
      Gh(O)          -2.152753000000    -1.918638000000    -0.513085000000    15.994914619570
      Gh(H)          -3.032715000000    -1.893013000000    -0.107358000000     1.007825032230
      Gh(H)          -2.129564000000    -2.762877000000    -0.889215000000     1.007825032230
         O            1.881209000000    -1.325987000000     1.692441000000    15.994914619570
         H            2.801171000000    -1.317073000000     1.472737000000     1.007825032230
         H            1.822881000000    -1.212799000000     2.637718000000     1.007825032230
      Gh(O)          -0.856008000000     2.370718000000     1.286842000000    15.994914619570
      Gh(H)          -1.091753000000     2.561565000000     2.221772000000     1.007825032230
      Gh(H)          -0.547518000000     3.153373000000     0.860940000000     1.007825032230
      Gh(O)          -0.195392000000     1.168538000000    -2.406268000000    15.994914619570
      Gh(H)           0.427603000000     1.930953000000    -2.467495000000     1.007825032230
      Gh(H)          -0.179593000000     0.694044000000    -3.196332000000     1.007825032230

  Charge       = 0
  Multiplicity = 1
  Basis Set: AUG-CC-PVTZ
    Blend: AUG-CC-PVTZ
  Basis Set: (AUG-CC-PVTZ AUX)
    Blend: AUG-CC-PVTZ-JKFIT + DEF2-UNIVERSAL-JKFIT

    Orbital Energies [Eh]
    ---------------------

    Doubly Occupied:

       1A    -20.564793     2A     -1.355794     3A     -0.726278
       4A     -0.581889     5A     -0.510306

  @DF-RHF Final Energy:   -76.06103451406878

   => Energetics <=

    Nuclear Repulsion Energy =              9.2611108166956146
    One-Electron Energy =                -123.1661699483445176
    Two-Electron Energy =                  37.8440246175801178
    Total Energy =                        -76.0610345140687798
 Dipole X            :        -36.5972809           37.1779502            0.5806694
 Dipole Y            :         24.9086078          -24.8267834            0.0818244
 Dipole Z            :        -32.8662905           33.3536340            0.4873435
 Magnitude           :                                                    0.7624801
  Basis Set: (AUG-CC-PVTZ AUX)
    Blend: AUG-CC-PVTZ-RI + DEF2-QZVPP-RI
	 Reference Energy          =     -76.0610345140687798 [Eh]
	 Singles Energy            =      -0.0000000000000000 [Eh]
	 Same-Spin Energy          =      -0.0682082520928168 [Eh]
	 Opposite-Spin Energy      =      -0.2149483976561984 [Eh]
	 Correlation Energy        =      -0.2831566497490152 [Eh]
	 Total Energy              =     -76.3441911638177970 [Eh]

	 ================> DF-SCS-MP2 Energies <==================
	-----------------------------------------------------------
	 SCS Same-Spin Scale       =       0.3333333333333333 [-]
	 SCS Opposite-Spin Scale   =       1.2000000000000000 [-]
	 SCS Same-Spin Energy      =      -0.0227360840309389 [Eh]
	 SCS Opposite-Spin Energy  =      -0.2579380771874380 [Eh]
	 SCS Correlation Energy    =      -0.2806741612183770 [Eh]
	 SCS Total Energy          =     -76.3417086752871512 [Eh]
	-----------------------------------------------------------

*** Psi4 exiting successfully. Buy a developer a beer!
