                               Psi4 1.9 release

  ==> Input File <==

--------------------------------------------------------------------------
MEMORY 60 GB

molecule dimer {
0 1
Gh(K)      0.000000     0.000000     0.000000
Gh(O)     -0.884192     1.970622     1.647785
Gh(H)     -1.347598     2.832663     1.776305
Gh(H)     -0.910421     1.461029     2.511078
Gh(O)      1.732463    -1.946278     1.003026
Gh(H)      2.428694    -1.633923     0.375693
Gh(H)      1.250224    -2.688478     0.576902
O          0.339742    -2.049983    -1.517259
H          1.255807    -1.951855    -1.805876
H         -0.043822    -2.742772    -2.064470
Gh(O)     -2.568170    -0.255539     0.443239
Gh(H)     -3.487635    -0.547337     0.522851
Gh(H)     -2.411796     0.586593     0.985116
Gh(O)     -1.514408     0.603461    -2.260019
Gh(H)     -1.635852     0.242743    -3.138612
Gh(H)     -1.484450     1.566521    -2.316759
Gh(O)     -0.662160    -1.145485     2.641416
Gh(H)      0.095372    -1.722406     2.715579
Gh(H)     -1.429032    -1.705154     2.649019
Gh(O)      2.172705     1.960527     0.162383
Gh(H)      3.008128     2.179055    -0.195332
Gh(H)      1.946524     2.806233     0.714730

units ang
no_reorient
no_com
symmetry c1
}

set {
basis        aug-cc-pVTZ
scf_type     df
}

energy("mp2")
--------------------------------------------------------------------------

    Molecular point group: c1

    Geometry (in Angstrom), charge = 0, multiplicity = 1:

       Center              X                  Y                   Z               Mass
    ------------   -----------------  -----------------  -----------------  -----------------
      Gh(K)           0.000000000000     0.000000000000     0.000000000000    38.963706486400
      Gh(O)          -0.884192000000     1.970622000000     1.647785000000    15.994914619570
      Gh(H)          -1.347598000000     2.832663000000     1.776305000000     1.007825032230
      Gh(H)          -0.910421000000     1.461029000000     2.511078000000     1.007825032230
      Gh(O)           1.732463000000    -1.946278000000     1.003026000000    15.994914619570
      Gh(H)           2.428694000000    -1.633923000000     0.375693000000     1.007825032230
      Gh(H)           1.250224000000    -2.688478000000     0.576902000000     1.007825032230
         O            0.339742000000    -2.049983000000    -1.517259000000    15.994914619570
         H            1.255807000000    -1.951855000000    -1.805876000000     1.007825032230
         H           -0.043822000000    -2.742772000000    -2.064470000000     1.007825032230
      Gh(O)          -2.568170000000    -0.255539000000     0.443239000000    15.994914619570
      Gh(H)          -3.487635000000    -0.547337000000     0.522851000000     1.007825032230
      Gh(H)          -2.411796000000     0.586593000000     0.985116000000     1.007825032230
      Gh(O)          -1.514408000000     0.603461000000    -2.260019000000    15.994914619570
      Gh(H)          -1.635852000000     0.242743000000    -3.138612000000     1.007825032230
      Gh(H)          -1.484450000000     1.566521000000    -2.316759000000     1.007825032230
      Gh(O)          -0.662160000000    -1.145485000000     2.641416000000    15.994914619570
      Gh(H)           0.095372000000    -1.722406000000     2.715579000000     1.007825032230
      Gh(H)          -1.429032000000    -1.705154000000     2.649019000000     1.007825032230
      Gh(O)           2.172705000000     1.960527000000     0.162383000000    15.994914619570
      Gh(H)           3.008128000000     2.179055000000    -0.195332000000     1.007825032230
      Gh(H)           1.946524000000     2.806233000000     0.714730000000     1.007825032230

  Charge       = 0
  Multiplicity = 1
  Basis Set: AUG-CC-PVTZ
    Blend: AUG-CC-PVTZ
  Basis Set: (AUG-CC-PVTZ AUX)
    Blend: AUG-CC-PVTZ-JKFIT + DEF2-UNIVERSAL-JKFIT

    Orbital Energies [Eh]
    ---------------------

    Doubly Occupied:

       1A    -20.567345     2A     -1.348708     3A     -0.717473
       4A     -0.579988     5A     -0.509211

  @DF-RHF Final Energy:   -76.06022218318388

   => Energetics <=

    Nuclear Repulsion Energy =              9.1258933881553439
    One-Electron Energy =                -122.9267775603801169
    Two-Electron Energy =                  37.7406619890408876
    Total Energy =                        -76.0602221831838818
 Dipole X            :         -7.0723245            7.4264744            0.3541498
 Dipole Y            :         39.4665658          -39.8628107           -0.3962450
 Dipole Z            :         29.6949719          -30.2515257           -0.5565538
 Magnitude           :                                                    0.7695352
  Basis Set: (AUG-CC-PVTZ AUX)
    Blend: AUG-CC-PVTZ-RI + DEF2-QZVPP-RI
	 Reference Energy          =     -76.0602221831838818 [Eh]
	 Singles Energy            =      -0.0000000000000000 [Eh]
	 Same-Spin Energy          =      -0.0685090995227482 [Eh]
	 Opposite-Spin Energy      =      -0.2161748661291500 [Eh]
	 Correlation Energy        =      -0.2846839656518982 [Eh]
	 Total Energy              =     -76.3449061488357756 [Eh]

	 ================> DF-SCS-MP2 Energies <==================
	-----------------------------------------------------------
	 SCS Same-Spin Scale       =       0.3333333333333333 [-]
	 SCS Opposite-Spin Scale   =       1.2000000000000000 [-]
	 SCS Same-Spin Energy      =      -0.0228363665075827 [Eh]
	 SCS Opposite-Spin Energy  =      -0.2594098393549800 [Eh]
	 SCS Correlation Energy    =      -0.2822462058625628 [Eh]
	 SCS Total Energy          =     -76.3424683890464451 [Eh]
	-----------------------------------------------------------

*** Psi4 exiting successfully. Buy a developer a beer!
