                               Psi4 1.9 release

  ==> Input File <==

--------------------------------------------------------------------------
MEMORY 60 GB

molecule dimer {
1 1
K          0.000000     0.000000     0.000000
O         -0.031652     2.144978    -1.608259
H          0.277586     1.427590    -2.192862
H         -1.017221     2.264700    -1.738852
O         -0.788931    -0.740656     2.321277
H         -1.501247    -0.231443     2.705598
H         -0.076222    -0.711789     2.986251
O         -1.974576    -1.628499    -1.490287
H         -2.671600    -1.230877    -0.969768
H         -2.022568    -2.568609    -1.304728
O         -0.874063     1.982276     2.140067
H         -1.510546     2.328273     1.516840
H         -1.133805     2.374863     2.943937
O          2.540164     1.201918     0.024099
H          2.914567     1.138412     0.906595
H          2.914729     2.003474    -0.363718

units ang
no_reorient
no_com
symmetry c1
}

set {
basis        aug-cc-pVTZ
scf_type     df
}

energy("mp2")
--------------------------------------------------------------------------

    Molecular point group: c1

    Geometry (in Angstrom), charge = 1, multiplicity = 1:

       Center              X                  Y                   Z               Mass
    ------------   -----------------  -----------------  -----------------  -----------------
         K            0.000000000000     0.000000000000     0.000000000000    38.963706486400
         O           -0.031652000000     2.144978000000    -1.608259000000    15.994914619570
         H            0.277586000000     1.427590000000    -2.192862000000     1.007825032230
         H           -1.017221000000     2.264700000000    -1.738852000000     1.007825032230
         O           -0.788931000000    -0.740656000000     2.321277000000    15.994914619570
         H           -1.501247000000    -0.231443000000     2.705598000000     1.007825032230
         H           -0.076222000000    -0.711789000000     2.986251000000     1.007825032230
         O           -1.974576000000    -1.628499000000    -1.490287000000    15.994914619570
         H           -2.671600000000    -1.230877000000    -0.969768000000     1.007825032230
         H           -2.022568000000    -2.568609000000    -1.304728000000     1.007825032230
         O           -0.874063000000     1.982276000000     2.140067000000    15.994914619570
         H           -1.510546000000     2.328273000000     1.516840000000     1.007825032230
         H           -1.133805000000     2.374863000000     2.943937000000     1.007825032230
         O            2.540164000000     1.201918000000     0.024099000000    15.994914619570
         H            2.914567000000     1.138412000000     0.906595000000     1.007825032230
         H            2.914729000000     2.003474000000    -0.363718000000     1.007825032230

  Charge       = 1
  Multiplicity = 1
  Basis Set: AUG-CC-PVTZ
    Blend: AUG-CC-PVTZ
  Basis Set: (AUG-CC-PVTZ AUX)
    Blend: AUG-CC-PVTZ-JKFIT + DEF2-UNIVERSAL-JKFIT

    Orbital Energies [Eh]
    ---------------------

    Doubly Occupied:

       1A   -133.620589     2A    -20.721747     3A    -20.712980
       4A    -20.712910     5A    -20.710275     6A    -20.703385
       7A    -14.578423     8A    -11.608362     9A    -11.608231
      10A    -11.608119    11A     -1.841475    12A     -1.514890
      13A     -1.500264    14A     -1.497788    15A     -1.491786
      16A     -1.487753    17A     -1.053035    18A     -1.051963
      19A     -1.048342    20A     -0.873977    21A     -0.865999
      22A     -0.862888    23A     -0.862836    24A     -0.853943
      25A     -0.751293    26A     -0.737902    27A     -0.733647
      28A     -0.729636    29A     -0.722409    30A     -0.676532
      31A     -0.663980    32A     -0.659783    33A     -0.648703
      34A     -0.644419

  @DF-RHF Final Energy:  -979.37856990251112

   => Energetics <=

    Nuclear Repulsion Energy =            347.8368382472816620
    One-Electron Energy =               -2033.7102815010091490
    Two-Electron Energy =                 706.4948733512164836
    Total Energy =                       -979.3785699025111171
 Dipole X            :         23.2483862          -24.2995933           -1.0512071
 Dipole Y            :        -56.7152618           57.5888934            0.8736317
 Dipole Z            :        -28.1632261           29.4503782            1.2871522
 Magnitude           :                                                    1.8775061
  Basis Set: (AUG-CC-PVTZ AUX)
    Blend: AUG-CC-PVTZ-RI + DEF2-QZVPP-RI
	 Reference Energy          =    -979.3785699025111171 [Eh]
	 Singles Energy            =      -0.0000000000000000 [Eh]
	 Same-Spin Energy          =      -0.3852107764253686 [Eh]
	 Opposite-Spin Energy      =      -1.1728368208220805 [Eh]
	 Correlation Energy        =      -1.5580475972474490 [Eh]
	 Total Energy              =    -980.9366174997585404 [Eh]

	 ================> DF-SCS-MP2 Energies <==================
	-----------------------------------------------------------
	 SCS Same-Spin Scale       =       0.3333333333333333 [-]
	 SCS Opposite-Spin Scale   =       1.2000000000000000 [-]
	 SCS Same-Spin Energy      =      -0.1284035921417895 [Eh]
	 SCS Opposite-Spin Energy  =      -1.4074041849864967 [Eh]
	 SCS Correlation Energy    =      -1.5358077771282861 [Eh]
	 SCS Total Energy          =    -980.9143776796394150 [Eh]
	-----------------------------------------------------------

*** Psi4 exiting successfully. Buy a developer a beer!
