                               Psi4 1.9 release

  ==> Input File <==

--------------------------------------------------------------------------
MEMORY 60 GB

molecule dimer {
0 1
Gh(K)      0.000000     0.000000     0.000000
Gh(O)      2.529918    -1.431771    -0.209555
Gh(H)      3.170446    -0.706615    -0.323319
Gh(H)      2.749458    -2.010204     0.519739
Gh(O)      1.813586     1.029246     2.230508
Gh(H)      1.419877     1.724132     2.765815
Gh(H)      2.307126     1.578543     1.545356
O         -1.368704    -0.907145    -2.217904
H         -1.940339    -1.698694    -2.000603
H         -1.925491    -0.236454    -2.630828
Gh(O)      1.146945     2.118489    -1.194320
Gh(H)      1.871621     1.704285    -1.765925
Gh(H)      1.593857     2.809076    -0.560670
Gh(O)     -1.511741    -0.504052     2.510190
Gh(H)     -2.151551    -1.120327     2.142254
Gh(H)     -0.821208    -1.100007     2.922543

units ang
no_reorient
no_com
symmetry c1
}

set {
basis        aug-cc-pVTZ
scf_type     df
}

energy("mp2")
--------------------------------------------------------------------------

    Molecular point group: c1

    Geometry (in Angstrom), charge = 0, multiplicity = 1:

       Center              X                  Y                   Z               Mass
    ------------   -----------------  -----------------  -----------------  -----------------
      Gh(K)           0.000000000000     0.000000000000     0.000000000000    38.963706486400
      Gh(O)           2.529918000000    -1.431771000000    -0.209555000000    15.994914619570
      Gh(H)           3.170446000000    -0.706615000000    -0.323319000000     1.007825032230
      Gh(H)           2.749458000000    -2.010204000000     0.519739000000     1.007825032230
      Gh(O)           1.813586000000     1.029246000000     2.230508000000    15.994914619570
      Gh(H)           1.419877000000     1.724132000000     2.765815000000     1.007825032230
      Gh(H)           2.307126000000     1.578543000000     1.545356000000     1.007825032230
         O           -1.368704000000    -0.907145000000    -2.217904000000    15.994914619570
         H           -1.940339000000    -1.698694000000    -2.000603000000     1.007825032230
         H           -1.925491000000    -0.236454000000    -2.630828000000     1.007825032230
      Gh(O)           1.146945000000     2.118489000000    -1.194320000000    15.994914619570
      Gh(H)           1.871621000000     1.704285000000    -1.765925000000     1.007825032230
      Gh(H)           1.593857000000     2.809076000000    -0.560670000000     1.007825032230
      Gh(O)          -1.511741000000    -0.504052000000     2.510190000000    15.994914619570
      Gh(H)          -2.151551000000    -1.120327000000     2.142254000000     1.007825032230
      Gh(H)          -0.821208000000    -1.100007000000     2.922543000000     1.007825032230

  Charge       = 0
  Multiplicity = 1
  Basis Set: AUG-CC-PVTZ
    Blend: AUG-CC-PVTZ
  Basis Set: (AUG-CC-PVTZ AUX)
    Blend: AUG-CC-PVTZ-JKFIT + DEF2-UNIVERSAL-JKFIT

    Orbital Energies [Eh]
    ---------------------

    Doubly Occupied:

       1A    -20.569630     2A     -1.338681     3A     -0.711038
       4A     -0.572761     5A     -0.507171

  @DF-RHF Final Energy:   -76.05700721533509

   => Energetics <=

    Nuclear Repulsion Energy =              8.9536469153855816
    One-Electron Energy =                -122.6227441654151704
    Two-Electron Energy =                  37.6120900346945035
    Total Energy =                        -76.0570072153350907
 Dipole X            :         27.2498434          -27.9971656           -0.7473222
 Dipole Y            :         17.2958536          -17.3709446           -0.0750909
 Dipole Z            :         42.1501397          -42.2819852           -0.1318455
 Magnitude           :                                                    0.7625696
  Basis Set: (AUG-CC-PVTZ AUX)
    Blend: AUG-CC-PVTZ-RI + DEF2-QZVPP-RI
	 Reference Energy          =     -76.0570072153350907 [Eh]
	 Singles Energy            =      -0.0000000000000000 [Eh]
	 Same-Spin Energy          =      -0.0687504098516632 [Eh]
	 Opposite-Spin Energy      =      -0.2166258343454889 [Eh]
	 Correlation Energy        =      -0.2853762441971521 [Eh]
	 Total Energy              =     -76.3423834595322433 [Eh]

	 ================> DF-SCS-MP2 Energies <==================
	-----------------------------------------------------------
	 SCS Same-Spin Scale       =       0.3333333333333333 [-]
	 SCS Opposite-Spin Scale   =       1.2000000000000000 [-]
	 SCS Same-Spin Energy      =      -0.0229168032838877 [Eh]
	 SCS Opposite-Spin Energy  =      -0.2599510012145867 [Eh]
	 SCS Correlation Energy    =      -0.2828678044984744 [Eh]
	 SCS Total Energy          =     -76.3398750198335705 [Eh]
	-----------------------------------------------------------

*** Psi4 exiting successfully. Buy a developer a beer!
