                               Psi4 1.9 release

  ==> Input File <==

--------------------------------------------------------------------------
MEMORY 60 GB

molecule dimer {
0 1
Gh(K)      0.000000     0.000000     0.000000
Gh(O)      1.222057     2.629778    -0.942752
Gh(H)      2.033084     2.278229    -1.374565
Gh(H)      1.530903     3.044932    -0.145782
Gh(O)      1.418192     0.063385     2.461153
Gh(H)      1.334880    -0.883214     2.511753
Gh(H)      2.380928     0.237406     2.503441
Gh(O)     -1.342006    -0.254400    -2.039800
Gh(H)     -1.599213     0.440439    -2.740621
Gh(H)     -1.348686    -1.184654    -2.470101
Gh(O)     -2.518656    -0.508365     1.268620
Gh(H)     -3.306194    -0.896204     0.868423
Gh(H)     -2.210245    -1.248498     1.818523
Gh(O)     -0.399968    -2.741441     0.315356
Gh(H)     -0.976791    -3.128720     0.992102
Gh(H)      0.291629    -3.407348     0.234052
O          2.429193    -0.853860    -1.110769
H          2.124910    -1.390245    -1.851640
H          2.833848    -0.050918    -1.580884

units ang
no_reorient
no_com
symmetry c1
}

set {
basis        aug-cc-pVTZ
scf_type     df
}

energy("mp2")
--------------------------------------------------------------------------

    Molecular point group: c1

    Geometry (in Angstrom), charge = 0, multiplicity = 1:

       Center              X                  Y                   Z               Mass
    ------------   -----------------  -----------------  -----------------  -----------------
      Gh(K)           0.000000000000     0.000000000000     0.000000000000    38.963706486400
      Gh(O)           1.222057000000     2.629778000000    -0.942752000000    15.994914619570
      Gh(H)           2.033084000000     2.278229000000    -1.374565000000     1.007825032230
      Gh(H)           1.530903000000     3.044932000000    -0.145782000000     1.007825032230
      Gh(O)           1.418192000000     0.063385000000     2.461153000000    15.994914619570
      Gh(H)           1.334880000000    -0.883214000000     2.511753000000     1.007825032230
      Gh(H)           2.380928000000     0.237406000000     2.503441000000     1.007825032230
      Gh(O)          -1.342006000000    -0.254400000000    -2.039800000000    15.994914619570
      Gh(H)          -1.599213000000     0.440439000000    -2.740621000000     1.007825032230
      Gh(H)          -1.348686000000    -1.184654000000    -2.470101000000     1.007825032230
      Gh(O)          -2.518656000000    -0.508365000000     1.268620000000    15.994914619570
      Gh(H)          -3.306194000000    -0.896204000000     0.868423000000     1.007825032230
      Gh(H)          -2.210245000000    -1.248498000000     1.818523000000     1.007825032230
      Gh(O)          -0.399968000000    -2.741441000000     0.315356000000    15.994914619570
      Gh(H)          -0.976791000000    -3.128720000000     0.992102000000     1.007825032230
      Gh(H)           0.291629000000    -3.407348000000     0.234052000000     1.007825032230
         O            2.429193000000    -0.853860000000    -1.110769000000    15.994914619570
         H            2.124910000000    -1.390245000000    -1.851640000000     1.007825032230
         H            2.833848000000    -0.050918000000    -1.580884000000     1.007825032230

  Charge       = 0
  Multiplicity = 1
  Basis Set: AUG-CC-PVTZ
    Blend: AUG-CC-PVTZ
  Basis Set: (AUG-CC-PVTZ AUX)
    Blend: AUG-CC-PVTZ-JKFIT + DEF2-UNIVERSAL-JKFIT

    Orbital Energies [Eh]
    ---------------------

    Doubly Occupied:

       1A    -20.573517     2A     -1.339754     3A     -0.696408
       4A     -0.583022     5A     -0.508581

  @DF-RHF Final Energy:   -76.05552967285175

   => Energetics <=

    Nuclear Repulsion Energy =              8.9079141728675690
    One-Electron Energy =                -122.5243216861274647
    Two-Electron Energy =                  37.5608778404081534
    Total Energy =                        -76.0555296728517476
 Dipole X            :        -46.0336824           46.0947703            0.0610880
 Dipole Y            :         15.7963014          -15.6318958            0.1644057
 Dipole Z            :         22.4927504          -23.2789239           -0.7861735
 Magnitude           :                                                    0.8054997
  Basis Set: (AUG-CC-PVTZ AUX)
    Blend: AUG-CC-PVTZ-RI + DEF2-QZVPP-RI
	 Reference Energy          =     -76.0555296728517476 [Eh]
	 Singles Energy            =      -0.0000000000000000 [Eh]
	 Same-Spin Energy          =      -0.0689987861437609 [Eh]
	 Opposite-Spin Energy      =      -0.2175558722381947 [Eh]
	 Correlation Energy        =      -0.2865546583819557 [Eh]
	 Total Energy              =     -76.3420843312337070 [Eh]

	 ================> DF-SCS-MP2 Energies <==================
	-----------------------------------------------------------
	 SCS Same-Spin Scale       =       0.3333333333333333 [-]
	 SCS Opposite-Spin Scale   =       1.2000000000000000 [-]
	 SCS Same-Spin Energy      =      -0.0229995953812536 [Eh]
	 SCS Opposite-Spin Energy  =      -0.2610670466858336 [Eh]
	 SCS Correlation Energy    =      -0.2840666420670873 [Eh]
	 SCS Total Energy          =     -76.3395963149188361 [Eh]
	-----------------------------------------------------------

*** Psi4 exiting successfully. Buy a developer a beer!
