                               Psi4 1.9 release

  ==> Input File <==

--------------------------------------------------------------------------
MEMORY 60 GB

molecule dimer {
0 1
Gh(K)      0.000000     0.000000     0.000000
O         -1.202188     2.642841     0.692677
H         -0.359877     2.846537     0.288544
H         -1.204085     2.921992     1.633837
Gh(O)     -1.785275    -1.619405     1.542860
Gh(H)     -1.608427    -2.541342     1.315844
Gh(H)     -2.705446    -1.468932     1.288631
Gh(O)      0.144826     0.555459     2.652150
Gh(H)     -0.007468     1.382754     3.068522
Gh(H)      0.885053     0.138197     3.140295
Gh(O)      0.561667     0.361770    -2.784131
Gh(H)      0.458919    -0.179426    -3.508356
Gh(H)      0.977542     1.097592    -3.183885
Gh(O)      1.915812    -1.620111     0.708210
Gh(H)      2.736568    -1.603689     1.185820
Gh(H)      2.168479    -1.743309    -0.203061
Gh(O)      1.244176     2.226543    -0.413552
Gh(H)      1.113277     2.980785    -0.948090
Gh(H)      2.029386     2.478591     0.106543

units ang
no_reorient
no_com
symmetry c1
}

set {
basis        aug-cc-pVTZ
scf_type     df
}

energy("mp2")
--------------------------------------------------------------------------

    Molecular point group: c1

    Geometry (in Angstrom), charge = 0, multiplicity = 1:

       Center              X                  Y                   Z               Mass
    ------------   -----------------  -----------------  -----------------  -----------------
      Gh(K)           0.000000000000     0.000000000000     0.000000000000    38.963706486400
         O           -1.202188000000     2.642841000000     0.692677000000    15.994914619570
         H           -0.359877000000     2.846537000000     0.288544000000     1.007825032230
         H           -1.204085000000     2.921992000000     1.633837000000     1.007825032230
      Gh(O)          -1.785275000000    -1.619405000000     1.542860000000    15.994914619570
      Gh(H)          -1.608427000000    -2.541342000000     1.315844000000     1.007825032230
      Gh(H)          -2.705446000000    -1.468932000000     1.288631000000     1.007825032230
      Gh(O)           0.144826000000     0.555459000000     2.652150000000    15.994914619570
      Gh(H)          -0.007468000000     1.382754000000     3.068522000000     1.007825032230
      Gh(H)           0.885053000000     0.138197000000     3.140295000000     1.007825032230
      Gh(O)           0.561667000000     0.361770000000    -2.784131000000    15.994914619570
      Gh(H)           0.458919000000    -0.179426000000    -3.508356000000     1.007825032230
      Gh(H)           0.977542000000     1.097592000000    -3.183885000000     1.007825032230
      Gh(O)           1.915812000000    -1.620111000000     0.708210000000    15.994914619570
      Gh(H)           2.736568000000    -1.603689000000     1.185820000000     1.007825032230
      Gh(H)           2.168479000000    -1.743309000000    -0.203061000000     1.007825032230
      Gh(O)           1.244176000000     2.226543000000    -0.413552000000    15.994914619570
      Gh(H)           1.113277000000     2.980785000000    -0.948090000000     1.007825032230
      Gh(H)           2.029386000000     2.478591000000     0.106543000000     1.007825032230

  Charge       = 0
  Multiplicity = 1
  Basis Set: AUG-CC-PVTZ
    Blend: AUG-CC-PVTZ
  Basis Set: (AUG-CC-PVTZ AUX)
    Blend: AUG-CC-PVTZ-JKFIT + DEF2-UNIVERSAL-JKFIT

    Orbital Energies [Eh]
    ---------------------

    Doubly Occupied:

       1A    -20.566379     2A     -1.343729     3A     -0.721882
       4A     -0.571459     5A     -0.507609

  @DF-RHF Final Energy:   -76.05880554999932

   => Energetics <=

    Nuclear Repulsion Energy =              9.0725679187154391
    One-Electron Energy =                -122.8406287967595603
    Two-Electron Energy =                  37.7092553280448115
    Total Energy =                        -76.0588055499993061
 Dipole X            :         21.6965688          -21.1299084            0.5666604
 Dipole Y            :        -50.5303366           50.8549054            0.3245689
 Dipole Z            :        -13.7467731           14.1045322            0.3577591
 Magnitude           :                                                    0.7446076
  Basis Set: (AUG-CC-PVTZ AUX)
    Blend: AUG-CC-PVTZ-RI + DEF2-QZVPP-RI
	 Reference Energy          =     -76.0588055499993203 [Eh]
	 Singles Energy            =      -0.0000000000000000 [Eh]
	 Same-Spin Energy          =      -0.0685549537865976 [Eh]
	 Opposite-Spin Energy      =      -0.2165368550431923 [Eh]
	 Correlation Energy        =      -0.2850918088297899 [Eh]
	 Total Energy              =     -76.3438973588291105 [Eh]

	 ================> DF-SCS-MP2 Energies <==================
	-----------------------------------------------------------
	 SCS Same-Spin Scale       =       0.3333333333333333 [-]
	 SCS Opposite-Spin Scale   =       1.2000000000000000 [-]
	 SCS Same-Spin Energy      =      -0.0228516512621992 [Eh]
	 SCS Opposite-Spin Energy  =      -0.2598442260518307 [Eh]
	 SCS Correlation Energy    =      -0.2826958773140299 [Eh]
	 SCS Total Energy          =     -76.3415014273133465 [Eh]
	-----------------------------------------------------------

*** Psi4 exiting successfully. Buy a developer a beer!
