                               Psi4 1.9 release

  ==> Input File <==

--------------------------------------------------------------------------
MEMORY 60 GB

molecule dimer {
1 1
K          0.000000     0.000000     0.000000
Gh(O)      0.577144     2.541320     0.000600
Gh(H)      1.213804     2.744613     0.747683
Gh(H)     -0.094201     3.104652     0.284161
Gh(O)     -2.116734    -0.221233    -1.605170
Gh(H)     -2.311595     0.706106    -1.826664
Gh(H)     -1.611838    -0.483958    -2.409399
Gh(O)     -0.049892    -1.890371     2.061110
Gh(H)      0.247910    -2.821836     2.137168
Gh(H)     -0.958496    -1.910780     2.339261
Gh(O)      1.916245     0.015119    -1.956164
Gh(H)      2.821662     0.235522    -1.746799
Gh(H)      1.929350    -0.944808    -2.052363

units ang
no_reorient
no_com
symmetry c1
}

set {
basis        aug-cc-pVTZ
scf_type     df
}

energy("mp2")
--------------------------------------------------------------------------

    Molecular point group: c1

    Geometry (in Angstrom), charge = 1, multiplicity = 1:

       Center              X                  Y                   Z               Mass
    ------------   -----------------  -----------------  -----------------  -----------------
         K            0.000000000000     0.000000000000     0.000000000000    38.963706486400
      Gh(O)           0.577144000000     2.541320000000     0.000600000000    15.994914619570
      Gh(H)           1.213804000000     2.744613000000     0.747683000000     1.007825032230
      Gh(H)          -0.094201000000     3.104652000000     0.284161000000     1.007825032230
      Gh(O)          -2.116734000000    -0.221233000000    -1.605170000000    15.994914619570
      Gh(H)          -2.311595000000     0.706106000000    -1.826664000000     1.007825032230
      Gh(H)          -1.611838000000    -0.483958000000    -2.409399000000     1.007825032230
      Gh(O)          -0.049892000000    -1.890371000000     2.061110000000    15.994914619570
      Gh(H)           0.247910000000    -2.821836000000     2.137168000000     1.007825032230
      Gh(H)          -0.958496000000    -1.910780000000     2.339261000000     1.007825032230
      Gh(O)           1.916245000000     0.015119000000    -1.956164000000    15.994914619570
      Gh(H)           2.821662000000     0.235522000000    -1.746799000000     1.007825032230
      Gh(H)           1.929350000000    -0.944808000000    -2.052363000000     1.007825032230

  Charge       = 1
  Multiplicity = 1
  Basis Set: AUG-CC-PVTZ
    Blend: AUG-CC-PVTZ
  Basis Set: (AUG-CC-PVTZ AUX)
    Blend: AUG-CC-PVTZ-JKFIT + DEF2-UNIVERSAL-JKFIT

    Orbital Energies [Eh]
    ---------------------

    Doubly Occupied:

       1A   -133.752692     2A    -14.708348     3A    -11.738409
       4A    -11.738409     5A    -11.738407     6A     -1.963952
       7A     -1.170644     8A     -1.170636     9A     -1.170630

  @DF-RHF Final Energy:  -599.01751529346734

   => Energetics <=

    Nuclear Repulsion Energy =              0.0000000000000000
    One-Electron Energy =                -819.7307796584130983
    Two-Electron Energy =                 220.7132643649457577
    Total Energy =                       -599.0175152934673406
 Dipole X            :          0.0000218            0.0000000            0.0000218
 Dipole Y            :          0.0001012            0.0000000            0.0001012
 Dipole Z            :         -0.0001473            0.0000000           -0.0001473
 Magnitude           :                                                    0.0001801
  Basis Set: (AUG-CC-PVTZ AUX)
    Blend: AUG-CC-PVTZ-RI + DEF2-QZVPP-RI
	 Reference Energy          =    -599.0175152934673406 [Eh]
	 Singles Energy            =      -0.0000000000000000 [Eh]
	 Same-Spin Energy          =      -0.0356205598474385 [Eh]
	 Opposite-Spin Energy      =      -0.0860651532281650 [Eh]
	 Correlation Energy        =      -0.1216857130756036 [Eh]
	 Total Energy              =    -599.1392010065429758 [Eh]

	 ================> DF-SCS-MP2 Energies <==================
	-----------------------------------------------------------
	 SCS Same-Spin Scale       =       0.3333333333333333 [-]
	 SCS Opposite-Spin Scale   =       1.2000000000000000 [-]
	 SCS Same-Spin Energy      =      -0.0118735199491462 [Eh]
	 SCS Opposite-Spin Energy  =      -0.1032781838737981 [Eh]
	 SCS Correlation Energy    =      -0.1151517038229442 [Eh]
	 SCS Total Energy          =    -599.1326669972902437 [Eh]
	-----------------------------------------------------------

*** Psi4 exiting successfully. Buy a developer a beer!
