                               Psi4 1.9 release

  ==> Input File <==

--------------------------------------------------------------------------
MEMORY 60 GB

molecule dimer {
1 1
K      0.000000     0.000000     0.000000
--
0 1
O     -2.324873    -1.404209    -0.719175
H     -2.508892    -2.382152    -0.757465
H     -3.103411    -1.007604    -0.391341
O      0.928383    -2.282472     1.098452
H      1.810797    -2.654173     1.272065
H      0.418300    -2.312404     1.908116
O      1.667709     2.265231     0.418502
H      1.289449     2.964199     0.969759
H      1.716548     2.696389    -0.446786

units ang
no_reorient
no_com
symmetry c1
}

set {
basis        aug-cc-pVTZ
scf_type     df
}

energy("mp2", bsse_type="cp")
--------------------------------------------------------------------------

                               Psi4 1.9 release
    Molecular point group: c1
  Charge       = 0
  Multiplicity = 1
  Basis Set: AUG-CC-PVTZ
    Blend: AUG-CC-PVTZ
  Basis Set: (AUG-CC-PVTZ AUX)
    Blend: AUG-CC-PVTZ-JKFIT + DEF2-UNIVERSAL-JKFIT
  @DF-RHF Final Energy:  -228.17418304277396
    Total Energy =                       -228.1741830427739615
 Dipole X            :         -3.9859499            3.3874153           -0.5985346
 Dipole Y            :         26.6878178          -26.5834294            0.1043884
 Dipole Z            :        -16.2594976           16.8876887            0.6281911
 Magnitude           :                                                    0.8739363
  Basis Set: (AUG-CC-PVTZ AUX)
    Blend: AUG-CC-PVTZ-RI + DEF2-QZVPP-RI
	 Reference Energy          =    -228.1741830427739615 [Eh]
	 Singles Energy            =      -0.0000000000000000 [Eh]
	 Same-Spin Energy          =      -0.2057877369970905 [Eh]
	 Opposite-Spin Energy      =      -0.6479068059868143 [Eh]
	 Correlation Energy        =      -0.8536945429839048 [Eh]
	 Total Energy              =    -229.0278775857578637 [Eh]
	 SCS Total Energy          =    -229.0202671222905053 [Eh]
                               Psi4 1.9 release
    Molecular point group: c1
  Multiplicity = 1
  Basis Set: AUG-CC-PVTZ
    Blend: AUG-CC-PVTZ
  Basis Set: (AUG-CC-PVTZ AUX)
    Blend: AUG-CC-PVTZ-JKFIT + DEF2-UNIVERSAL-JKFIT
  @DF-RHF Final Energy:  -599.01751245975208
    Total Energy =                       -599.0175124597519698
  Basis Set: (AUG-CC-PVTZ AUX)
	 Singles Energy            =      -0.0000000000000000 [Eh]
	 Same-Spin Energy          =      -0.0322902067888087 [Eh]
	 Opposite-Spin Energy      =      -0.0771706571201039 [Eh]
	 Correlation Energy        =      -0.1094608639089126 [Eh]
	 Total Energy              =    -599.1269733236609909 [Eh]
	 SCS Total Energy          =    -599.1208806505591156 [Eh]
                               Psi4 1.9 release
    Molecular point group: c1

    Geometry (in Bohr), charge = 1, multiplicity = 1:

       Center              X                  Y                   Z               Mass
    ------------   -----------------  -----------------  -----------------  -----------------
         K            0.000000000000     0.000000000000     0.000000000000    38.963706486400
         O           -4.393373246472    -2.653570432903    -1.359043786276    15.994914619570
         H           -4.741118758352    -4.501614869212    -1.431401399620     1.007825032230
         H           -5.864596844733    -1.904095602916    -0.739527311663     1.007825032230
         O            1.754389609531    -4.313246969026     2.075773441961    15.994914619570
         H            3.421910398801    -5.015660059585     2.403854463781     1.007825032230
         H            0.790472438279    -4.369810251413     3.605816655604     1.007825032230
         O            3.151513266961     4.280666200897     0.790854162956    15.994914619570
         H            2.436705462745     5.601524291356     1.832578917698     1.007825032230
         H            3.243805601202     5.095436737697    -0.844303176689     1.007825032230

  Charge       = 1
  Multiplicity = 1
  Basis Set: AUG-CC-PVTZ
    Blend: AUG-CC-PVTZ
  Basis Set: (AUG-CC-PVTZ AUX)
    Blend: AUG-CC-PVTZ-JKFIT + DEF2-UNIVERSAL-JKFIT

    Orbital Energies [Eh]
    ---------------------

    Doubly Occupied:

       1A   -133.654399     2A    -20.727155     3A    -20.725466
       4A    -20.722431     5A    -14.611451     6A    -11.641508
       7A    -11.641349     8A    -11.641221     9A     -1.871586
      10A     -1.509486    11A     -1.508952    12A     -1.507120
      13A     -1.082372    14A     -1.080092    15A     -1.077496
      16A     -0.881892    17A     -0.873026    18A     -0.865104
      19A     -0.751927    20A     -0.745845    21A     -0.743770
      22A     -0.672645    23A     -0.672301    24A     -0.668190

  @DF-RHF Final Energy:  -827.25580292899110

   => Energetics <=

    Nuclear Repulsion Energy =            165.8436442519473246
    One-Electron Energy =               -1462.4453246921420941
    Two-Electron Energy =                 469.3458775112036960
    Total Energy =                       -827.2558029289909882
 Dipole X            :         -3.9526226            3.3874153           -0.5652072
 Dipole Y            :         26.5008040          -26.5834294           -0.0826254
 Dipole Z            :        -16.1574981           16.8876887            0.7301906
 Magnitude           :                                                    0.9270731
  Basis Set: (AUG-CC-PVTZ AUX)
    Blend: AUG-CC-PVTZ-RI + DEF2-QZVPP-RI
	 Reference Energy          =    -827.2558029289911019 [Eh]
	 Singles Energy            =      -0.0000000000000000 [Eh]
	 Same-Spin Energy          =      -0.2399342119577339 [Eh]
	 Opposite-Spin Energy      =      -0.7247781413465599 [Eh]
	 Correlation Energy        =      -0.9647123533042938 [Eh]
	 Total Energy              =    -828.2205152822954233 [Eh]

	 ================> DF-SCS-MP2 Energies <==================
	-----------------------------------------------------------
	 SCS Same-Spin Scale       =       0.3333333333333333 [-]
	 SCS Opposite-Spin Scale   =       1.2000000000000000 [-]
	 SCS Same-Spin Energy      =      -0.0799780706525780 [Eh]
	 SCS Opposite-Spin Energy  =      -0.8697337696158719 [Eh]
	 SCS Correlation Energy    =      -0.9497118402684499 [Eh]
	 SCS Total Energy          =    -828.2055147692595938 [Eh]
	-----------------------------------------------------------

*** Psi4 exiting successfully. Buy a developer a beer!
