                               Psi4 1.9 release

  ==> Input File <==

--------------------------------------------------------------------------
MEMORY 60 GB

molecule dimer {
1 1
K      0.000000     0.000000     0.000000
--
0 1
O      1.573041     1.595164    -1.828830
H      1.782496     2.427484    -1.472982
H      2.404379     1.442044    -2.240169
O      2.542675    -0.726399     0.160104
H      2.495524    -0.827647    -0.784085
H      2.947300    -1.512593     0.461683
O     -0.696117    -1.387787     2.142827
H     -1.572201    -1.578739     1.777997
H     -0.721888    -1.146147     3.057868
O     -2.445245    -1.000611    -0.272942
H     -2.636754    -1.958729    -0.204424
H     -3.151468    -0.659976    -0.827128
O     -1.095844     1.180662    -2.400144
H     -0.169066     1.239994    -2.615175
H     -1.309802     0.269347    -2.619630

units ang
no_reorient
no_com
symmetry c1
}

set {
basis        aug-cc-pVTZ
scf_type     df
}

energy("mp2", bsse_type="cp")
--------------------------------------------------------------------------

                               Psi4 1.9 release
    Molecular point group: c1
  Charge       = 0
  Multiplicity = 1
  Basis Set: AUG-CC-PVTZ
    Blend: AUG-CC-PVTZ
  Basis Set: (AUG-CC-PVTZ AUX)
    Blend: AUG-CC-PVTZ-JKFIT + DEF2-UNIVERSAL-JKFIT
  @DF-RHF Final Energy:  -380.29279465267319
    Total Energy =                       -380.2927946526731944
 Dipole X            :          2.0280580           -1.7071786            0.3208795
 Dipole Y            :          8.5616443           -9.4802457           -0.9186014
 Dipole Z            :         42.9469133          -43.5731633           -0.6262500
 Magnitude           :                                                    1.1571436
  Basis Set: (AUG-CC-PVTZ AUX)
    Blend: AUG-CC-PVTZ-RI + DEF2-QZVPP-RI
	 Reference Energy          =    -380.2927946526731944 [Eh]
	 Singles Energy            =      -0.0000000000000000 [Eh]
	 Same-Spin Energy          =      -0.3452668465960279 [Eh]
	 Opposite-Spin Energy      =      -1.0810665716692089 [Eh]
	 Correlation Energy        =      -1.4263334182652367 [Eh]
	 Total Energy              =    -381.7191280709384387 [Eh]
	 SCS Total Energy          =    -381.7051634875415971 [Eh]
                               Psi4 1.9 release
    Molecular point group: c1
  Multiplicity = 1
  Basis Set: AUG-CC-PVTZ
    Blend: AUG-CC-PVTZ
  Basis Set: (AUG-CC-PVTZ AUX)
    Blend: AUG-CC-PVTZ-JKFIT + DEF2-UNIVERSAL-JKFIT
  @DF-RHF Final Energy:  -599.01751545307911
    Total Energy =                       -599.0175154530791133
  Basis Set: (AUG-CC-PVTZ AUX)
	 Singles Energy            =      -0.0000000000000000 [Eh]
	 Same-Spin Energy          =      -0.0372199637621500 [Eh]
	 Opposite-Spin Energy      =      -0.0909403352335382 [Eh]
	 Correlation Energy        =      -0.1281602989956882 [Eh]
	 Total Energy              =    -599.1456757520747942 [Eh]
	 SCS Total Energy          =    -599.1390505099467418 [Eh]
                               Psi4 1.9 release
    Molecular point group: c1

    Geometry (in Bohr), charge = 1, multiplicity = 1:

       Center              X                  Y                   Z               Mass
    ------------   -----------------  -----------------  -----------------  -----------------
         K            0.000000000000     0.000000000000     0.000000000000    38.963706486400
         O            2.972616674116     3.014423085190    -3.455987830021    15.994914619570
         H            3.368429259724     4.587279933931    -2.783532567729     1.007825032230
         H            4.543617811802     2.725068220860    -4.233305884741     1.007825032230
         O            4.804959376048    -1.372695167806     0.302552711590    15.994914619570
         H            4.715856899507    -1.564026158557    -1.481705909080     1.007825032230
         H            5.569589809562    -2.858386509285     0.872454426780     1.007825032230
         O           -1.315470481275    -2.622537350471     4.049356164236    15.994914619570
         H           -2.971029304171    -2.983384333579     3.359927381886     1.007825032230
         H           -1.364170613255    -2.165903929515     5.778533047801     1.007825032230
         O           -4.620843359645    -1.890880748120    -0.515785628135    15.994914619570
         H           -4.982742920205    -3.701461363992    -0.386305373471     1.007825032230
         H           -5.955411413144    -1.247173889375    -1.563045390698     1.007825032230
         O           -2.070845036226     2.231127826735    -4.535614821661    15.994914619570
         H           -0.319488437127     2.343249057211    -4.941964520144     1.007825032230
         H           -2.475167058577     0.508992062714    -4.950383250033     1.007825032230

  Charge       = 1
  Multiplicity = 1
  Basis Set: AUG-CC-PVTZ
    Blend: AUG-CC-PVTZ
  Basis Set: (AUG-CC-PVTZ AUX)
    Blend: AUG-CC-PVTZ-JKFIT + DEF2-UNIVERSAL-JKFIT

    Orbital Energies [Eh]
    ---------------------

    Doubly Occupied:

       1A   -133.613642     2A    -20.736959     3A    -20.731398
       4A    -20.716743     5A    -20.706699     6A    -20.689507
       7A    -14.571884     8A    -11.601860     9A    -11.601612
      10A    -11.601558    11A     -1.836079    12A     -1.542507
      13A     -1.520603    14A     -1.517514    15A     -1.495829
      16A     -1.481878    17A     -1.048485    18A     -1.047282
      19A     -1.043825    20A     -0.891673    21A     -0.885261
      22A     -0.877770    23A     -0.871239    24A     -0.852645
      25A     -0.779042    26A     -0.762951    27A     -0.745953
      28A     -0.721866    29A     -0.713804    30A     -0.685074
      31A     -0.683603    32A     -0.668751    33A     -0.657100
      34A     -0.638162

  @DF-RHF Final Energy:  -979.38794650767363

   => Energetics <=

    Nuclear Repulsion Energy =            356.8978481559495322
    One-Electron Energy =               -2051.4900685364382298
    Two-Electron Energy =                 715.2042738728150653
    Total Energy =                       -979.3879465076736324
 Dipole X            :          1.9952781           -1.7071786            0.2880995
 Dipole Y            :          8.4335897           -9.4802457           -1.0466560
 Dipole Z            :         42.8572315          -43.5731633           -0.7159317
 Magnitude           :                                                    1.3004032
  Basis Set: (AUG-CC-PVTZ AUX)
    Blend: AUG-CC-PVTZ-RI + DEF2-QZVPP-RI
	 Reference Energy          =    -979.3879465076736324 [Eh]
	 Singles Energy            =      -0.0000000000000000 [Eh]
	 Same-Spin Energy          =      -0.3861906058706853 [Eh]
	 Opposite-Spin Energy      =      -1.1725721658074055 [Eh]
	 Correlation Energy        =      -1.5587627716780910 [Eh]
	 Total Energy              =    -980.9467092793516940 [Eh]

	 ================> DF-SCS-MP2 Energies <==================
	-----------------------------------------------------------
	 SCS Same-Spin Scale       =       0.3333333333333333 [-]
	 SCS Opposite-Spin Scale   =       1.2000000000000000 [-]
	 SCS Same-Spin Energy      =      -0.1287302019568951 [Eh]
	 SCS Opposite-Spin Energy  =      -1.4070865989688865 [Eh]
	 SCS Correlation Energy    =      -1.5358168009257818 [Eh]
	 SCS Total Energy          =    -980.9237633085994048 [Eh]
	-----------------------------------------------------------

*** Psi4 exiting successfully. Buy a developer a beer!
