                               Psi4 1.9 release

  ==> Input File <==

--------------------------------------------------------------------------
MEMORY 60 GB

molecule dimer {
0 1
Gh(K)      0.000000     0.000000     0.000000
O         -2.253676    -1.392416     0.421368
H         -3.137956    -1.215387     0.063811
H         -2.021472    -2.191510    -0.025516
Gh(O)     -0.318217     0.409348    -2.718643
Gh(H)      0.311346     1.085045    -3.064275
Gh(H)     -0.323786    -0.455586    -3.131456
Gh(O)      1.052869    -1.442679     2.266862
Gh(H)      1.475362    -2.293476     2.206604
Gh(H)      1.643426    -0.997578     2.931710
Gh(O)      0.676884    -2.513134    -0.722992
Gh(H)     -0.026309    -3.165808    -0.916704
Gh(H)      1.255836    -2.918566    -0.007824

units ang
no_reorient
no_com
symmetry c1
}

set {
basis        aug-cc-pVTZ
scf_type     df
}

energy("mp2")
--------------------------------------------------------------------------

    Molecular point group: c1

    Geometry (in Angstrom), charge = 0, multiplicity = 1:

       Center              X                  Y                   Z               Mass
    ------------   -----------------  -----------------  -----------------  -----------------
      Gh(K)           0.000000000000     0.000000000000     0.000000000000    38.963706486400
         O           -2.253676000000    -1.392416000000     0.421368000000    15.994914619570
         H           -3.137956000000    -1.215387000000     0.063811000000     1.007825032230
         H           -2.021472000000    -2.191510000000    -0.025516000000     1.007825032230
      Gh(O)          -0.318217000000     0.409348000000    -2.718643000000    15.994914619570
      Gh(H)           0.311346000000     1.085045000000    -3.064275000000     1.007825032230
      Gh(H)          -0.323786000000    -0.455586000000    -3.131456000000     1.007825032230
      Gh(O)           1.052869000000    -1.442679000000     2.266862000000    15.994914619570
      Gh(H)           1.475362000000    -2.293476000000     2.206604000000     1.007825032230
      Gh(H)           1.643426000000    -0.997578000000     2.931710000000     1.007825032230
      Gh(O)           0.676884000000    -2.513134000000    -0.722992000000    15.994914619570
      Gh(H)          -0.026309000000    -3.165808000000    -0.916704000000     1.007825032230
      Gh(H)           1.255836000000    -2.918566000000    -0.007824000000     1.007825032230

  Charge       = 0
  Multiplicity = 1
  Basis Set: AUG-CC-PVTZ
    Blend: AUG-CC-PVTZ
  Basis Set: (AUG-CC-PVTZ AUX)
    Blend: AUG-CC-PVTZ-JKFIT + DEF2-UNIVERSAL-JKFIT

    Orbital Energies [Eh]
    ---------------------

    Doubly Occupied:

       1A    -20.568240     2A     -1.355649     3A     -0.712360
       4A     -0.590192     5A     -0.511135

  @DF-RHF Final Energy:   -76.05996173225289

   => Energetics <=

    Nuclear Repulsion Energy =              9.2019158514574428
    One-Electron Energy =                -123.0485986916653189
    Two-Electron Energy =                  37.7867211079549818
    Total Energy =                        -76.0599617322529014
 Dipole X            :         43.3935459          -43.8205492           -0.4270033
 Dipole Y            :         27.0744495          -27.4883814           -0.4139319
 Dipole Z            :         -6.9736506            6.4425280           -0.5311226
 Magnitude           :                                                    0.7973473
  Basis Set: (AUG-CC-PVTZ AUX)
    Blend: AUG-CC-PVTZ-RI + DEF2-QZVPP-RI
	 Reference Energy          =     -76.0599617322528871 [Eh]
	 Singles Energy            =      -0.0000000000000000 [Eh]
	 Same-Spin Energy          =      -0.0684439999668782 [Eh]
	 Opposite-Spin Energy      =      -0.2157637631466439 [Eh]
	 Correlation Energy        =      -0.2842077631135220 [Eh]
	 Total Energy              =     -76.3441694953664154 [Eh]

	 ================> DF-SCS-MP2 Energies <==================
	-----------------------------------------------------------
	 SCS Same-Spin Scale       =       0.3333333333333333 [-]
	 SCS Opposite-Spin Scale   =       1.2000000000000000 [-]
	 SCS Same-Spin Energy      =      -0.0228146666556261 [Eh]
	 SCS Opposite-Spin Energy  =      -0.2589165157759726 [Eh]
	 SCS Correlation Energy    =      -0.2817311824315987 [Eh]
	 SCS Total Energy          =     -76.3416929146844865 [Eh]
	-----------------------------------------------------------

*** Psi4 exiting successfully. Buy a developer a beer!
