                               Psi4 1.9 release

  ==> Input File <==

--------------------------------------------------------------------------
MEMORY 60 GB

molecule dimer {
1 1
K          0.000000     0.000000     0.000000
O         -1.370696     1.604479    -1.550439
H         -2.076934     1.905007    -1.017557
H         -1.553716     1.524466    -2.505073
O         -1.998737    -0.974662     1.599881
H         -2.513349    -0.187129     1.508550
H         -2.107385    -1.288235     2.520883
O          1.577216    -0.657159     1.925838
H          1.513681    -0.094488     2.713468
H          2.523881    -0.722081     1.667496
O         -0.990708    -1.602974    -1.918941
H         -0.942529    -2.440920    -1.500342
H         -0.185141    -1.605642    -2.464998
O          0.436480     2.229228     1.505701
H          0.369638     3.148405     1.178374
H          1.255062     2.186885     2.041814
O          2.765894     0.729757    -0.577149
H          3.109093     1.422939    -1.184852
H          2.919337     1.046345     0.333290

units ang
no_reorient
no_com
symmetry c1
}

set {
basis        aug-cc-pVTZ
scf_type     df
}

energy("mp2")
--------------------------------------------------------------------------

    Molecular point group: c1

    Geometry (in Angstrom), charge = 1, multiplicity = 1:

       Center              X                  Y                   Z               Mass
    ------------   -----------------  -----------------  -----------------  -----------------
         K            0.000000000000     0.000000000000     0.000000000000    38.963706486400
         O           -1.370696000000     1.604479000000    -1.550439000000    15.994914619570
         H           -2.076934000000     1.905007000000    -1.017557000000     1.007825032230
         H           -1.553716000000     1.524466000000    -2.505073000000     1.007825032230
         O           -1.998737000000    -0.974662000000     1.599881000000    15.994914619570
         H           -2.513349000000    -0.187129000000     1.508550000000     1.007825032230
         H           -2.107385000000    -1.288235000000     2.520883000000     1.007825032230
         O            1.577216000000    -0.657159000000     1.925838000000    15.994914619570
         H            1.513681000000    -0.094488000000     2.713468000000     1.007825032230
         H            2.523881000000    -0.722081000000     1.667496000000     1.007825032230
         O           -0.990708000000    -1.602974000000    -1.918941000000    15.994914619570
         H           -0.942529000000    -2.440920000000    -1.500342000000     1.007825032230
         H           -0.185141000000    -1.605642000000    -2.464998000000     1.007825032230
         O            0.436480000000     2.229228000000     1.505701000000    15.994914619570
         H            0.369638000000     3.148405000000     1.178374000000     1.007825032230
         H            1.255062000000     2.186885000000     2.041814000000     1.007825032230
         O            2.765894000000     0.729757000000    -0.577149000000    15.994914619570
         H            3.109093000000     1.422939000000    -1.184852000000     1.007825032230
         H            2.919337000000     1.046345000000     0.333290000000     1.007825032230

  Charge       = 1
  Multiplicity = 1
  Basis Set: AUG-CC-PVTZ
    Blend: AUG-CC-PVTZ
  Basis Set: (AUG-CC-PVTZ AUX)
    Blend: AUG-CC-PVTZ-JKFIT + DEF2-UNIVERSAL-JKFIT

    Orbital Energies [Eh]
    ---------------------

    Doubly Occupied:

       1A   -133.570473     2A    -20.721775     3A    -20.718353
       4A    -20.711672     5A    -20.699099     6A    -20.697421
       7A    -20.697172     8A    -14.529351     9A    -11.559185
      10A    -11.559036    11A    -11.558977    12A     -1.795982
      13A     -1.499528    14A     -1.495521    15A     -1.490498
      16A     -1.488066    17A     -1.485144    18A     -1.484491
      19A     -1.009455    20A     -1.007744    21A     -1.006097
      22A     -0.879997    23A     -0.873408    24A     -0.864329
      25A     -0.854845    26A     -0.849600    27A     -0.845031
      28A     -0.738614    29A     -0.732954    30A     -0.724578
      31A     -0.723238    32A     -0.717615    33A     -0.708485
      34A     -0.670121    35A     -0.661128    36A     -0.650821
      37A     -0.649015    38A     -0.645574    39A     -0.645039

  @DF-RHF Final Energy: -1055.45069179848451

   => Energetics <=

    Nuclear Repulsion Energy =            465.5836821649519379
    One-Electron Energy =               -2373.6298831506373972
    Two-Electron Energy =                 852.5955091872009461
    Total Energy =                      -1055.4506917984845131
 Dipole X            :         -9.8385851           10.7095126            0.8709275
 Dipole Y            :        -27.7788722           29.3378167            1.5589445
 Dipole Z            :        -20.2270371           21.1085829            0.8815458
 Magnitude           :                                                    1.9914682
  Basis Set: (AUG-CC-PVTZ AUX)
    Blend: AUG-CC-PVTZ-RI + DEF2-QZVPP-RI
	 Reference Energy          =   -1055.4506917984845131 [Eh]
	 Singles Energy            =      -0.0000000000000000 [Eh]
	 Same-Spin Energy          =      -0.4589152708114078 [Eh]
	 Opposite-Spin Energy      =      -1.3991555869743060 [Eh]
	 Correlation Energy        =      -1.8580708577857137 [Eh]
	 Total Energy              =   -1057.3087626562701189 [Eh]

	 ================> DF-SCS-MP2 Energies <==================
	-----------------------------------------------------------
	 SCS Same-Spin Scale       =       0.3333333333333333 [-]
	 SCS Opposite-Spin Scale   =       1.2000000000000000 [-]
	 SCS Same-Spin Energy      =      -0.1529717569371359 [Eh]
	 SCS Opposite-Spin Energy  =      -1.6789867043691671 [Eh]
	 SCS Correlation Energy    =      -1.8319584613063031 [Eh]
	 SCS Total Energy          =   -1057.2826502597908984 [Eh]
	-----------------------------------------------------------

*** Psi4 exiting successfully. Buy a developer a beer!
