                               Psi4 1.9 release

  ==> Input File <==

--------------------------------------------------------------------------
MEMORY 60 GB

molecule dimer {
0 1
Gh(K)      0.000000     0.000000     0.000000
Gh(O)     -0.502703    -2.334457    -1.283675
Gh(H)      0.237008    -2.749133    -1.803266
Gh(H)     -1.286908    -2.624519    -1.722892
Gh(O)      2.099037     0.906527     1.636457
Gh(H)      2.896740     1.100518     1.113670
Gh(H)      1.969279     1.530828     2.370669
Gh(O)      0.462307     2.678042    -0.359156
Gh(H)      0.213104     2.711476    -1.330404
Gh(H)      1.161890     3.384492    -0.307642
Gh(O)      1.843513    -0.310552    -1.771290
Gh(H)      2.148881     0.527834    -2.195735
Gh(H)      2.570572    -0.916573    -1.716041
O         -2.431167     1.182859    -0.447565
H         -2.521700     1.224046    -1.399351
H         -2.195533     2.014004     0.091471

units ang
no_reorient
no_com
symmetry c1
}

set {
basis        aug-cc-pVTZ
scf_type     df
}

energy("mp2")
--------------------------------------------------------------------------

    Molecular point group: c1

    Geometry (in Angstrom), charge = 0, multiplicity = 1:

       Center              X                  Y                   Z               Mass
    ------------   -----------------  -----------------  -----------------  -----------------
      Gh(K)           0.000000000000     0.000000000000     0.000000000000    38.963706486400
      Gh(O)          -0.502703000000    -2.334457000000    -1.283675000000    15.994914619570
      Gh(H)           0.237008000000    -2.749133000000    -1.803266000000     1.007825032230
      Gh(H)          -1.286908000000    -2.624519000000    -1.722892000000     1.007825032230
      Gh(O)           2.099037000000     0.906527000000     1.636457000000    15.994914619570
      Gh(H)           2.896740000000     1.100518000000     1.113670000000     1.007825032230
      Gh(H)           1.969279000000     1.530828000000     2.370669000000     1.007825032230
      Gh(O)           0.462307000000     2.678042000000    -0.359156000000    15.994914619570
      Gh(H)           0.213104000000     2.711476000000    -1.330404000000     1.007825032230
      Gh(H)           1.161890000000     3.384492000000    -0.307642000000     1.007825032230
      Gh(O)           1.843513000000    -0.310552000000    -1.771290000000    15.994914619570
      Gh(H)           2.148881000000     0.527834000000    -2.195735000000     1.007825032230
      Gh(H)           2.570572000000    -0.916573000000    -1.716041000000     1.007825032230
         O           -2.431167000000     1.182859000000    -0.447565000000    15.994914619570
         H           -2.521700000000     1.224046000000    -1.399351000000     1.007825032230
         H           -2.195533000000     2.014004000000     0.091471000000     1.007825032230

  Charge       = 0
  Multiplicity = 1
  Basis Set: AUG-CC-PVTZ
    Blend: AUG-CC-PVTZ
  Basis Set: (AUG-CC-PVTZ AUX)
    Blend: AUG-CC-PVTZ-JKFIT + DEF2-UNIVERSAL-JKFIT

    Orbital Energies [Eh]
    ---------------------

    Doubly Occupied:

       1A    -20.563593     2A     -1.328749     3A     -0.727903
       4A     -0.548242     5A     -0.502443

  @DF-RHF Final Energy:   -76.04923945256594

   => Energetics <=

    Nuclear Repulsion Energy =              8.8891603849595331
    One-Electron Energy =                -122.5349329578605477
    Two-Electron Energy =                  37.5965331203350601
    Total Energy =                        -76.0492394525659563
 Dipole X            :         45.7671042          -45.6681968            0.0989074
 Dipole Y            :        -23.4024160           24.0012641            0.5988481
 Dipole Z            :          8.9497272           -9.2377372           -0.2880100
 Magnitude           :                                                    0.6718270
  Basis Set: (AUG-CC-PVTZ AUX)
    Blend: AUG-CC-PVTZ-RI + DEF2-QZVPP-RI
	 Reference Energy          =     -76.0492394525659421 [Eh]
	 Singles Energy            =      -0.0000000000000000 [Eh]
	 Same-Spin Energy          =      -0.0688727786136972 [Eh]
	 Opposite-Spin Energy      =      -0.2166832261199129 [Eh]
	 Correlation Energy        =      -0.2855560047336100 [Eh]
	 Total Energy              =     -76.3347954572995491 [Eh]

	 ================> DF-SCS-MP2 Energies <==================
	-----------------------------------------------------------
	 SCS Same-Spin Scale       =       0.3333333333333333 [-]
	 SCS Opposite-Spin Scale   =       1.2000000000000000 [-]
	 SCS Same-Spin Energy      =      -0.0229575928712324 [Eh]
	 SCS Opposite-Spin Energy  =      -0.2600198713438954 [Eh]
	 SCS Correlation Energy    =      -0.2829774642151278 [Eh]
	 SCS Total Energy          =     -76.3322169167810642 [Eh]
	-----------------------------------------------------------

*** Psi4 exiting successfully. Buy a developer a beer!
