                               Psi4 1.9 release

  ==> Input File <==

--------------------------------------------------------------------------
MEMORY 60 GB

molecule dimer {
0 1
Gh(K)      0.000000     0.000000     0.000000
Gh(O)      0.934950     1.557658     1.866682
Gh(H)      1.223641     2.403238     1.526633
Gh(H)      1.560546     1.275463     2.571452
Gh(O)     -0.413699    -2.204341    -1.603818
Gh(H)     -1.436891    -2.151326    -1.552654
Gh(H)     -0.309238    -2.351733    -2.534913
Gh(O)      2.387388    -0.706598     0.434979
Gh(H)      3.112159    -1.260928     0.324550
Gh(H)      2.611801    -0.158530     1.180506
O         -2.888982    -0.504542     0.112087
H         -3.193254    -0.834635     0.984426
H         -3.583834     0.130394    -0.063180
Gh(O)      2.029999     0.579035    -1.935349
Gh(H)      2.782212     0.571319    -1.253322
Gh(H)      2.354613     1.285694    -2.436344
Gh(O)     -0.653789    -1.945918     2.055554
Gh(H)     -0.923902    -1.843674     2.940345
Gh(H)     -1.151574    -2.735000     1.778164

units ang
no_reorient
no_com
symmetry c1
}

set {
basis        aug-cc-pVTZ
scf_type     df
}

energy("mp2")
--------------------------------------------------------------------------

    Molecular point group: c1

    Geometry (in Angstrom), charge = 0, multiplicity = 1:

       Center              X                  Y                   Z               Mass
    ------------   -----------------  -----------------  -----------------  -----------------
      Gh(K)           0.000000000000     0.000000000000     0.000000000000    38.963706486400
      Gh(O)           0.934950000000     1.557658000000     1.866682000000    15.994914619570
      Gh(H)           1.223641000000     2.403238000000     1.526633000000     1.007825032230
      Gh(H)           1.560546000000     1.275463000000     2.571452000000     1.007825032230
      Gh(O)          -0.413699000000    -2.204341000000    -1.603818000000    15.994914619570
      Gh(H)          -1.436891000000    -2.151326000000    -1.552654000000     1.007825032230
      Gh(H)          -0.309238000000    -2.351733000000    -2.534913000000     1.007825032230
      Gh(O)           2.387388000000    -0.706598000000     0.434979000000    15.994914619570
      Gh(H)           3.112159000000    -1.260928000000     0.324550000000     1.007825032230
      Gh(H)           2.611801000000    -0.158530000000     1.180506000000     1.007825032230
         O           -2.888982000000    -0.504542000000     0.112087000000    15.994914619570
         H           -3.193254000000    -0.834635000000     0.984426000000     1.007825032230
         H           -3.583834000000     0.130394000000    -0.063180000000     1.007825032230
      Gh(O)           2.029999000000     0.579035000000    -1.935349000000    15.994914619570
      Gh(H)           2.782212000000     0.571319000000    -1.253322000000     1.007825032230
      Gh(H)           2.354613000000     1.285694000000    -2.436344000000     1.007825032230
      Gh(O)          -0.653789000000    -1.945918000000     2.055554000000    15.994914619570
      Gh(H)          -0.923902000000    -1.843674000000     2.940345000000     1.007825032230
      Gh(H)          -1.151574000000    -2.735000000000     1.778164000000     1.007825032230

  Charge       = 0
  Multiplicity = 1
  Basis Set: AUG-CC-PVTZ
    Blend: AUG-CC-PVTZ
  Basis Set: (AUG-CC-PVTZ AUX)
    Blend: AUG-CC-PVTZ-JKFIT + DEF2-UNIVERSAL-JKFIT

    Orbital Energies [Eh]
    ---------------------

    Doubly Occupied:

       1A    -20.571407     2A     -1.351319     3A     -0.700939
       4A     -0.592829     5A     -0.510897

  @DF-RHF Final Energy:   -76.05840033946288

   => Energetics <=

    Nuclear Repulsion Energy =              9.0949790406112854
    One-Electron Energy =                -122.8519729816481885
    Two-Electron Energy =                  37.6985936015740464
    Total Energy =                        -76.0584003394628638
 Dipole X            :         55.8305914          -56.4819183           -0.6513269
 Dipole Y            :          9.1597490           -8.9583922            0.2013568
 Dipole Z            :         -2.9853285            3.4354125            0.4500840
 Magnitude           :                                                    0.8169130
  Basis Set: (AUG-CC-PVTZ AUX)
    Blend: AUG-CC-PVTZ-RI + DEF2-QZVPP-RI
	 Reference Energy          =     -76.0584003394628780 [Eh]
	 Singles Energy            =      -0.0000000000000000 [Eh]
	 Same-Spin Energy          =      -0.0687321492670661 [Eh]
	 Opposite-Spin Energy      =      -0.2165747791802100 [Eh]
	 Correlation Energy        =      -0.2853069284472761 [Eh]
	 Total Energy              =     -76.3437072679101476 [Eh]

	 ================> DF-SCS-MP2 Energies <==================
	-----------------------------------------------------------
	 SCS Same-Spin Scale       =       0.3333333333333333 [-]
	 SCS Opposite-Spin Scale   =       1.2000000000000000 [-]
	 SCS Same-Spin Energy      =      -0.0229107164223553 [Eh]
	 SCS Opposite-Spin Energy  =      -0.2598897350162520 [Eh]
	 SCS Correlation Energy    =      -0.2828004514386074 [Eh]
	 SCS Total Energy          =     -76.3412007909014818 [Eh]
	-----------------------------------------------------------

*** Psi4 exiting successfully. Buy a developer a beer!
