                               Psi4 1.9 release

  ==> Input File <==

--------------------------------------------------------------------------
MEMORY 60 GB

molecule dimer {
0 1
Gh(K)      0.000000     0.000000     0.000000
O          0.943634     1.540384    -2.239203
H          1.835162     1.914466    -2.211791
H          0.256757     2.195615    -2.041790
Gh(O)     -1.920742    -0.633797    -1.813826
Gh(H)     -2.580219    -1.072039    -1.329826
Gh(H)     -2.116309     0.283541    -1.612310
Gh(O)     -1.787723     1.870031     1.131142
Gh(H)     -2.161469     2.114690     0.289051
Gh(H)     -1.202138     2.601312     1.399681
Gh(O)      0.489597    -2.771440    -0.697134
Gh(H)      1.059577    -2.807431    -1.496358
Gh(H)      0.870276    -3.282004     0.035325

units ang
no_reorient
no_com
symmetry c1
}

set {
basis        aug-cc-pVTZ
scf_type     df
}

energy("mp2")
--------------------------------------------------------------------------

    Molecular point group: c1

    Geometry (in Angstrom), charge = 0, multiplicity = 1:

       Center              X                  Y                   Z               Mass
    ------------   -----------------  -----------------  -----------------  -----------------
      Gh(K)           0.000000000000     0.000000000000     0.000000000000    38.963706486400
         O            0.943634000000     1.540384000000    -2.239203000000    15.994914619570
         H            1.835162000000     1.914466000000    -2.211791000000     1.007825032230
         H            0.256757000000     2.195615000000    -2.041790000000     1.007825032230
      Gh(O)          -1.920742000000    -0.633797000000    -1.813826000000    15.994914619570
      Gh(H)          -2.580219000000    -1.072039000000    -1.329826000000     1.007825032230
      Gh(H)          -2.116309000000     0.283541000000    -1.612310000000     1.007825032230
      Gh(O)          -1.787723000000     1.870031000000     1.131142000000    15.994914619570
      Gh(H)          -2.161469000000     2.114690000000     0.289051000000     1.007825032230
      Gh(H)          -1.202138000000     2.601312000000     1.399681000000     1.007825032230
      Gh(O)           0.489597000000    -2.771440000000    -0.697134000000    15.994914619570
      Gh(H)           1.059577000000    -2.807431000000    -1.496358000000     1.007825032230
      Gh(H)           0.870276000000    -3.282004000000     0.035325000000     1.007825032230

  Charge       = 0
  Multiplicity = 1
  Basis Set: AUG-CC-PVTZ
    Blend: AUG-CC-PVTZ
  Basis Set: (AUG-CC-PVTZ AUX)
    Blend: AUG-CC-PVTZ-JKFIT + DEF2-UNIVERSAL-JKFIT

    Orbital Energies [Eh]
    ---------------------

    Doubly Occupied:

       1A    -20.565195     2A     -1.342289     3A     -0.726362
       4A     -0.567027     5A     -0.506885

  @DF-RHF Final Energy:   -76.05835558056832

   => Energetics <=

    Nuclear Repulsion Energy =              9.0713318160921705
    One-Electron Energy =                -122.8438553423082453
    Two-Electron Energy =                  37.7141679456477661
    Total Energy =                        -76.0583555805683034
 Dipole X            :        -18.0797412           18.2188326            0.1390914
 Dipole Y            :        -30.3562664           31.0541585            0.6978921
 Dipole Z            :         42.0420955          -41.8899464            0.1521491
 Magnitude           :                                                    0.7277013
  Basis Set: (AUG-CC-PVTZ AUX)
    Blend: AUG-CC-PVTZ-RI + DEF2-QZVPP-RI
	 Reference Energy          =     -76.0583555805683176 [Eh]
	 Singles Energy            =      -0.0000000000000000 [Eh]
	 Same-Spin Energy          =      -0.0684832209130465 [Eh]
	 Opposite-Spin Energy      =      -0.2156975336355781 [Eh]
	 Correlation Energy        =      -0.2841807545486247 [Eh]
	 Total Energy              =     -76.3425363351169466 [Eh]

	 ================> DF-SCS-MP2 Energies <==================
	-----------------------------------------------------------
	 SCS Same-Spin Scale       =       0.3333333333333333 [-]
	 SCS Opposite-Spin Scale   =       1.2000000000000000 [-]
	 SCS Same-Spin Energy      =      -0.0228277403043488 [Eh]
	 SCS Opposite-Spin Energy  =      -0.2588370403626937 [Eh]
	 SCS Correlation Energy    =      -0.2816647806670426 [Eh]
	 SCS Total Energy          =     -76.3400203612353607 [Eh]
	-----------------------------------------------------------

*** Psi4 exiting successfully. Buy a developer a beer!
