                               Psi4 1.9 release

  ==> Input File <==

--------------------------------------------------------------------------
MEMORY 60 GB

molecule dimer {
0 1
Gh(K)      0.000000     0.000000     0.000000
Gh(O)     -1.343909    -1.211403     2.099413
Gh(H)     -1.253672    -2.078427     2.385455
Gh(H)     -1.877420    -0.648745     2.704831
O         -2.397561     1.590145     0.274651
H         -3.158315     1.280604    -0.227144
H         -2.022053     2.285837    -0.218265
Gh(O)     -2.079589    -1.111467    -1.864902
Gh(H)     -2.298458    -0.195653    -2.049554
Gh(H)     -2.680979    -1.325544    -1.093268
Gh(O)      1.264225     2.555430     0.500886
Gh(H)      0.862716     3.053670    -0.127152
Gh(H)      2.168458     2.917047     0.643229
Gh(O)      0.684809    -2.567000     0.519199
Gh(H)      0.206735    -2.757309     1.321443
Gh(H)      0.308697    -3.187476    -0.135128
Gh(O)      1.071392    -0.945498    -2.247692
Gh(H)      1.750392    -1.483034    -1.804775
Gh(H)      0.594835    -1.550044    -2.831515

units ang
no_reorient
no_com
symmetry c1
}

set {
basis        aug-cc-pVTZ
scf_type     df
}

energy("mp2")
--------------------------------------------------------------------------

    Molecular point group: c1

    Geometry (in Angstrom), charge = 0, multiplicity = 1:

       Center              X                  Y                   Z               Mass
    ------------   -----------------  -----------------  -----------------  -----------------
      Gh(K)           0.000000000000     0.000000000000     0.000000000000    38.963706486400
      Gh(O)          -1.343909000000    -1.211403000000     2.099413000000    15.994914619570
      Gh(H)          -1.253672000000    -2.078427000000     2.385455000000     1.007825032230
      Gh(H)          -1.877420000000    -0.648745000000     2.704831000000     1.007825032230
         O           -2.397561000000     1.590145000000     0.274651000000    15.994914619570
         H           -3.158315000000     1.280604000000    -0.227144000000     1.007825032230
         H           -2.022053000000     2.285837000000    -0.218265000000     1.007825032230
      Gh(O)          -2.079589000000    -1.111467000000    -1.864902000000    15.994914619570
      Gh(H)          -2.298458000000    -0.195653000000    -2.049554000000     1.007825032230
      Gh(H)          -2.680979000000    -1.325544000000    -1.093268000000     1.007825032230
      Gh(O)           1.264225000000     2.555430000000     0.500886000000    15.994914619570
      Gh(H)           0.862716000000     3.053670000000    -0.127152000000     1.007825032230
      Gh(H)           2.168458000000     2.917047000000     0.643229000000     1.007825032230
      Gh(O)           0.684809000000    -2.567000000000     0.519199000000    15.994914619570
      Gh(H)           0.206735000000    -2.757309000000     1.321443000000     1.007825032230
      Gh(H)           0.308697000000    -3.187476000000    -0.135128000000     1.007825032230
      Gh(O)           1.071392000000    -0.945498000000    -2.247692000000    15.994914619570
      Gh(H)           1.750392000000    -1.483034000000    -1.804775000000     1.007825032230
      Gh(H)           0.594835000000    -1.550044000000    -2.831515000000     1.007825032230

  Charge       = 0
  Multiplicity = 1
  Basis Set: AUG-CC-PVTZ
    Blend: AUG-CC-PVTZ
  Basis Set: (AUG-CC-PVTZ AUX)
    Blend: AUG-CC-PVTZ-JKFIT + DEF2-UNIVERSAL-JKFIT

    Orbital Energies [Eh]
    ---------------------

    Doubly Occupied:

       1A    -20.564350     2A     -1.357692     3A     -0.727230
       4A     -0.582969     5A     -0.510663

  @DF-RHF Final Energy:   -76.06069160895679

   => Energetics <=

    Nuclear Repulsion Energy =              9.2912989438300997
    One-Electron Energy =                -123.2181713629860411
    Two-Electron Energy =                  37.8661808101991468
    Total Energy =                        -76.0606916089568017
 Dipole X            :         45.7795246          -46.0353460           -0.2558215
 Dipole Y            :        -30.5154562           30.7791051            0.2636489
 Dipole Z            :         -3.9801501            3.3104203           -0.6697298
 Magnitude           :                                                    0.7638674
  Basis Set: (AUG-CC-PVTZ AUX)
    Blend: AUG-CC-PVTZ-RI + DEF2-QZVPP-RI
	 Reference Energy          =     -76.0606916089567875 [Eh]
	 Singles Energy            =      -0.0000000000000000 [Eh]
	 Same-Spin Energy          =      -0.0681783072340074 [Eh]
	 Opposite-Spin Energy      =      -0.2150498095443222 [Eh]
	 Correlation Energy        =      -0.2832281167783296 [Eh]
	 Total Energy              =     -76.3439197257351196 [Eh]

	 ================> DF-SCS-MP2 Energies <==================
	-----------------------------------------------------------
	 SCS Same-Spin Scale       =       0.3333333333333333 [-]
	 SCS Opposite-Spin Scale   =       1.2000000000000000 [-]
	 SCS Same-Spin Energy      =      -0.0227261024113358 [Eh]
	 SCS Opposite-Spin Energy  =      -0.2580597714531866 [Eh]
	 SCS Correlation Energy    =      -0.2807858738645225 [Eh]
	 SCS Total Energy          =     -76.3414774828213041 [Eh]
	-----------------------------------------------------------

*** Psi4 exiting successfully. Buy a developer a beer!
