                               Psi4 1.9 release

  ==> Input File <==

--------------------------------------------------------------------------
MEMORY 60 GB

molecule dimer {
0 1
Gh(K)      0.000000     0.000000     0.000000
Gh(O)      0.612876    -1.115935    -2.349051
Gh(H)      0.426290    -1.552454    -3.196404
Gh(H)      1.249709    -1.726035    -1.997265
Gh(O)      0.226950    -1.309350     2.562510
Gh(H)      0.264022    -0.641943     3.257966
Gh(H)      1.068749    -1.730800     2.570162
Gh(O)     -2.056105     0.919747    -1.186773
Gh(H)     -2.198049     0.297455    -1.925318
Gh(H)     -2.809767     1.060828    -0.585807
O         -1.976233    -2.079701    -0.110673
H         -1.733104    -3.050987    -0.116702
H         -2.703697    -1.948167    -0.750612
Gh(O)      1.852186     1.592652     1.468527
Gh(H)      2.464721     2.245763     1.040167
Gh(H)      1.990939     1.633926     2.445297
Gh(O)      2.746451    -1.160995     0.084226
Gh(H)      3.055897    -0.685917    -0.671043
Gh(H)      3.443294    -1.731569     0.452839

units ang
no_reorient
no_com
symmetry c1
}

set {
basis        aug-cc-pVTZ
scf_type     df
}

energy("mp2")
--------------------------------------------------------------------------

    Molecular point group: c1

    Geometry (in Angstrom), charge = 0, multiplicity = 1:

       Center              X                  Y                   Z               Mass
    ------------   -----------------  -----------------  -----------------  -----------------
      Gh(K)           0.000000000000     0.000000000000     0.000000000000    38.963706486400
      Gh(O)           0.612876000000    -1.115935000000    -2.349051000000    15.994914619570
      Gh(H)           0.426290000000    -1.552454000000    -3.196404000000     1.007825032230
      Gh(H)           1.249709000000    -1.726035000000    -1.997265000000     1.007825032230
      Gh(O)           0.226950000000    -1.309350000000     2.562510000000    15.994914619570
      Gh(H)           0.264022000000    -0.641943000000     3.257966000000     1.007825032230
      Gh(H)           1.068749000000    -1.730800000000     2.570162000000     1.007825032230
      Gh(O)          -2.056105000000     0.919747000000    -1.186773000000    15.994914619570
      Gh(H)          -2.198049000000     0.297455000000    -1.925318000000     1.007825032230
      Gh(H)          -2.809767000000     1.060828000000    -0.585807000000     1.007825032230
         O           -1.976233000000    -2.079701000000    -0.110673000000    15.994914619570
         H           -1.733104000000    -3.050987000000    -0.116702000000     1.007825032230
         H           -2.703697000000    -1.948167000000    -0.750612000000     1.007825032230
      Gh(O)           1.852186000000     1.592652000000     1.468527000000    15.994914619570
      Gh(H)           2.464721000000     2.245763000000     1.040167000000     1.007825032230
      Gh(H)           1.990939000000     1.633926000000     2.445297000000     1.007825032230
      Gh(O)           2.746451000000    -1.160995000000     0.084226000000    15.994914619570
      Gh(H)           3.055897000000    -0.685917000000    -0.671043000000     1.007825032230
      Gh(H)           3.443294000000    -1.731569000000     0.452839000000     1.007825032230

  Charge       = 0
  Multiplicity = 1
  Basis Set: AUG-CC-PVTZ
    Blend: AUG-CC-PVTZ
  Basis Set: (AUG-CC-PVTZ AUX)
    Blend: AUG-CC-PVTZ-JKFIT + DEF2-UNIVERSAL-JKFIT

    Orbital Energies [Eh]
    ---------------------

    Doubly Occupied:

       1A    -20.570999     2A     -1.335347     3A     -0.706467
       4A     -0.572167     5A     -0.506712

  @DF-RHF Final Energy:   -76.05617608718161

   => Energetics <=

    Nuclear Repulsion Energy =              8.8884532966208507
    One-Electron Energy =                -122.5058685673014196
    Two-Electron Energy =                  37.5612391834989481
    Total Energy =                        -76.0561760871816261
 Dipole X            :         37.9392996          -38.2606518           -0.3213522
 Dipole Y            :         40.3370352          -40.8875544           -0.5505192
 Dipole Z            :          2.8854396           -3.3121192           -0.4266796
 Magnitude           :                                                    0.7670685
  Basis Set: (AUG-CC-PVTZ AUX)
    Blend: AUG-CC-PVTZ-RI + DEF2-QZVPP-RI
	 Reference Energy          =     -76.0561760871816119 [Eh]
	 Singles Energy            =      -0.0000000000000000 [Eh]
	 Same-Spin Energy          =      -0.0688948416424313 [Eh]
	 Opposite-Spin Energy      =      -0.2171900908887603 [Eh]
	 Correlation Energy        =      -0.2860849325311916 [Eh]
	 Total Energy              =     -76.3422610197128080 [Eh]

	 ================> DF-SCS-MP2 Energies <==================
	-----------------------------------------------------------
	 SCS Same-Spin Scale       =       0.3333333333333333 [-]
	 SCS Opposite-Spin Scale   =       1.2000000000000000 [-]
	 SCS Same-Spin Energy      =      -0.0229649472141438 [Eh]
	 SCS Opposite-Spin Energy  =      -0.2606281090665124 [Eh]
	 SCS Correlation Energy    =      -0.2835930562806562 [Eh]
	 SCS Total Energy          =     -76.3397691434622629 [Eh]
	-----------------------------------------------------------

*** Psi4 exiting successfully. Buy a developer a beer!
