                               Psi4 1.9 release

  ==> Input File <==

--------------------------------------------------------------------------
MEMORY 60 GB

molecule dimer {
1 1
K          0.000000     0.000000     0.000000
O          0.798245    -2.673232     0.586516
H          1.259072    -3.227763    -0.050608
H          1.531752    -2.180835     0.924560
O          1.063720    -0.518108     2.608119
H          1.747934    -1.086894     2.959635
H          0.362801    -0.538207     3.240479
O         -0.749147     2.531063     1.106211
H         -1.357034     2.493353     1.855151
H         -0.245091     3.336779     1.345826
O         -0.978931     1.576870    -1.879881
H         -0.514846     1.896055    -2.647649
H         -1.625313     0.989072    -2.202663

units ang
no_reorient
no_com
symmetry c1
}

set {
basis        aug-cc-pVTZ
scf_type     df
}

energy("mp2")
--------------------------------------------------------------------------

    Molecular point group: c1

    Geometry (in Angstrom), charge = 1, multiplicity = 1:

       Center              X                  Y                   Z               Mass
    ------------   -----------------  -----------------  -----------------  -----------------
         K            0.000000000000     0.000000000000     0.000000000000    38.963706486400
         O            0.798245000000    -2.673232000000     0.586516000000    15.994914619570
         H            1.259072000000    -3.227763000000    -0.050608000000     1.007825032230
         H            1.531752000000    -2.180835000000     0.924560000000     1.007825032230
         O            1.063720000000    -0.518108000000     2.608119000000    15.994914619570
         H            1.747934000000    -1.086894000000     2.959635000000     1.007825032230
         H            0.362801000000    -0.538207000000     3.240479000000     1.007825032230
         O           -0.749147000000     2.531063000000     1.106211000000    15.994914619570
         H           -1.357034000000     2.493353000000     1.855151000000     1.007825032230
         H           -0.245091000000     3.336779000000     1.345826000000     1.007825032230
         O           -0.978931000000     1.576870000000    -1.879881000000    15.994914619570
         H           -0.514846000000     1.896055000000    -2.647649000000     1.007825032230
         H           -1.625313000000     0.989072000000    -2.202663000000     1.007825032230

  Charge       = 1
  Multiplicity = 1
  Basis Set: AUG-CC-PVTZ
    Blend: AUG-CC-PVTZ
  Basis Set: (AUG-CC-PVTZ AUX)
    Blend: AUG-CC-PVTZ-JKFIT + DEF2-UNIVERSAL-JKFIT

    Orbital Energies [Eh]
    ---------------------

    Doubly Occupied:

       1A   -133.636807     2A    -20.719350     3A    -20.716015
       4A    -20.713872     5A    -20.707616     6A    -14.594217
       7A    -11.624261     8A    -11.624090     9A    -11.623934
      10A     -1.855533    11A     -1.515519    12A     -1.514973
      13A     -1.507630    14A     -1.487582    15A     -1.066979
      16A     -1.064516    17A     -1.061930    18A     -0.883333
      19A     -0.881338    20A     -0.857258    21A     -0.837497
      22A     -0.750852    23A     -0.747513    24A     -0.745880
      25A     -0.729947    26A     -0.669341    27A     -0.667777
      28A     -0.663068    29A     -0.649523

  @DF-RHF Final Energy:  -903.32040467892853

   => Energetics <=

    Nuclear Repulsion Energy =            251.8713100831209033
    One-Electron Energy =               -1738.1471233948132067
    Two-Electron Energy =                 582.9554086327636924
    Total Energy =                       -903.3204046789285258
 Dipole X            :         -3.6696598            4.2147903            0.5451306
 Dipole Y            :        -16.9814024           17.0345658            0.0531634
 Dipole Z            :        -46.3024519           46.8509424            0.5484904
 Magnitude           :                                                    0.7751358
  Basis Set: (AUG-CC-PVTZ AUX)
    Blend: AUG-CC-PVTZ-RI + DEF2-QZVPP-RI
	 Reference Energy          =    -903.3204046789285258 [Eh]
	 Singles Energy            =      -0.0000000000000000 [Eh]
	 Same-Spin Energy          =      -0.3120105727708373 [Eh]
	 Opposite-Spin Energy      =      -0.9472280209647617 [Eh]
	 Correlation Energy        =      -1.2592385937355990 [Eh]
	 Total Energy              =    -904.5796432726641569 [Eh]

	 ================> DF-SCS-MP2 Energies <==================
	-----------------------------------------------------------
	 SCS Same-Spin Scale       =       0.3333333333333333 [-]
	 SCS Opposite-Spin Scale   =       1.2000000000000000 [-]
	 SCS Same-Spin Energy      =      -0.1040035242569458 [Eh]
	 SCS Opposite-Spin Energy  =      -1.1366736251577139 [Eh]
	 SCS Correlation Energy    =      -1.2406771494146596 [Eh]
	 SCS Total Energy          =    -904.5610818283431627 [Eh]
	-----------------------------------------------------------

*** Psi4 exiting successfully. Buy a developer a beer!
