                               Psi4 1.9 release

  ==> Input File <==

--------------------------------------------------------------------------
MEMORY 60 GB

molecule dimer {
1 1
K          0.000000     0.000000     0.000000
O         -1.653313    -1.051616     1.936869
H         -2.526557    -0.873487     1.449054
H         -1.779450    -0.761161     2.807517
O         -2.044736    -1.095313    -1.390693
H         -2.246528    -2.079962    -1.231368
H         -2.476560    -0.777780    -2.210273
O         -0.390290     2.428068    -1.109074
H         -0.638411     2.714222    -0.228935
H         -0.928560     2.744767    -1.830555
O          2.661841    -0.753804    -0.332134
H          2.712180    -1.521938    -0.975578
H          3.496474    -0.827065     0.075169
O          0.849537     0.318983     2.782234
H          0.338813    -0.012639     3.567669
H          0.431354     1.159593     2.522927
O          0.745160    -1.502289    -2.481552
H          1.369940    -1.936199    -3.034574
H          0.164672    -2.234902    -2.237506

units ang
no_reorient
no_com
symmetry c1
}

set {
basis        aug-cc-pVTZ
scf_type     df
}

energy("mp2")
--------------------------------------------------------------------------

    Molecular point group: c1

    Geometry (in Angstrom), charge = 1, multiplicity = 1:

       Center              X                  Y                   Z               Mass
    ------------   -----------------  -----------------  -----------------  -----------------
         K            0.000000000000     0.000000000000     0.000000000000    38.963706486400
         O           -1.653313000000    -1.051616000000     1.936869000000    15.994914619570
         H           -2.526557000000    -0.873487000000     1.449054000000     1.007825032230
         H           -1.779450000000    -0.761161000000     2.807517000000     1.007825032230
         O           -2.044736000000    -1.095313000000    -1.390693000000    15.994914619570
         H           -2.246528000000    -2.079962000000    -1.231368000000     1.007825032230
         H           -2.476560000000    -0.777780000000    -2.210273000000     1.007825032230
         O           -0.390290000000     2.428068000000    -1.109074000000    15.994914619570
         H           -0.638411000000     2.714222000000    -0.228935000000     1.007825032230
         H           -0.928560000000     2.744767000000    -1.830555000000     1.007825032230
         O            2.661841000000    -0.753804000000    -0.332134000000    15.994914619570
         H            2.712180000000    -1.521938000000    -0.975578000000     1.007825032230
         H            3.496474000000    -0.827065000000     0.075169000000     1.007825032230
         O            0.849537000000     0.318983000000     2.782234000000    15.994914619570
         H            0.338813000000    -0.012639000000     3.567669000000     1.007825032230
         H            0.431354000000     1.159593000000     2.522927000000     1.007825032230
         O            0.745160000000    -1.502289000000    -2.481552000000    15.994914619570
         H            1.369940000000    -1.936199000000    -3.034574000000     1.007825032230
         H            0.164672000000    -2.234902000000    -2.237506000000     1.007825032230

  Charge       = 1
  Multiplicity = 1
  Basis Set: AUG-CC-PVTZ
    Blend: AUG-CC-PVTZ
  Basis Set: (AUG-CC-PVTZ AUX)
    Blend: AUG-CC-PVTZ-JKFIT + DEF2-UNIVERSAL-JKFIT

    Orbital Energies [Eh]
    ---------------------

    Doubly Occupied:

       1A   -133.593760     2A    -20.724481     3A    -20.713010
       4A    -20.705132     5A    -20.701883     6A    -20.698560
       7A    -20.685561     8A    -14.551519     9A    -11.581501
      10A    -11.581302    11A    -11.581253    12A     -1.814379
      13A     -1.496180    14A     -1.493167    15A     -1.492918
      16A     -1.486939    17A     -1.472647    18A     -1.470199
      19A     -1.028056    20A     -1.023714    21A     -1.022096
      22A     -0.886053    23A     -0.866825    24A     -0.860223
      25A     -0.847969    26A     -0.838790    27A     -0.822542
      28A     -0.732355    29A     -0.729867    30A     -0.725708
      31A     -0.715659    32A     -0.711215    33A     -0.709336
      34A     -0.665660    35A     -0.663136    36A     -0.654712
      37A     -0.644160    38A     -0.636252    39A     -0.629694

  @DF-RHF Final Energy: -1055.43638275298940

   => Energetics <=

    Nuclear Repulsion Energy =            452.8549992220177387
    One-Electron Energy =               -2348.0659230592209497
    Two-Electron Energy =                 839.7745410842136380
    Total Energy =                      -1055.4363827529896298
 Dipole X            :         -0.2600746           -1.3928056           -1.6528802
 Dipole Y            :         32.5699618          -33.3618278           -0.7918660
 Dipole Z            :         11.2218432          -11.4919027           -0.2700594
 Magnitude           :                                                    1.8525650
  Basis Set: (AUG-CC-PVTZ AUX)
    Blend: AUG-CC-PVTZ-RI + DEF2-QZVPP-RI
	 Reference Energy          =   -1055.4363827529894024 [Eh]
	 Singles Energy            =      -0.0000000000000000 [Eh]
	 Same-Spin Energy          =      -0.4573770153289804 [Eh]
	 Opposite-Spin Energy      =      -1.3964193458005245 [Eh]
	 Correlation Energy        =      -1.8537963611295050 [Eh]
	 Total Energy              =   -1057.2901791141189278 [Eh]

	 ================> DF-SCS-MP2 Energies <==================
	-----------------------------------------------------------
	 SCS Same-Spin Scale       =       0.3333333333333333 [-]
	 SCS Opposite-Spin Scale   =       1.2000000000000000 [-]
	 SCS Same-Spin Energy      =      -0.1524590051096601 [Eh]
	 SCS Opposite-Spin Energy  =      -1.6757032149606295 [Eh]
	 SCS Correlation Energy    =      -1.8281622200702896 [Eh]
	 SCS Total Energy          =   -1057.2645449730596283 [Eh]
	-----------------------------------------------------------

*** Psi4 exiting successfully. Buy a developer a beer!
