                               Psi4 1.9 release

  ==> Input File <==

--------------------------------------------------------------------------
MEMORY 60 GB

molecule dimer {
0 1
Gh(K)      0.000000     0.000000     0.000000
Gh(O)      2.396279     0.775608    -0.451841
Gh(H)      2.861485     0.358524    -1.212679
Gh(H)      2.964841     0.677780     0.338905
O         -0.804734     2.543152     1.001045
H         -0.610352     3.441400     0.770337
H         -0.791853     2.593161     1.934941
Gh(O)      1.230894    -1.869188    -1.275336
Gh(H)      1.585639    -1.664232    -2.153730
Gh(H)      1.204694    -2.795554    -1.187042
Gh(O)     -1.211205     1.758805    -1.667366
Gh(H)     -1.911099     2.172143    -1.102733
Gh(H)     -0.856874     2.386555    -2.247478
Gh(O)      0.894477    -0.492812     2.544623
Gh(H)      1.829653    -0.334025     2.571714
Gh(H)      0.668104    -0.888251     3.434370
Gh(O)     -1.983101    -1.526150     1.175537
Gh(H)     -2.303839    -1.002062     1.943197
Gh(H)     -1.706738    -2.417397     1.491046

units ang
no_reorient
no_com
symmetry c1
}

set {
basis        aug-cc-pVTZ
scf_type     df
}

energy("mp2")
--------------------------------------------------------------------------

    Molecular point group: c1

    Geometry (in Angstrom), charge = 0, multiplicity = 1:

       Center              X                  Y                   Z               Mass
    ------------   -----------------  -----------------  -----------------  -----------------
      Gh(K)           0.000000000000     0.000000000000     0.000000000000    38.963706486400
      Gh(O)           2.396279000000     0.775608000000    -0.451841000000    15.994914619570
      Gh(H)           2.861485000000     0.358524000000    -1.212679000000     1.007825032230
      Gh(H)           2.964841000000     0.677780000000     0.338905000000     1.007825032230
         O           -0.804734000000     2.543152000000     1.001045000000    15.994914619570
         H           -0.610352000000     3.441400000000     0.770337000000     1.007825032230
         H           -0.791853000000     2.593161000000     1.934941000000     1.007825032230
      Gh(O)           1.230894000000    -1.869188000000    -1.275336000000    15.994914619570
      Gh(H)           1.585639000000    -1.664232000000    -2.153730000000     1.007825032230
      Gh(H)           1.204694000000    -2.795554000000    -1.187042000000     1.007825032230
      Gh(O)          -1.211205000000     1.758805000000    -1.667366000000    15.994914619570
      Gh(H)          -1.911099000000     2.172143000000    -1.102733000000     1.007825032230
      Gh(H)          -0.856874000000     2.386555000000    -2.247478000000     1.007825032230
      Gh(O)           0.894477000000    -0.492812000000     2.544623000000    15.994914619570
      Gh(H)           1.829653000000    -0.334025000000     2.571714000000     1.007825032230
      Gh(H)           0.668104000000    -0.888251000000     3.434370000000     1.007825032230
      Gh(O)          -1.983101000000    -1.526150000000     1.175537000000    15.994914619570
      Gh(H)          -2.303839000000    -1.002062000000     1.943197000000     1.007825032230
      Gh(H)          -1.706738000000    -2.417397000000     1.491046000000     1.007825032230

  Charge       = 0
  Multiplicity = 1
  Basis Set: AUG-CC-PVTZ
    Blend: AUG-CC-PVTZ
  Basis Set: (AUG-CC-PVTZ AUX)
    Blend: AUG-CC-PVTZ-JKFIT + DEF2-UNIVERSAL-JKFIT

    Orbital Energies [Eh]
    ---------------------

    Doubly Occupied:

       1A    -20.565646     2A     -1.364629     3A     -0.719159
       4A     -0.595006     5A     -0.512664

  @DF-RHF Final Energy:   -76.06044343218271

   => Energetics <=

    Nuclear Repulsion Energy =              9.3582943097394828
    One-Electron Energy =                -123.3232662020875097
    Two-Electron Energy =                  37.9045284601653378
    Total Energy =                        -76.0604434321826943
 Dipole X            :         14.9528910          -14.8155983            0.1372926
 Dipole Y            :        -49.2214755           49.8505538            0.6290783
 Dipole Z            :        -19.7764828           20.2458416            0.4693589
 Magnitude           :                                                    0.7967977
  Basis Set: (AUG-CC-PVTZ AUX)
    Blend: AUG-CC-PVTZ-RI + DEF2-QZVPP-RI
	 Reference Energy          =     -76.0604434321827085 [Eh]
	 Singles Energy            =      -0.0000000000000000 [Eh]
	 Same-Spin Energy          =      -0.0681999535908141 [Eh]
	 Opposite-Spin Energy      =      -0.2150392713759876 [Eh]
	 Correlation Energy        =      -0.2832392249668018 [Eh]
	 Total Energy              =     -76.3436826571495146 [Eh]

	 ================> DF-SCS-MP2 Energies <==================
	-----------------------------------------------------------
	 SCS Same-Spin Scale       =       0.3333333333333333 [-]
	 SCS Opposite-Spin Scale   =       1.2000000000000000 [-]
	 SCS Same-Spin Energy      =      -0.0227333178636047 [Eh]
	 SCS Opposite-Spin Energy  =      -0.2580471256511851 [Eh]
	 SCS Correlation Energy    =      -0.2807804435147898 [Eh]
	 SCS Total Energy          =     -76.3412238756974943 [Eh]
	-----------------------------------------------------------

*** Psi4 exiting successfully. Buy a developer a beer!
