                               Psi4 1.9 release

  ==> Input File <==

--------------------------------------------------------------------------
MEMORY 60 GB

molecule dimer {
0 1
Gh(K)      0.000000     0.000000     0.000000
Gh(O)      1.071555     0.954094    -2.190576
Gh(H)      0.988044     0.627626    -3.082246
Gh(H)      2.033843     1.175330    -2.123700
Gh(O)      0.274950    -2.378870     1.386517
Gh(H)      1.061758    -2.885643     1.678485
Gh(H)     -0.286488    -2.176641     2.185497
Gh(O)     -2.600308    -0.631598     1.158703
Gh(H)     -3.127240     0.272988     1.162722
Gh(H)     -3.320091    -1.304406     1.282020
Gh(O)      1.663337     0.245190     1.974484
Gh(H)      1.864456    -0.680749     1.983483
Gh(H)      0.980603     0.492300     2.612029
O         -1.135864     2.411578    -0.478100
H         -1.659332     3.079461    -0.022507
H         -0.274050     2.843524    -0.678120

units ang
no_reorient
no_com
symmetry c1
}

set {
basis        aug-cc-pVTZ
scf_type     df
}

energy("mp2")
--------------------------------------------------------------------------

    Molecular point group: c1

    Geometry (in Angstrom), charge = 0, multiplicity = 1:

       Center              X                  Y                   Z               Mass
    ------------   -----------------  -----------------  -----------------  -----------------
      Gh(K)           0.000000000000     0.000000000000     0.000000000000    38.963706486400
      Gh(O)           1.071555000000     0.954094000000    -2.190576000000    15.994914619570
      Gh(H)           0.988044000000     0.627626000000    -3.082246000000     1.007825032230
      Gh(H)           2.033843000000     1.175330000000    -2.123700000000     1.007825032230
      Gh(O)           0.274950000000    -2.378870000000     1.386517000000    15.994914619570
      Gh(H)           1.061758000000    -2.885643000000     1.678485000000     1.007825032230
      Gh(H)          -0.286488000000    -2.176641000000     2.185497000000     1.007825032230
      Gh(O)          -2.600308000000    -0.631598000000     1.158703000000    15.994914619570
      Gh(H)          -3.127240000000     0.272988000000     1.162722000000     1.007825032230
      Gh(H)          -3.320091000000    -1.304406000000     1.282020000000     1.007825032230
      Gh(O)           1.663337000000     0.245190000000     1.974484000000    15.994914619570
      Gh(H)           1.864456000000    -0.680749000000     1.983483000000     1.007825032230
      Gh(H)           0.980603000000     0.492300000000     2.612029000000     1.007825032230
         O           -1.135864000000     2.411578000000    -0.478100000000    15.994914619570
         H           -1.659332000000     3.079461000000    -0.022507000000     1.007825032230
         H           -0.274050000000     2.843524000000    -0.678120000000     1.007825032230

  Charge       = 0
  Multiplicity = 1
  Basis Set: AUG-CC-PVTZ
    Blend: AUG-CC-PVTZ
  Basis Set: (AUG-CC-PVTZ AUX)
    Blend: AUG-CC-PVTZ-JKFIT + DEF2-UNIVERSAL-JKFIT

    Orbital Energies [Eh]
    ---------------------

    Doubly Occupied:

       1A    -20.569505     2A     -1.344518     3A     -0.710685
       4A     -0.579703     5A     -0.508687

  @DF-RHF Final Energy:   -76.05887523574148

   => Energetics <=

    Nuclear Repulsion Energy =              9.0365825557024522
    One-Electron Energy =                -122.7647180818196659
    Two-Electron Energy =                  37.6692602903757319
    Total Energy =                        -76.0588752357414819
 Dipole X            :         21.0454515          -20.8253375            0.2201140
 Dipole Y            :        -46.9236770           47.6505951            0.7269181
 Dipole Z            :          8.7218584           -8.5518176            0.1700408
 Magnitude           :                                                    0.7783148
  Basis Set: (AUG-CC-PVTZ AUX)
    Blend: AUG-CC-PVTZ-RI + DEF2-QZVPP-RI
	 Reference Energy          =     -76.0588752357414819 [Eh]
	 Singles Energy            =      -0.0000000000000000 [Eh]
	 Same-Spin Energy          =      -0.0686501640494799 [Eh]
	 Opposite-Spin Energy      =      -0.2163789944394655 [Eh]
	 Correlation Energy        =      -0.2850291584889454 [Eh]
	 Total Energy              =     -76.3439043942304210 [Eh]

	 ================> DF-SCS-MP2 Energies <==================
	-----------------------------------------------------------
	 SCS Same-Spin Scale       =       0.3333333333333333 [-]
	 SCS Opposite-Spin Scale   =       1.2000000000000000 [-]
	 SCS Same-Spin Energy      =      -0.0228833880164933 [Eh]
	 SCS Opposite-Spin Energy  =      -0.2596547933273585 [Eh]
	 SCS Correlation Energy    =      -0.2825381813438518 [Eh]
	 SCS Total Energy          =     -76.3414134170853345 [Eh]
	-----------------------------------------------------------

*** Psi4 exiting successfully. Buy a developer a beer!
