                               Psi4 1.9 release

  ==> Input File <==

--------------------------------------------------------------------------
MEMORY 60 GB

molecule dimer {
1 1
K          0.000000     0.000000     0.000000
O         -1.343909    -1.211403     2.099413
H         -1.253672    -2.078427     2.385455
H         -1.877420    -0.648745     2.704831
O         -2.397561     1.590145     0.274651
H         -3.158315     1.280604    -0.227144
H         -2.022053     2.285837    -0.218265
O         -2.079589    -1.111467    -1.864902
H         -2.298458    -0.195653    -2.049554
H         -2.680979    -1.325544    -1.093268
O          1.264225     2.555430     0.500886
H          0.862716     3.053670    -0.127152
H          2.168458     2.917047     0.643229
O          0.684809    -2.567000     0.519199
H          0.206735    -2.757309     1.321443
H          0.308697    -3.187476    -0.135128
O          1.071392    -0.945498    -2.247692
H          1.750392    -1.483034    -1.804775
H          0.594835    -1.550044    -2.831515

units ang
no_reorient
no_com
symmetry c1
}

set {
basis        aug-cc-pVTZ
scf_type     df
}

energy("mp2")
--------------------------------------------------------------------------

    Molecular point group: c1

    Geometry (in Angstrom), charge = 1, multiplicity = 1:

       Center              X                  Y                   Z               Mass
    ------------   -----------------  -----------------  -----------------  -----------------
         K            0.000000000000     0.000000000000     0.000000000000    38.963706486400
         O           -1.343909000000    -1.211403000000     2.099413000000    15.994914619570
         H           -1.253672000000    -2.078427000000     2.385455000000     1.007825032230
         H           -1.877420000000    -0.648745000000     2.704831000000     1.007825032230
         O           -2.397561000000     1.590145000000     0.274651000000    15.994914619570
         H           -3.158315000000     1.280604000000    -0.227144000000     1.007825032230
         H           -2.022053000000     2.285837000000    -0.218265000000     1.007825032230
         O           -2.079589000000    -1.111467000000    -1.864902000000    15.994914619570
         H           -2.298458000000    -0.195653000000    -2.049554000000     1.007825032230
         H           -2.680979000000    -1.325544000000    -1.093268000000     1.007825032230
         O            1.264225000000     2.555430000000     0.500886000000    15.994914619570
         H            0.862716000000     3.053670000000    -0.127152000000     1.007825032230
         H            2.168458000000     2.917047000000     0.643229000000     1.007825032230
         O            0.684809000000    -2.567000000000     0.519199000000    15.994914619570
         H            0.206735000000    -2.757309000000     1.321443000000     1.007825032230
         H            0.308697000000    -3.187476000000    -0.135128000000     1.007825032230
         O            1.071392000000    -0.945498000000    -2.247692000000    15.994914619570
         H            1.750392000000    -1.483034000000    -1.804775000000     1.007825032230
         H            0.594835000000    -1.550044000000    -2.831515000000     1.007825032230

  Charge       = 1
  Multiplicity = 1
  Basis Set: AUG-CC-PVTZ
    Blend: AUG-CC-PVTZ
  Basis Set: (AUG-CC-PVTZ AUX)
    Blend: AUG-CC-PVTZ-JKFIT + DEF2-UNIVERSAL-JKFIT

    Orbital Energies [Eh]
    ---------------------

    Doubly Occupied:

       1A   -133.597333     2A    -20.720305     3A    -20.715127
       4A    -20.715063     5A    -20.714224     6A    -20.701455
       7A    -20.698939     8A    -14.555202     9A    -11.585104
      10A    -11.585005    11A    -11.584946    12A     -1.818356
      13A     -1.516001    14A     -1.510958    15A     -1.503251
      16A     -1.498984    17A     -1.489482    18A     -1.481594
      19A     -1.029980    20A     -1.028111    21A     -1.027037
      22A     -0.900566    23A     -0.884621    24A     -0.874617
      25A     -0.858878    26A     -0.847871    27A     -0.844897
      28A     -0.743274    29A     -0.738212    30A     -0.732868
      31A     -0.730447    32A     -0.727408    33A     -0.718900
      34A     -0.672275    35A     -0.665988    36A     -0.661475
      37A     -0.655136    38A     -0.653376    39A     -0.642733

  @DF-RHF Final Energy: -1055.44621519249745

   => Energetics <=

    Nuclear Repulsion Energy =            456.4967620696161248
    One-Electron Energy =               -2354.6259481759811933
    Two-Electron Energy =                 842.6829709138676208
    Total Energy =                      -1055.4462151924974478
 Dipole X            :         54.9768841          -56.3216393           -1.3447552
 Dipole Y            :         32.2427258          -32.5173073           -0.2745815
 Dipole Z            :         13.6164283          -13.5671054            0.0493229
 Magnitude           :                                                    1.3733879
  Basis Set: (AUG-CC-PVTZ AUX)
    Blend: AUG-CC-PVTZ-RI + DEF2-QZVPP-RI
	 Reference Energy          =   -1055.4462151924974478 [Eh]
	 Singles Energy            =      -0.0000000000000000 [Eh]
	 Same-Spin Energy          =      -0.4558346730453527 [Eh]
	 Opposite-Spin Energy      =      -1.3921578895603668 [Eh]
	 Correlation Energy        =      -1.8479925626057194 [Eh]
	 Total Energy              =   -1057.2942077551031161 [Eh]

	 ================> DF-SCS-MP2 Energies <==================
	-----------------------------------------------------------
	 SCS Same-Spin Scale       =       0.3333333333333333 [-]
	 SCS Opposite-Spin Scale   =       1.2000000000000000 [-]
	 SCS Same-Spin Energy      =      -0.1519448910151175 [Eh]
	 SCS Opposite-Spin Energy  =      -1.6705894674724402 [Eh]
	 SCS Correlation Energy    =      -1.8225343584875577 [Eh]
	 SCS Total Energy          =   -1057.2687495509849214 [Eh]
	-----------------------------------------------------------

*** Psi4 exiting successfully. Buy a developer a beer!
