                               Psi4 1.9 release

  ==> Input File <==

--------------------------------------------------------------------------
MEMORY 60 GB

molecule dimer {
1 1
K          0.000000     0.000000     0.000000
O          0.943634     1.540384    -2.239203
H          1.835162     1.914466    -2.211791
H          0.256757     2.195615    -2.041790
O         -1.920742    -0.633797    -1.813826
H         -2.580219    -1.072039    -1.329826
H         -2.116309     0.283541    -1.612310
O         -1.787723     1.870031     1.131142
H         -2.161469     2.114690     0.289051
H         -1.202138     2.601312     1.399681
O          0.489597    -2.771440    -0.697134
H          1.059577    -2.807431    -1.496358
H          0.870276    -3.282004     0.035325

units ang
no_reorient
no_com
symmetry c1
}

set {
basis        aug-cc-pVTZ
scf_type     df
}

energy("mp2")
--------------------------------------------------------------------------

    Molecular point group: c1

    Geometry (in Angstrom), charge = 1, multiplicity = 1:

       Center              X                  Y                   Z               Mass
    ------------   -----------------  -----------------  -----------------  -----------------
         K            0.000000000000     0.000000000000     0.000000000000    38.963706486400
         O            0.943634000000     1.540384000000    -2.239203000000    15.994914619570
         H            1.835162000000     1.914466000000    -2.211791000000     1.007825032230
         H            0.256757000000     2.195615000000    -2.041790000000     1.007825032230
         O           -1.920742000000    -0.633797000000    -1.813826000000    15.994914619570
         H           -2.580219000000    -1.072039000000    -1.329826000000     1.007825032230
         H           -2.116309000000     0.283541000000    -1.612310000000     1.007825032230
         O           -1.787723000000     1.870031000000     1.131142000000    15.994914619570
         H           -2.161469000000     2.114690000000     0.289051000000     1.007825032230
         H           -1.202138000000     2.601312000000     1.399681000000     1.007825032230
         O            0.489597000000    -2.771440000000    -0.697134000000    15.994914619570
         H            1.059577000000    -2.807431000000    -1.496358000000     1.007825032230
         H            0.870276000000    -3.282004000000     0.035325000000     1.007825032230

  Charge       = 1
  Multiplicity = 1
  Basis Set: AUG-CC-PVTZ
    Blend: AUG-CC-PVTZ
  Basis Set: (AUG-CC-PVTZ AUX)
    Blend: AUG-CC-PVTZ-JKFIT + DEF2-UNIVERSAL-JKFIT

    Orbital Energies [Eh]
    ---------------------

    Doubly Occupied:

       1A   -133.653333     2A    -20.743084     3A    -20.728281
       4A    -20.722513     5A    -20.710315     6A    -14.610503
       7A    -11.640476     8A    -11.640389     9A    -11.640275
      10A     -1.871327    11A     -1.527058    12A     -1.523071
      13A     -1.507296    14A     -1.484229    15A     -1.082518
      16A     -1.079697    17A     -1.077488    18A     -0.895007
      19A     -0.890412    20A     -0.876287    21A     -0.863210
      22A     -0.757912    23A     -0.751428    24A     -0.733184
      25A     -0.717291    26A     -0.689447    27A     -0.673800
      28A     -0.672624    29A     -0.653849

  @DF-RHF Final Energy:  -903.30247018707848

   => Energetics <=

    Nuclear Repulsion Energy =            251.6900104777770366
    One-Electron Energy =               -1737.1523477146097321
    Two-Electron Energy =                 582.1598670497543253
    Total Energy =                       -903.3024701870784838
 Dipole X            :         42.2471887          -42.0279531            0.2192356
 Dipole Y            :         -2.5402428            3.7597500            1.2195072
 Dipole Z            :         67.7639688          -67.8793139           -0.1153451
 Magnitude           :                                                    1.2444141
  Basis Set: (AUG-CC-PVTZ AUX)
    Blend: AUG-CC-PVTZ-RI + DEF2-QZVPP-RI
	 Reference Energy          =    -903.3024701870784838 [Eh]
	 Singles Energy            =      -0.0000000000000000 [Eh]
	 Same-Spin Energy          =      -0.3126225690578699 [Eh]
	 Opposite-Spin Energy      =      -0.9494799726575935 [Eh]
	 Correlation Energy        =      -1.2621025417154634 [Eh]
	 Total Energy              =    -904.5645727287939053 [Eh]

	 ================> DF-SCS-MP2 Energies <==================
	-----------------------------------------------------------
	 SCS Same-Spin Scale       =       0.3333333333333333 [-]
	 SCS Opposite-Spin Scale   =       1.2000000000000000 [-]
	 SCS Same-Spin Energy      =      -0.1042075230192900 [Eh]
	 SCS Opposite-Spin Energy  =      -1.1393759671891122 [Eh]
	 SCS Correlation Energy    =      -1.2435834902084022 [Eh]
	 SCS Total Energy          =    -904.5460536772868636 [Eh]
	-----------------------------------------------------------

*** Psi4 exiting successfully. Buy a developer a beer!
