                               Psi4 1.9 release

  ==> Input File <==

--------------------------------------------------------------------------
MEMORY 60 GB

molecule dimer {
0 1
Gh(K)      0.000000     0.000000     0.000000
O          1.380814     0.870128    -2.552071
H          0.720240     1.596362    -2.443970
H          1.177395     0.252244    -3.293213
Gh(O)      1.273503     1.903801     1.295069
Gh(H)      1.989230     1.514260     1.865592
Gh(H)      0.801927     2.486720     1.867390
Gh(O)     -2.462575     1.133906     0.643205
Gh(H)     -2.766838     0.224028     0.624927
Gh(H)     -2.781846     1.533607    -0.169164
Gh(O)     -2.169681    -1.506407    -1.529652
Gh(H)     -2.399596    -2.128795    -2.205315
Gh(H)     -2.797931    -0.796605    -1.523323
Gh(O)      1.163535    -1.097883     2.056202
Gh(H)      2.105116    -0.983745     2.128536
Gh(H)      0.817248    -1.314531     2.991563

units ang
no_reorient
no_com
symmetry c1
}

set {
basis        aug-cc-pVTZ
scf_type     df
}

energy("mp2")
--------------------------------------------------------------------------

    Molecular point group: c1

    Geometry (in Angstrom), charge = 0, multiplicity = 1:

       Center              X                  Y                   Z               Mass
    ------------   -----------------  -----------------  -----------------  -----------------
      Gh(K)           0.000000000000     0.000000000000     0.000000000000    38.963706486400
         O            1.380814000000     0.870128000000    -2.552071000000    15.994914619570
         H            0.720240000000     1.596362000000    -2.443970000000     1.007825032230
         H            1.177395000000     0.252244000000    -3.293213000000     1.007825032230
      Gh(O)           1.273503000000     1.903801000000     1.295069000000    15.994914619570
      Gh(H)           1.989230000000     1.514260000000     1.865592000000     1.007825032230
      Gh(H)           0.801927000000     2.486720000000     1.867390000000     1.007825032230
      Gh(O)          -2.462575000000     1.133906000000     0.643205000000    15.994914619570
      Gh(H)          -2.766838000000     0.224028000000     0.624927000000     1.007825032230
      Gh(H)          -2.781846000000     1.533607000000    -0.169164000000     1.007825032230
      Gh(O)          -2.169681000000    -1.506407000000    -1.529652000000    15.994914619570
      Gh(H)          -2.399596000000    -2.128795000000    -2.205315000000     1.007825032230
      Gh(H)          -2.797931000000    -0.796605000000    -1.523323000000     1.007825032230
      Gh(O)           1.163535000000    -1.097883000000     2.056202000000    15.994914619570
      Gh(H)           2.105116000000    -0.983745000000     2.128536000000     1.007825032230
      Gh(H)           0.817248000000    -1.314531000000     2.991563000000     1.007825032230

  Charge       = 0
  Multiplicity = 1
  Basis Set: AUG-CC-PVTZ
    Blend: AUG-CC-PVTZ
  Basis Set: (AUG-CC-PVTZ AUX)
    Blend: AUG-CC-PVTZ-JKFIT + DEF2-UNIVERSAL-JKFIT

    Orbital Energies [Eh]
    ---------------------

    Doubly Occupied:

       1A    -20.567587     2A     -1.332617     3A     -0.717822
       4A     -0.561398     5A     -0.504927

  @DF-RHF Final Energy:   -76.05501904849487

   => Energetics <=

    Nuclear Repulsion Energy =              8.8991728346649577
    One-Electron Energy =                -122.5396788737483718
    Two-Electron Energy =                  37.5854869905885494
    Total Energy =                        -76.0550190484948700
 Dipole X            :        -25.0417035           24.4608928           -0.5808108
 Dipole Y            :        -16.5750499           16.6477880            0.0727380
 Dipole Z            :         48.9975552          -49.4234265           -0.4258713
 Magnitude           :                                                    0.7238773
  Basis Set: (AUG-CC-PVTZ AUX)
    Blend: AUG-CC-PVTZ-RI + DEF2-QZVPP-RI
	 Reference Energy          =     -76.0550190484948700 [Eh]
	 Singles Energy            =      -0.0000000000000000 [Eh]
	 Same-Spin Energy          =      -0.0687989782396756 [Eh]
	 Opposite-Spin Energy      =      -0.2166516664767424 [Eh]
	 Correlation Energy        =      -0.2854506447164181 [Eh]
	 Total Energy              =     -76.3404696932112898 [Eh]

	 ================> DF-SCS-MP2 Energies <==================
	-----------------------------------------------------------
	 SCS Same-Spin Scale       =       0.3333333333333333 [-]
	 SCS Opposite-Spin Scale   =       1.2000000000000000 [-]
	 SCS Same-Spin Energy      =      -0.0229329927465585 [Eh]
	 SCS Opposite-Spin Energy  =      -0.2599819997720909 [Eh]
	 SCS Correlation Energy    =      -0.2829149925186494 [Eh]
	 SCS Total Energy          =     -76.3379340410135256 [Eh]
	-----------------------------------------------------------

*** Psi4 exiting successfully. Buy a developer a beer!
