                               Psi4 1.9 release

  ==> Input File <==

--------------------------------------------------------------------------
MEMORY 60 GB

molecule dimer {
1 1
K      0.000000     0.000000     0.000000
--
0 1
O      0.309615    -2.623382    -1.550755
H      0.073529    -3.411695    -2.042004
H      0.732044    -2.924054    -0.731434
O     -2.529295     1.007717     0.149432
H     -3.031134     1.319525    -0.599291
H     -2.665484     0.041905     0.322961
O      1.728418     1.676356     0.611770
H      1.306700     2.209773     1.232986
H      2.018027     2.273752    -0.126886
O      0.635505    -0.312124     2.701636
H     -0.164451    -0.813360     3.054926
H      0.947635     0.214693     3.417860
O      0.007774     0.682534    -2.427733
H     -0.877989     0.809481    -2.864264
H      0.577915     0.435714    -3.144891

units ang
no_reorient
no_com
symmetry c1
}

set {
basis        aug-cc-pVTZ
scf_type     df
}

energy("mp2", bsse_type="cp")
--------------------------------------------------------------------------

                               Psi4 1.9 release
    Molecular point group: c1
  Charge       = 0
  Multiplicity = 1
  Basis Set: AUG-CC-PVTZ
    Blend: AUG-CC-PVTZ
  Basis Set: (AUG-CC-PVTZ AUX)
    Blend: AUG-CC-PVTZ-JKFIT + DEF2-UNIVERSAL-JKFIT
  @DF-RHF Final Energy:  -380.27916133390977
    Total Energy =                       -380.2791613339097694
 Dipole X            :         -1.1273397            0.2511975           -0.8761422
 Dipole Y            :         -7.3263577            6.8115972           -0.5147605
 Dipole Z            :         10.3126541          -10.5923628           -0.2797087
 Magnitude           :                                                    1.0539642
  Basis Set: (AUG-CC-PVTZ AUX)
    Blend: AUG-CC-PVTZ-RI + DEF2-QZVPP-RI
	 Reference Energy          =    -380.2791613339097694 [Eh]
	 Singles Energy            =      -0.0000000000000000 [Eh]
	 Same-Spin Energy          =      -0.3443553304622536 [Eh]
	 Opposite-Spin Energy      =      -1.0824917831681056 [Eh]
	 Correlation Energy        =      -1.4268471136303591 [Eh]
	 Total Energy              =    -381.7060084475401140 [Eh]
	 SCS Total Energy          =    -381.6929365838655599 [Eh]
                               Psi4 1.9 release
    Molecular point group: c1
  Multiplicity = 1
  Basis Set: AUG-CC-PVTZ
    Blend: AUG-CC-PVTZ
  Basis Set: (AUG-CC-PVTZ AUX)
    Blend: AUG-CC-PVTZ-JKFIT + DEF2-UNIVERSAL-JKFIT
  @DF-RHF Final Energy:  -599.01751635761730
    Total Energy =                       -599.0175163576172963
  Basis Set: (AUG-CC-PVTZ AUX)
	 Singles Energy            =      -0.0000000000000000 [Eh]
	 Same-Spin Energy          =      -0.0379791767142349 [Eh]
	 Opposite-Spin Energy      =      -0.0928554191052966 [Eh]
	 Correlation Energy        =      -0.1308345958195316 [Eh]
	 Total Energy              =    -599.1483509534368750 [Eh]
	 SCS Total Energy          =    -599.1416025861150274 [Eh]
                               Psi4 1.9 release
    Molecular point group: c1

    Geometry (in Bohr), charge = 1, multiplicity = 1:

       Center              X                  Y                   Z               Mass
    ------------   -----------------  -----------------  -----------------  -----------------
         K            0.000000000000     0.000000000000     0.000000000000    38.963706486400
         O            0.585087554334    -4.957473502456    -2.930502237684    15.994914619570
         H            0.138949672279    -6.447169173594    -3.858828307089     1.007825032230
         H            1.383362671785    -5.525661236049    -1.382209938848     1.007825032230
         O           -4.779674840490     1.904309141968     0.282385554379    15.994914619570
         H           -5.728013109563     2.493540865695    -1.132495859452     1.007825032230
         H           -5.037034751790     0.079188973287     0.610307839204     1.007825032230
         O            3.266236650312     3.167853728768     1.156077751771    15.994914619570
         H            2.469305128136     4.175865769431     2.330005856524     1.007825032230
         H            3.813518343779     4.296768557212    -0.239779789155     1.007825032230
         O            1.200930401359    -0.589828877182     5.105352130677    15.994914619570
         H           -0.310767351058    -1.537027641402     5.772973473540     1.007825032230
         H            1.790770616898     0.405710971053     6.458819335157     1.007825032230
         O            0.014690730899     1.289802331313    -4.587750475736    15.994914619570
         H           -1.659158751165     1.529697393762    -5.412674511008     1.007825032230
         H            1.092101073794     0.823380129028    -5.942982684417     1.007825032230

  Charge       = 1
  Multiplicity = 1
  Basis Set: AUG-CC-PVTZ
    Blend: AUG-CC-PVTZ
  Basis Set: (AUG-CC-PVTZ AUX)
    Blend: AUG-CC-PVTZ-JKFIT + DEF2-UNIVERSAL-JKFIT

    Orbital Energies [Eh]
    ---------------------

    Doubly Occupied:

       1A   -133.598351     2A    -20.719425     3A    -20.716480
       4A    -20.712713     5A    -20.706647     6A    -20.703035
       7A    -14.557059     8A    -11.586853     9A    -11.586823
      10A    -11.586662    11A     -1.823091    12A     -1.501703
      13A     -1.499616    14A     -1.497781    15A     -1.490522
      16A     -1.485768    17A     -1.036561    18A     -1.033831
      19A     -1.032907    20A     -0.879681    21A     -0.868344
      22A     -0.859066    23A     -0.856239    24A     -0.855374
      25A     -0.743998    26A     -0.735747    27A     -0.724223
      28A     -0.723301    29A     -0.721040    30A     -0.664829
      31A     -0.662722    32A     -0.658733    33A     -0.655469
      34A     -0.647092

  @DF-RHF Final Energy:  -979.37838140644953

   => Energetics <=

    Nuclear Repulsion Energy =            350.6401547982894726
    One-Electron Energy =               -2039.7736943978716226
    Two-Electron Energy =                 709.7551581931325018
    Total Energy =                       -979.3783814064495346
 Dipole X            :         -1.0942353            0.2511975           -0.8430378
 Dipole Y            :         -7.1259310            6.8115972           -0.3143338
 Dipole Z            :         10.1905691          -10.5923628           -0.4017937
 Magnitude           :                                                    0.9853713
  Basis Set: (AUG-CC-PVTZ AUX)
    Blend: AUG-CC-PVTZ-RI + DEF2-QZVPP-RI
	 Reference Energy          =    -979.3783814064495346 [Eh]
	 Singles Energy            =      -0.0000000000000000 [Eh]
	 Same-Spin Energy          =      -0.3862352116906454 [Eh]
	 Opposite-Spin Energy      =      -1.1752680792914594 [Eh]
	 Correlation Energy        =      -1.5615032909821047 [Eh]
	 Total Energy              =    -980.9398846974316939 [Eh]

	 ================> DF-SCS-MP2 Energies <==================
	-----------------------------------------------------------
	 SCS Same-Spin Scale       =       0.3333333333333333 [-]
	 SCS Opposite-Spin Scale   =       1.2000000000000000 [-]
	 SCS Same-Spin Energy      =      -0.1287450705635484 [Eh]
	 SCS Opposite-Spin Energy  =      -1.4103216951497513 [Eh]
	 SCS Correlation Energy    =      -1.5390667657132997 [Eh]
	 SCS Total Energy          =    -980.9174481721628354 [Eh]
	-----------------------------------------------------------

*** Psi4 exiting successfully. Buy a developer a beer!
