                               Psi4 1.9 release

  ==> Input File <==

--------------------------------------------------------------------------
MEMORY 60 GB

molecule dimer {
1 1
K      0.000000     0.000000     0.000000
--
0 1
O     -1.249687    -2.212479     0.364535
H     -2.209513    -2.240427     0.194993
H     -1.217501    -2.449956     1.323026
O     -0.848192     2.494283    -0.608818
H     -1.728060     2.614033    -0.331862
H     -0.360729     3.287164    -0.498154
O     -0.354819     1.551553     2.420581
H      0.571155     1.863402     2.412682
H     -0.844927     2.239234     1.996701
O      1.824471     1.246239    -1.492036
H      2.780868     1.330448    -1.240610
H      1.596086     1.819060    -2.215030

units ang
no_reorient
no_com
symmetry c1
}

set {
basis        aug-cc-pVTZ
scf_type     df
}

energy("mp2", bsse_type="cp")
--------------------------------------------------------------------------

                               Psi4 1.9 release
    Molecular point group: c1
  Charge       = 0
  Multiplicity = 1
  Basis Set: AUG-CC-PVTZ
    Blend: AUG-CC-PVTZ
  Basis Set: (AUG-CC-PVTZ AUX)
    Blend: AUG-CC-PVTZ-JKFIT + DEF2-UNIVERSAL-JKFIT
  @DF-RHF Final Energy:  -304.22707783560924
    Total Energy =                       -304.2270778356092364
 Dipole X            :         12.0715642          -12.1668826           -0.0953184
 Dipole Y            :        -61.0630810           62.5494170            1.4863360
 Dipole Z            :        -13.3491159           13.4469925            0.0978766
 Magnitude           :                                                    1.4926018
  Basis Set: (AUG-CC-PVTZ AUX)
    Blend: AUG-CC-PVTZ-RI + DEF2-QZVPP-RI
	 Reference Energy          =    -304.2270778356092364 [Eh]
	 Singles Energy            =      -0.0000000000000000 [Eh]
	 Same-Spin Energy          =      -0.2752025382131450 [Eh]
	 Opposite-Spin Energy      =      -0.8646663477621165 [Eh]
	 Correlation Energy        =      -1.1398688859752615 [Eh]
	 Total Energy              =    -305.3669467215844975 [Eh]
	 SCS Total Energy          =    -305.3564116323281610 [Eh]
                               Psi4 1.9 release
    Molecular point group: c1
  Multiplicity = 1
  Basis Set: AUG-CC-PVTZ
    Blend: AUG-CC-PVTZ
  Basis Set: (AUG-CC-PVTZ AUX)
    Blend: AUG-CC-PVTZ-JKFIT + DEF2-UNIVERSAL-JKFIT
  @DF-RHF Final Energy:  -599.01751485389627
    Total Energy =                       -599.0175148538963867
  Basis Set: (AUG-CC-PVTZ AUX)
	 Singles Energy            =      -0.0000000000000000 [Eh]
	 Same-Spin Energy          =      -0.0355919053061840 [Eh]
	 Opposite-Spin Energy      =      -0.0862547564047597 [Eh]
	 Correlation Energy        =      -0.1218466617109436 [Eh]
	 Total Energy              =    -599.1393615156072201 [Eh]
	 SCS Total Energy          =    -599.1328845300173498 [Eh]
                               Psi4 1.9 release
    Molecular point group: c1

    Geometry (in Bohr), charge = 1, multiplicity = 1:

       Center              X                  Y                   Z               Mass
    ------------   -----------------  -----------------  -----------------  -----------------
         K            0.000000000000     0.000000000000     0.000000000000    38.963706486400
         O           -2.361566172545    -4.180979368327     0.688871313144    15.994914619570
         H           -4.175374440639    -4.233793434081     0.368483366381     1.007825032230
         H           -2.300743447471    -4.629745859422     2.500156796860     1.007825032230
         O           -1.602850581804     4.713511749385    -1.150499280249    15.994914619570
         H           -3.265560128359     4.939806452909    -0.627128291447     1.007825032230
         H           -0.681679015510     6.211839689464    -0.941374628301     1.007825032230
         O           -0.670510734109     2.932010239132     4.574235154487    15.994914619570
         H            1.079326525186     3.521319441630     4.559308207822     1.007825032230
         H           -1.596680626005     4.231538990813     3.773218044428     1.007825032230
         O            3.447750513840     2.355050396864    -2.819539409324    15.994914619570
         H            5.255078911050     2.514182344163    -2.344413128504     1.007825032230
         H            3.016165412677     3.437525205775    -4.185800059673     1.007825032230

  Charge       = 1
  Multiplicity = 1
  Basis Set: AUG-CC-PVTZ
    Blend: AUG-CC-PVTZ
  Basis Set: (AUG-CC-PVTZ AUX)
    Blend: AUG-CC-PVTZ-JKFIT + DEF2-UNIVERSAL-JKFIT

    Orbital Energies [Eh]
    ---------------------

    Doubly Occupied:

       1A   -133.621257     2A    -20.727868     3A    -20.727801
       4A    -20.720625     5A    -20.717005     6A    -14.579357
       7A    -11.609307     8A    -11.609157     9A    -11.609018
      10A     -1.842995    11A     -1.533475    12A     -1.504809
      13A     -1.503665    14A     -1.500393    15A     -1.054783
      16A     -1.052406    17A     -1.051816    18A     -0.912343
      19A     -0.880240    20A     -0.867523    21A     -0.857122
      22A     -0.757917    23A     -0.750832    24A     -0.736922
      25A     -0.733632    26A     -0.686781    27A     -0.671932
      28A     -0.666242    29A     -0.660391

  @DF-RHF Final Energy:  -903.31961789444722

   => Energetics <=

    Nuclear Repulsion Energy =            258.3065873776579338
    One-Electron Energy =               -1750.9571770782399653
    Two-Electron Energy =                 589.3309718061348121
    Total Energy =                       -903.3196178944472194
 Dipole X            :         12.0094640          -12.1668826           -0.1574186
 Dipole Y            :        -60.7811407           62.5494170            1.7682762
 Dipole Z            :        -13.3106781           13.4469925            0.1363145
 Magnitude           :                                                    1.7804952
  Basis Set: (AUG-CC-PVTZ AUX)
    Blend: AUG-CC-PVTZ-RI + DEF2-QZVPP-RI
	 Reference Energy          =    -903.3196178944472194 [Eh]
	 Singles Energy            =      -0.0000000000000000 [Eh]
	 Same-Spin Energy          =      -0.3138221346840435 [Eh]
	 Opposite-Spin Energy      =      -0.9509127860109399 [Eh]
	 Correlation Energy        =      -1.2647349206949834 [Eh]
	 Total Energy              =    -904.5843528151422106 [Eh]

	 ================> DF-SCS-MP2 Energies <==================
	-----------------------------------------------------------
	 SCS Same-Spin Scale       =       0.3333333333333333 [-]
	 SCS Opposite-Spin Scale   =       1.2000000000000000 [-]
	 SCS Same-Spin Energy      =      -0.1046073782280145 [Eh]
	 SCS Opposite-Spin Energy  =      -1.1410953432131279 [Eh]
	 SCS Correlation Energy    =      -1.2457027214411425 [Eh]
	 SCS Total Energy          =    -904.5653206158883677 [Eh]
	-----------------------------------------------------------

*** Psi4 exiting successfully. Buy a developer a beer!
