                               Psi4 1.9 release

  ==> Input File <==

--------------------------------------------------------------------------
MEMORY 60 GB

molecule dimer {
-1 1
F      0.000000     0.000000     0.000000
--
0 1
O     -1.204616    -0.136785     2.716651
H     -0.764095     0.061585     1.873340
H     -0.834247    -0.946190     3.055175
O     -2.460796     0.663282    -0.931792
H     -1.503367     0.475959    -0.909133
H     -2.899102    -0.181671    -1.051267
O     -0.180675     2.936706    -0.188779
H      0.620744     3.487452    -0.094289
H      0.182580     2.104557    -0.393553
O     -1.696100    -2.154749    -0.360661
H     -0.850512    -1.713972    -0.187306
H     -2.184590    -2.113638     0.460314
O      2.323319     0.756460     1.937201
H      2.977037     0.096931     1.837480
H      1.649232     0.600110     1.235624
O      2.482985     0.570779    -1.259187
H      1.623031     0.282269    -0.820127
H      2.415357     1.553745    -1.408463

units ang
no_reorient
no_com
symmetry c1
}

set {
basis        aug-cc-pVTZ
scf_type     df
}

energy("mp2", bsse_type="cp")
--------------------------------------------------------------------------

                               Psi4 1.9 release
    Molecular point group: c1
  Charge       = 0
  Multiplicity = 1
  Basis Set: AUG-CC-PVTZ
    Blend: AUG-CC-PVTZ
  Basis Set: (AUG-CC-PVTZ AUX)
    Blend: AUG-CC-PVTZ-JKFIT
  @DF-RHF Final Energy:  -456.32894061716456
    Total Energy =                       -456.3289406171645624
 Dipole X            :         11.5677240          -10.3084485            1.2592755
 Dipole Y            :        -47.8253888           46.8513770           -0.9740118
 Dipole Z            :        -35.8171435           35.7257618           -0.0913816
 Magnitude           :                                                    1.5946236
  Basis Set: (AUG-CC-PVTZ AUX)
    Blend: AUG-CC-PVTZ-RI
	 Reference Energy          =    -456.3289406171645624 [Eh]
	 Singles Energy            =      -0.0000000000000000 [Eh]
	 Same-Spin Energy          =      -0.4155151361362259 [Eh]
	 Opposite-Spin Energy      =      -1.3046780069228643 [Eh]
	 Correlation Energy        =      -1.7201931430590902 [Eh]
	 Total Energy              =    -458.0491337602236399 [Eh]
	 SCS Total Energy          =    -458.0330592708507425 [Eh]
                               Psi4 1.9 release
    Molecular point group: c1
  Multiplicity = 1
  Basis Set: AUG-CC-PVTZ
    Blend: AUG-CC-PVTZ
  Basis Set: (AUG-CC-PVTZ AUX)
    Blend: AUG-CC-PVTZ-JKFIT
  @DF-RHF Final Energy:   -99.45113719981502
    Total Energy =                        -99.4511371998150224
  Basis Set: (AUG-CC-PVTZ AUX)
	 Singles Energy            =      -0.0000000000000000 [Eh]
	 Same-Spin Energy          =      -0.0820413762011218 [Eh]
	 Opposite-Spin Energy      =      -0.2299004246847947 [Eh]
	 Correlation Energy        =      -0.3119418008859164 [Eh]
	 Total Energy              =     -99.7630790007009409 [Eh]
	 SCS Total Energy          =     -99.7543648348371477 [Eh]
                               Psi4 1.9 release
    Molecular point group: c1

    Geometry (in Bohr), charge = -1, multiplicity = 1:

       Center              X                  Y                   Z               Mass
    ------------   -----------------  -----------------  -----------------  -----------------
         F            0.000000000000     0.000000000000     0.000000000000    18.998403162730
         O           -2.276394326345    -0.258486188071     5.133726368451    15.994914619570
         H           -1.443930283832     0.116378783436     3.540099539865     1.007825032230
         H           -1.576498350985    -1.788039962647     5.773444015346     1.007825032230
         O           -4.650230490622     1.253421323946    -1.760831685893    15.994914619570
         H           -2.840951896051     0.899432156947    -1.718012381616     1.007825032230
         H           -5.478508789767    -0.343308434938    -1.986606714732     1.007825032230
         O           -0.341426267717     5.549570050989    -0.356740608238    15.994914619570
         H            1.173036154021     6.590329155680    -0.178180386643     1.007825032230
         H            0.345026195986     3.977036345415    -0.743707385852     1.007825032230
         O           -3.205164481389    -4.071885479104    -0.681550514134    15.994914619570
         H           -1.607234746415    -3.238937666703    -0.353957041655     1.007825032230
         H           -4.128276796414    -3.994196948360     0.869867391714     1.007825032230
         O            4.390436612073     1.429502224864     3.660779339963    15.994914619570
         H            5.625784595355     0.183173043067     3.472333961006     1.007825032230
         H            3.116596797341     1.134043545148     2.334990954043     1.007825032230
         O            4.692161623620     1.078615988163    -2.379518570737    15.994914619570
         H            3.067084083128     0.533411103707    -1.549815418093     1.007825032230
         H            4.564363225207     2.936152518799    -2.661609327841     1.007825032230

  Charge       = -1
  Multiplicity = 1
  Basis Set: AUG-CC-PVTZ
    Blend: AUG-CC-PVTZ
  Basis Set: (AUG-CC-PVTZ AUX)
    Blend: AUG-CC-PVTZ-JKFIT

    Orbital Energies [Eh]
    ---------------------

    Doubly Occupied:

       1A    -26.004449     2A    -20.426822     3A    -20.423570
       4A    -20.422665     5A    -20.413897     6A    -20.410851
       7A    -20.376468     8A     -1.269674     9A     -1.214590
      10A     -1.210608    11A     -1.201236    12A     -1.195634
      13A     -1.188666    14A     -1.160381    15A     -0.583658
      16A     -0.574200    17A     -0.571070    18A     -0.569506
      19A     -0.559557    20A     -0.534011    21A     -0.454650
      22A     -0.445008    23A     -0.442458    24A     -0.435304
      25A     -0.428882    26A     -0.414253    27A     -0.377235
      28A     -0.372139    29A     -0.362796    30A     -0.360909
      31A     -0.360097    32A     -0.354289    33A     -0.352332
      34A     -0.349798    35A     -0.320482

  @DF-RHF Final Energy:  -555.91844135773374

   => Energetics <=

    Nuclear Repulsion Energy =            353.2743541285915398
    One-Electron Energy =               -1486.1012911231696307
    Two-Electron Energy =                 576.9084956368443500
    Total Energy =                       -555.9184413577337409
 Dipole X            :         11.6125839          -10.3084485            1.3041355
 Dipole Y            :        -48.0521252           46.8513770           -1.2007482
 Dipole Z            :        -35.9303603           35.7257618           -0.2045985
 Magnitude           :                                                    1.7844960
  Basis Set: (AUG-CC-PVTZ AUX)
    Blend: AUG-CC-PVTZ-RI
	 Reference Energy          =    -555.9184413577337409 [Eh]
	 Singles Energy            =      -0.0000000000000000 [Eh]
	 Same-Spin Energy          =      -0.5028502444036677 [Eh]
	 Opposite-Spin Energy      =      -1.5335639955225242 [Eh]
	 Correlation Energy        =      -2.0364142399261920 [Eh]
	 Total Energy              =    -557.9548555976599573 [Eh]

	 ================> DF-SCS-MP2 Energies <==================
	-----------------------------------------------------------
	 SCS Same-Spin Scale       =       0.3333333333333333 [-]
	 SCS Opposite-Spin Scale   =       1.2000000000000000 [-]
	 SCS Same-Spin Energy      =      -0.1676167481345559 [Eh]
	 SCS Opposite-Spin Energy  =      -1.8402767946270289 [Eh]
	 SCS Correlation Energy    =      -2.0078935427615847 [Eh]
	 SCS Total Energy          =    -557.9263349004953625 [Eh]
	-----------------------------------------------------------

*** Psi4 exiting successfully. Buy a developer a beer!
