                               Psi4 1.8.2 release

  ==> Input File <==

--------------------------------------------------------------------------
MEMORY 60 GB

molecule dimer {
0 1
Gh(F)      0.000000     0.000000     0.000000
Gh(O)     -2.535941    -0.518749    -0.841397
Gh(H)     -2.920259     0.371723    -0.962405
Gh(H)     -1.599270    -0.369082    -0.662928
Gh(O)      1.559802     1.999498     1.426683
Gh(H)      1.052305     1.577903     0.700547
Gh(H)      2.485581     1.914871     1.234694
Gh(O)      1.354501    -1.676034    -1.827240
Gh(H)      2.081264    -1.020441    -1.804735
Gh(H)      0.735366    -1.229436    -1.225870
Gh(O)      2.371662    -0.821742     1.847114
Gh(H)      1.868561    -0.165946     1.393601
Gh(H)      2.048718    -0.788545     2.707674
Gh(O)     -0.396813    -1.938838     2.239603
Gh(H)     -0.284999    -1.373573     1.502641
Gh(H)     -1.382193    -1.991135     2.209240
Gh(O)     -2.085558     1.288771     1.727221
Gh(H)     -1.503937     2.039451     1.584522
Gh(H)     -1.562251     0.562158     1.399159
O         -0.164884     1.767301    -2.325383
H         -0.793236     1.519173    -3.058380
H         -0.020245     1.007979    -1.706815

units ang
no_reorient
no_com
symmetry c1
}

set {
basis        aug-cc-pVTZ
scf_type     df
}

energy("mp2")
--------------------------------------------------------------------------

    Molecular point group: c1

    Geometry (in Angstrom), charge = 0, multiplicity = 1:

       Center              X                  Y                   Z               Mass
    ------------   -----------------  -----------------  -----------------  -----------------
      Gh(F)           0.000000000000     0.000000000000     0.000000000000    18.998403162730
      Gh(O)          -2.535941000000    -0.518749000000    -0.841397000000    15.994914619570
      Gh(H)          -2.920259000000     0.371723000000    -0.962405000000     1.007825032230
      Gh(H)          -1.599270000000    -0.369082000000    -0.662928000000     1.007825032230
      Gh(O)           1.559802000000     1.999498000000     1.426683000000    15.994914619570
      Gh(H)           1.052305000000     1.577903000000     0.700547000000     1.007825032230
      Gh(H)           2.485581000000     1.914871000000     1.234694000000     1.007825032230
      Gh(O)           1.354501000000    -1.676034000000    -1.827240000000    15.994914619570
      Gh(H)           2.081264000000    -1.020441000000    -1.804735000000     1.007825032230
      Gh(H)           0.735366000000    -1.229436000000    -1.225870000000     1.007825032230
      Gh(O)           2.371662000000    -0.821742000000     1.847114000000    15.994914619570
      Gh(H)           1.868561000000    -0.165946000000     1.393601000000     1.007825032230
      Gh(H)           2.048718000000    -0.788545000000     2.707674000000     1.007825032230
      Gh(O)          -0.396813000000    -1.938838000000     2.239603000000    15.994914619570
      Gh(H)          -0.284999000000    -1.373573000000     1.502641000000     1.007825032230
      Gh(H)          -1.382193000000    -1.991135000000     2.209240000000     1.007825032230
      Gh(O)          -2.085558000000     1.288771000000     1.727221000000    15.994914619570
      Gh(H)          -1.503937000000     2.039451000000     1.584522000000     1.007825032230
      Gh(H)          -1.562251000000     0.562158000000     1.399159000000     1.007825032230
         O           -0.164884000000     1.767301000000    -2.325383000000    15.994914619570
         H           -0.793236000000     1.519173000000    -3.058380000000     1.007825032230
         H           -0.020245000000     1.007979000000    -1.706815000000     1.007825032230

  Charge       = 0
  Multiplicity = 1
  Basis Set: AUG-CC-PVTZ
    Blend: AUG-CC-PVTZ
  Basis Set: (AUG-CC-PVTZ AUX)
    Blend: AUG-CC-PVTZ-JKFIT

    Orbital Energies [Eh]
    ---------------------

    Doubly Occupied:

       1A    -20.570015     2A     -1.331277     3A     -0.709736
       4A     -0.565299     5A     -0.505320

  @DF-RHF Final Energy:   -76.05485267442438

   => Energetics <=

    Nuclear Repulsion Energy =              8.8459171008526951
    One-Electron Energy =                -122.4382423280943186
    Two-Electron Energy =                  37.5374725528172348
    Total Energy =                        -76.0548526744243816
 Dipole X            :          3.7097777           -4.0299411           -0.3201634
 Dipole Y            :        -32.1625228           31.4933441           -0.6691786
 Dipole Z            :         44.0845463          -44.1596095           -0.0750632
 Magnitude           :                                                    0.7456133
  Basis Set: (AUG-CC-PVTZ AUX)
    Blend: AUG-CC-PVTZ-RI
	 Reference Energy          =     -76.0548526744243816 [Eh]
	 Singles Energy            =      -0.0000000000000000 [Eh]
	 Same-Spin Energy          =      -0.0689677798200642 [Eh]
	 Opposite-Spin Energy      =      -0.2177419552520019 [Eh]
	 Correlation Energy        =      -0.2867097350720661 [Eh]
	 Total Energy              =     -76.3415624094964471 [Eh]

	 ================> DF-SCS-MP2 Energies <==================
	-----------------------------------------------------------
	 SCS Same-Spin Scale       =       0.3333333333333333 [-]
	 SCS Opposite-Spin Scale   =       1.2000000000000000 [-]
	 SCS Same-Spin Energy      =      -0.0229892599400214 [Eh]
	 SCS Opposite-Spin Energy  =      -0.2612903463024023 [Eh]
	 SCS Correlation Energy    =      -0.2842796062424237 [Eh]
	 SCS Total Energy          =     -76.3391322806668029 [Eh]
	-----------------------------------------------------------

*** Psi4 exiting successfully. Buy a developer a beer!
