                               Psi4 1.9 release

  ==> Input File <==

--------------------------------------------------------------------------
MEMORY 60 GB

molecule dimer {
-1 1
F      0.000000     0.000000     0.000000
--
0 1
O     -1.321441     0.970764    -2.225812
H     -0.992916     0.400039    -2.920581
H     -0.802183     0.568251    -1.489213
O      2.432565     0.546593    -1.243689
H      1.612306     0.359837    -0.841379
H      3.048573     0.013676    -0.665711
O      1.240147    -0.379821     2.518952
H      0.671240    -0.081223     1.806606
H      1.223288     0.336111     3.147064
O     -2.197900     1.504597     0.957569
H     -1.493668     1.001179     0.522195
H     -2.471022     2.300322     0.431031
O      0.087719    -2.460204    -1.250966
H      0.036346    -1.654206    -0.668350
H      0.899697    -2.835357    -1.025072

units ang
no_reorient
no_com
symmetry c1
}

set {
basis        aug-cc-pVTZ
scf_type     df
}

energy("mp2", bsse_type="cp")
--------------------------------------------------------------------------

                               Psi4 1.9 release
    Molecular point group: c1
  Charge       = 0
  Multiplicity = 1
  Basis Set: AUG-CC-PVTZ
    Blend: AUG-CC-PVTZ
  Basis Set: (AUG-CC-PVTZ AUX)
    Blend: AUG-CC-PVTZ-JKFIT
  @DF-RHF Final Energy:  -380.27822791743370
    Total Energy =                       -380.2782279174336963
 Dipole X            :         -6.1217155            6.9171176            0.7954021
 Dipole Y            :         -3.4843004            3.5225648            0.0382644
 Dipole Z            :         22.4404858          -22.0247164            0.4157694
 Magnitude           :                                                    0.8983278
  Basis Set: (AUG-CC-PVTZ AUX)
    Blend: AUG-CC-PVTZ-RI
	 Reference Energy          =    -380.2782279174336963 [Eh]
	 Singles Energy            =      -0.0000000000000000 [Eh]
	 Same-Spin Energy          =      -0.3448390217477784 [Eh]
	 Opposite-Spin Energy      =      -1.0856227034502812 [Eh]
	 Correlation Energy        =      -1.4304617251980596 [Eh]
	 Total Energy              =    -381.7086896426317821 [Eh]
	 SCS Total Energy          =    -381.6959215021566365 [Eh]
                               Psi4 1.9 release
    Molecular point group: c1
  Multiplicity = 1
  Basis Set: AUG-CC-PVTZ
    Blend: AUG-CC-PVTZ
  Basis Set: (AUG-CC-PVTZ AUX)
    Blend: AUG-CC-PVTZ-JKFIT
  @DF-RHF Final Energy:   -99.45111197512956
    Total Energy =                        -99.4511119751295638
  Basis Set: (AUG-CC-PVTZ AUX)
	 Singles Energy            =      -0.0000000000000000 [Eh]
	 Same-Spin Energy          =      -0.0820676226364702 [Eh]
	 Opposite-Spin Energy      =      -0.2302326487224691 [Eh]
	 Correlation Energy        =      -0.3123002713589393 [Eh]
	 Total Energy              =     -99.7634122464884996 [Eh]
	 SCS Total Energy          =     -99.7547470278086905 [Eh]
                               Psi4 1.9 release
    Molecular point group: c1

    Geometry (in Bohr), charge = -1, multiplicity = 1:

       Center              X                  Y                   Z               Mass
    ------------   -----------------  -----------------  -----------------  -----------------
         F            0.000000000000     0.000000000000     0.000000000000    18.998403162730
         O           -2.497161580951     1.834478092454    -4.206175086758    15.994914619570
         H           -1.876339305585     0.755964149502    -5.519098217216     1.007825032230
         H           -1.515906172498     1.073838760518    -2.814204712471     1.007825032230
         O            4.596881632374     1.032911072092    -2.350231595245    15.994914619570
         H            3.046816770432     0.679993379806    -1.589975877712     1.007825032230
         H            5.760968043465     0.025843894492    -1.258011468705     1.007825032230
         O            2.343538185308    -0.717757666698     4.760129403174    15.994914619570
         H            1.268459764452    -0.153489225088     3.413990556609     1.007825032230
         H            2.311679292559     0.635157737754     5.947089059288     1.007825032230
         O           -4.153429051144     2.843276259185     1.809543156229    15.994914619570
         H           -2.822623442360     1.891954112560     0.986805534083     1.007825032230
         H           -4.669554829981     4.346978580365     0.814530541582     1.007825032230
         O            0.165764885999    -4.649111772756    -2.363983132259    15.994914619570
         H            0.068683985756    -3.125996295089    -1.262998455950     1.007825032230
         H            1.700180925896    -5.358048197900    -1.937105338875     1.007825032230

  Charge       = -1
  Multiplicity = 1
  Basis Set: AUG-CC-PVTZ
    Blend: AUG-CC-PVTZ
  Basis Set: (AUG-CC-PVTZ AUX)
    Blend: AUG-CC-PVTZ-JKFIT

    Orbital Energies [Eh]
    ---------------------

    Doubly Occupied:

       1A    -26.001212     2A    -20.414060     3A    -20.406827
       4A    -20.400565     5A    -20.398793     6A    -20.397936
       7A     -1.269834     8A     -1.203816     9A     -1.192167
      10A     -1.190902    11A     -1.182059    12A     -1.172598
      13A     -0.570333    14A     -0.561463    15A     -0.554586
      16A     -0.549812    17A     -0.530904    18A     -0.443706
      19A     -0.440248    20A     -0.436586    21A     -0.432908
      22A     -0.408747    23A     -0.365535    24A     -0.360245
      25A     -0.358178    26A     -0.352725    27A     -0.350321
      28A     -0.344999    29A     -0.342355    30A     -0.339729

  @DF-RHF Final Energy:  -479.86382630553180

   => Energetics <=

    Nuclear Repulsion Energy =            261.8761876019625561
    One-Electron Energy =               -1197.5317200745964783
    Two-Electron Energy =                 455.7917061671021202
    Total Energy =                       -479.8638263055318021
 Dipole X            :         -6.1618262            6.9171176            0.7552914
 Dipole Y            :         -3.4688665            3.5225648            0.0536983
 Dipole Z            :         22.7279194          -22.0247164            0.7032030
 Magnitude           :                                                    1.0333650
  Basis Set: (AUG-CC-PVTZ AUX)
    Blend: AUG-CC-PVTZ-RI
	 Reference Energy          =    -479.8638263055318021 [Eh]
	 Singles Energy            =      -0.0000000000000000 [Eh]
	 Same-Spin Energy          =      -0.4323801436722114 [Eh]
	 Opposite-Spin Energy      =      -1.3149463640510097 [Eh]
	 Correlation Energy        =      -1.7473265077232212 [Eh]
	 Total Energy              =    -481.6111528132550461 [Eh]

	 ================> DF-SCS-MP2 Energies <==================
	-----------------------------------------------------------
	 SCS Same-Spin Scale       =       0.3333333333333333 [-]
	 SCS Opposite-Spin Scale   =       1.2000000000000000 [-]
	 SCS Same-Spin Energy      =      -0.1441267145574038 [Eh]
	 SCS Opposite-Spin Energy  =      -1.5779356368612116 [Eh]
	 SCS Correlation Energy    =      -1.7220623514186155 [Eh]
	 SCS Total Energy          =    -481.5858886569504307 [Eh]
	-----------------------------------------------------------

*** Psi4 exiting successfully. Buy a developer a beer!
