                               Psi4 1.8.2 release

  ==> Input File <==

--------------------------------------------------------------------------
MEMORY 60 GB

molecule dimer {
0 1
Gh(F)      0.000000     0.000000     0.000000
Gh(O)     -0.707361     2.525434    -1.575050
Gh(H)     -1.618200     2.532030    -1.172278
Gh(H)     -0.360557     1.715787    -1.222011
Gh(O)      0.231457    -1.514785     2.454981
Gh(H)      0.520078    -2.412679     2.201167
Gh(H)      0.152694    -0.949314     1.706223
Gh(O)      2.534888    -0.934845    -0.773892
Gh(H)      1.708681    -0.455364    -0.810073
Gh(H)      2.593842    -1.430710    -1.602941
O         -1.646211    -2.005263    -0.559192
H         -2.276294    -1.608534    -1.184598
H         -0.985436    -1.310462    -0.430945
Gh(O)     -0.839643     1.611946     1.821990
Gh(H)     -0.333256     1.129240     1.164903
Gh(H)     -1.766320     1.284318     1.860799

units ang
no_reorient
no_com
symmetry c1
}

set {
basis        aug-cc-pVTZ
scf_type     df
}

energy("mp2")
--------------------------------------------------------------------------

    Molecular point group: c1

    Geometry (in Angstrom), charge = 0, multiplicity = 1:

       Center              X                  Y                   Z               Mass
    ------------   -----------------  -----------------  -----------------  -----------------
      Gh(F)           0.000000000000     0.000000000000     0.000000000000    18.998403162730
      Gh(O)          -0.707361000000     2.525434000000    -1.575050000000    15.994914619570
      Gh(H)          -1.618200000000     2.532030000000    -1.172278000000     1.007825032230
      Gh(H)          -0.360557000000     1.715787000000    -1.222011000000     1.007825032230
      Gh(O)           0.231457000000    -1.514785000000     2.454981000000    15.994914619570
      Gh(H)           0.520078000000    -2.412679000000     2.201167000000     1.007825032230
      Gh(H)           0.152694000000    -0.949314000000     1.706223000000     1.007825032230
      Gh(O)           2.534888000000    -0.934845000000    -0.773892000000    15.994914619570
      Gh(H)           1.708681000000    -0.455364000000    -0.810073000000     1.007825032230
      Gh(H)           2.593842000000    -1.430710000000    -1.602941000000     1.007825032230
         O           -1.646211000000    -2.005263000000    -0.559192000000    15.994914619570
         H           -2.276294000000    -1.608534000000    -1.184598000000     1.007825032230
         H           -0.985436000000    -1.310462000000    -0.430945000000     1.007825032230
      Gh(O)          -0.839643000000     1.611946000000     1.821990000000    15.994914619570
      Gh(H)          -0.333256000000     1.129240000000     1.164903000000     1.007825032230
      Gh(H)          -1.766320000000     1.284318000000     1.860799000000     1.007825032230

  Charge       = 0
  Multiplicity = 1
  Basis Set: AUG-CC-PVTZ
    Blend: AUG-CC-PVTZ
  Basis Set: (AUG-CC-PVTZ AUX)
    Blend: AUG-CC-PVTZ-JKFIT

    Orbital Energies [Eh]
    ---------------------

    Doubly Occupied:

       1A    -20.569724     2A     -1.347733     3A     -0.709103
       4A     -0.584251     5A     -0.509575

  @DF-RHF Final Energy:   -76.05950394415188

   => Energetics <=

    Nuclear Repulsion Energy =              9.0770121737828706
    One-Electron Energy =                -122.8322579388736955
    Two-Electron Energy =                  37.6957418209389488
    Total Energy =                        -76.0595039441518708
 Dipole X            :         31.0722213          -31.0508799            0.0213414
 Dipole Y            :         36.5500429          -35.8312860            0.7187569
 Dipole Z            :         11.1798520          -11.5066917           -0.3268397
 Magnitude           :                                                    0.7898677
  Basis Set: (AUG-CC-PVTZ AUX)
    Blend: AUG-CC-PVTZ-RI
	 Reference Energy          =     -76.0595039441518850 [Eh]
	 Singles Energy            =      -0.0000000000000000 [Eh]
	 Same-Spin Energy          =      -0.0686540266078900 [Eh]
	 Opposite-Spin Energy      =      -0.2168888927805132 [Eh]
	 Correlation Energy        =      -0.2855429193884033 [Eh]
	 Total Energy              =     -76.3450468635402899 [Eh]

	 ================> DF-SCS-MP2 Energies <==================
	-----------------------------------------------------------
	 SCS Same-Spin Scale       =       0.3333333333333333 [-]
	 SCS Opposite-Spin Scale   =       1.2000000000000000 [-]
	 SCS Same-Spin Energy      =      -0.0228846755359633 [Eh]
	 SCS Opposite-Spin Energy  =      -0.2602666713366159 [Eh]
	 SCS Correlation Energy    =      -0.2831513468725792 [Eh]
	 SCS Total Energy          =     -76.3426552910244709 [Eh]
	-----------------------------------------------------------

*** Psi4 exiting successfully. Buy a developer a beer!
