                               Psi4 1.8.2 release

  ==> Input File <==

--------------------------------------------------------------------------
MEMORY 60 GB

molecule dimer {
0 1
Gh(F)      0.000000     0.000000     0.000000
Gh(O)     -2.200509     1.323634     0.710260
Gh(H)     -1.503891     0.683674     0.540733
Gh(H)     -2.315484     1.737995    -0.119068
Gh(O)     -1.967079    -2.020860    -0.122763
Gh(H)     -1.318963    -1.305195     0.136157
Gh(H)     -1.696741    -2.218317    -1.007498
Gh(O)      0.991465    -1.547512     2.500463
Gh(H)      0.667023    -1.154030     1.676389
Gh(H)      0.516695    -1.090567     3.200283
Gh(O)      2.410120     0.780079    -1.095237
Gh(H)      3.060268     0.046287    -0.902074
Gh(H)      1.654642     0.711894    -0.477528
Gh(O)      1.437300    -2.134809    -0.746584
Gh(H)      1.223810    -2.927188    -0.210324
Gh(H)      0.772852    -1.490569    -0.481987
O         -0.357139     2.126165    -1.924590
H         -0.018848     1.313137    -1.513999
H          0.141845     2.856791    -1.535479

units ang
no_reorient
no_com
symmetry c1
}

set {
basis        aug-cc-pVTZ
scf_type     df
}

energy("mp2")
--------------------------------------------------------------------------

    Molecular point group: c1

    Geometry (in Angstrom), charge = 0, multiplicity = 1:

       Center              X                  Y                   Z               Mass
    ------------   -----------------  -----------------  -----------------  -----------------
      Gh(F)           0.000000000000     0.000000000000     0.000000000000    18.998403162730
      Gh(O)          -2.200509000000     1.323634000000     0.710260000000    15.994914619570
      Gh(H)          -1.503891000000     0.683674000000     0.540733000000     1.007825032230
      Gh(H)          -2.315484000000     1.737995000000    -0.119068000000     1.007825032230
      Gh(O)          -1.967079000000    -2.020860000000    -0.122763000000    15.994914619570
      Gh(H)          -1.318963000000    -1.305195000000     0.136157000000     1.007825032230
      Gh(H)          -1.696741000000    -2.218317000000    -1.007498000000     1.007825032230
      Gh(O)           0.991465000000    -1.547512000000     2.500463000000    15.994914619570
      Gh(H)           0.667023000000    -1.154030000000     1.676389000000     1.007825032230
      Gh(H)           0.516695000000    -1.090567000000     3.200283000000     1.007825032230
      Gh(O)           2.410120000000     0.780079000000    -1.095237000000    15.994914619570
      Gh(H)           3.060268000000     0.046287000000    -0.902074000000     1.007825032230
      Gh(H)           1.654642000000     0.711894000000    -0.477528000000     1.007825032230
      Gh(O)           1.437300000000    -2.134809000000    -0.746584000000    15.994914619570
      Gh(H)           1.223810000000    -2.927188000000    -0.210324000000     1.007825032230
      Gh(H)           0.772852000000    -1.490569000000    -0.481987000000     1.007825032230
         O           -0.357139000000     2.126165000000    -1.924590000000    15.994914619570
         H           -0.018848000000     1.313137000000    -1.513999000000     1.007825032230
         H            0.141845000000     2.856791000000    -1.535479000000     1.007825032230

  Charge       = 0
  Multiplicity = 1
  Basis Set: AUG-CC-PVTZ
    Blend: AUG-CC-PVTZ
  Basis Set: (AUG-CC-PVTZ AUX)
    Blend: AUG-CC-PVTZ-JKFIT

    Orbital Energies [Eh]
    ---------------------

    Doubly Occupied:

       1A    -20.568234     2A     -1.346113     3A     -0.714842
       4A     -0.578864     5A     -0.508777

  @DF-RHF Final Energy:   -76.05966596656174

   => Energetics <=

    Nuclear Repulsion Energy =              9.0779709368173904
    One-Electron Energy =                -122.8416107076187416
    Two-Electron Energy =                  37.7039738042396237
    Total Energy =                        -76.0596659665617238
 Dipole X            :          5.7228744           -5.1667285            0.5561459
 Dipole Y            :        -40.0772131           40.0229783           -0.0542348
 Dipole Z            :         35.3889422          -34.8582623            0.5306799
 Magnitude           :                                                    0.7706236
  Basis Set: (AUG-CC-PVTZ AUX)
    Blend: AUG-CC-PVTZ-RI
	 Reference Energy          =     -76.0596659665617381 [Eh]
	 Singles Energy            =      -0.0000000000000000 [Eh]
	 Same-Spin Energy          =      -0.0685933742095172 [Eh]
	 Opposite-Spin Energy      =      -0.2166260533262372 [Eh]
	 Correlation Energy        =      -0.2852194275357544 [Eh]
	 Total Energy              =     -76.3448853940974885 [Eh]

	 ================> DF-SCS-MP2 Energies <==================
	-----------------------------------------------------------
	 SCS Same-Spin Scale       =       0.3333333333333333 [-]
	 SCS Opposite-Spin Scale   =       1.2000000000000000 [-]
	 SCS Same-Spin Energy      =      -0.0228644580698391 [Eh]
	 SCS Opposite-Spin Energy  =      -0.2599512639914847 [Eh]
	 SCS Correlation Energy    =      -0.2828157220613237 [Eh]
	 SCS Total Energy          =     -76.3424816886230673 [Eh]
	-----------------------------------------------------------

*** Psi4 exiting successfully. Buy a developer a beer!
