                               Psi4 1.8.2 release

  ==> Input File <==

--------------------------------------------------------------------------
MEMORY 60 GB

molecule dimer {
-1 1
F          0.000000     0.000000     0.000000
O         -1.868807    -1.606584    -1.232722
H         -2.648858    -1.210748    -1.674454
H         -1.354970    -0.928574    -0.884703
O          1.561053    -2.342486    -0.324932
H          1.024559    -1.639627    -0.095546
H          2.367186    -2.202968     0.205219
O          2.397997     0.883652    -1.479190
H          2.460236     0.138607    -2.095251
H          1.572467     0.770589    -1.000388
O         -0.938943     1.901674    -1.746159
H         -0.619530     1.193323    -1.188260
H         -0.677226     1.664461    -2.680593
O          1.422331     0.953610     2.122850
H          1.087694     1.659515     2.606883
H          0.843206     0.805126     1.373295

units ang
no_reorient
no_com
symmetry c1
}

set {
basis        aug-cc-pVTZ
scf_type     df
}

energy("mp2")
--------------------------------------------------------------------------

    Molecular point group: c1

    Geometry (in Angstrom), charge = -1, multiplicity = 1:

       Center              X                  Y                   Z               Mass
    ------------   -----------------  -----------------  -----------------  -----------------
         F            0.000000000000     0.000000000000     0.000000000000    18.998403162730
         O           -1.868807000000    -1.606584000000    -1.232722000000    15.994914619570
         H           -2.648858000000    -1.210748000000    -1.674454000000     1.007825032230
         H           -1.354970000000    -0.928574000000    -0.884703000000     1.007825032230
         O            1.561053000000    -2.342486000000    -0.324932000000    15.994914619570
         H            1.024559000000    -1.639627000000    -0.095546000000     1.007825032230
         H            2.367186000000    -2.202968000000     0.205219000000     1.007825032230
         O            2.397997000000     0.883652000000    -1.479190000000    15.994914619570
         H            2.460236000000     0.138607000000    -2.095251000000     1.007825032230
         H            1.572467000000     0.770589000000    -1.000388000000     1.007825032230
         O           -0.938943000000     1.901674000000    -1.746159000000    15.994914619570
         H           -0.619530000000     1.193323000000    -1.188260000000     1.007825032230
         H           -0.677226000000     1.664461000000    -2.680593000000     1.007825032230
         O            1.422331000000     0.953610000000     2.122850000000    15.994914619570
         H            1.087694000000     1.659515000000     2.606883000000     1.007825032230
         H            0.843206000000     0.805126000000     1.373295000000     1.007825032230

  Charge       = -1
  Multiplicity = 1
  Basis Set: AUG-CC-PVTZ
    Blend: AUG-CC-PVTZ
  Basis Set: (AUG-CC-PVTZ AUX)
    Blend: AUG-CC-PVTZ-JKFIT

    Orbital Energies [Eh]
    ---------------------

    Doubly Occupied:

       1A    -25.987985     2A    -20.406805     3A    -20.404172
       4A    -20.399894     5A    -20.395947     6A    -20.392757
       7A     -1.255844     8A     -1.195511     9A     -1.194286
      10A     -1.192513    11A     -1.187526    12A     -1.182671
      13A     -0.577065    14A     -0.568247    15A     -0.561640
      16A     -0.559483    17A     -0.551929    18A     -0.432130
      19A     -0.429733    20A     -0.426678    21A     -0.421071
      22A     -0.418188    23A     -0.358099    24A     -0.354617
      25A     -0.350722    26A     -0.348328    27A     -0.345814
      28A     -0.342598    29A     -0.340025    30A     -0.337313

  @DF-RHF Final Energy:  -479.85990795045274

   => Energetics <=

    Nuclear Repulsion Energy =            265.5432771070616127
    One-Electron Energy =               -1204.9671847935346705
    Two-Electron Energy =                 459.5639997360203211
    Total Energy =                       -479.8599079504527367
 Dipole X            :        -47.5292452           46.5700554           -0.9591899
 Dipole Y            :          3.1129766           -2.7048935            0.4080831
 Dipole Z            :         50.7611989          -50.4840750            0.2771238
 Magnitude           :                                                    1.0785985
  Basis Set: (AUG-CC-PVTZ AUX)
    Blend: AUG-CC-PVTZ-RI
	 Reference Energy          =    -479.8599079504527367 [Eh]
	 Singles Energy            =      -0.0000000000000000 [Eh]
	 Same-Spin Energy          =      -0.4308314064924467 [Eh]
	 Opposite-Spin Energy      =      -1.3118623251577199 [Eh]
	 Correlation Energy        =      -1.7426937316501667 [Eh]
	 Total Energy              =    -481.6026016821028861 [Eh]

	 ================> DF-SCS-MP2 Energies <==================
	-----------------------------------------------------------
	 SCS Same-Spin Scale       =       0.3333333333333333 [-]
	 SCS Opposite-Spin Scale   =       1.2000000000000000 [-]
	 SCS Same-Spin Energy      =      -0.1436104688308155 [Eh]
	 SCS Opposite-Spin Energy  =      -1.5742347901892639 [Eh]
	 SCS Correlation Energy    =      -1.7178452590200795 [Eh]
	 SCS Total Energy          =    -481.5777532094728031 [Eh]
	-----------------------------------------------------------

*** Psi4 exiting successfully. Buy a developer a beer!
