                               Psi4 1.8.2 release

  ==> Input File <==

--------------------------------------------------------------------------
MEMORY 60 GB

molecule dimer {
-1 1
F          0.000000     0.000000     0.000000
O          1.645101     1.699296     1.129951
H          1.015254     1.023734     0.938557
H          2.452697     1.509168     0.634777
O         -1.553213    -0.631155     2.482268
H         -1.969669    -1.457558     2.128408
H         -0.949585    -0.251440     1.820527
O          0.961898    -2.550376     0.595543
H          0.820165    -1.603401     0.519010
H          1.796966    -2.594357     1.096082
O         -1.972263    -1.718144    -1.134114
H         -1.269265    -1.234137    -0.606429
H         -2.533102    -1.010675    -1.448851
O          1.845169    -0.935074    -2.257498
H          1.057097    -0.988219    -1.668991
H          2.348598    -1.768336    -2.397617
O         -0.866070     2.164358    -1.903602
H         -1.546584     2.604533    -1.419034
H         -0.642881     1.424063    -1.400965

units ang
no_reorient
no_com
symmetry c1
}

set {
basis        aug-cc-pVTZ
scf_type     df
}

energy("mp2")
--------------------------------------------------------------------------

    Molecular point group: c1

    Geometry (in Angstrom), charge = -1, multiplicity = 1:

       Center              X                  Y                   Z               Mass
    ------------   -----------------  -----------------  -----------------  -----------------
         F            0.000000000000     0.000000000000     0.000000000000    18.998403162730
         O            1.645101000000     1.699296000000     1.129951000000    15.994914619570
         H            1.015254000000     1.023734000000     0.938557000000     1.007825032230
         H            2.452697000000     1.509168000000     0.634777000000     1.007825032230
         O           -1.553213000000    -0.631155000000     2.482268000000    15.994914619570
         H           -1.969669000000    -1.457558000000     2.128408000000     1.007825032230
         H           -0.949585000000    -0.251440000000     1.820527000000     1.007825032230
         O            0.961898000000    -2.550376000000     0.595543000000    15.994914619570
         H            0.820165000000    -1.603401000000     0.519010000000     1.007825032230
         H            1.796966000000    -2.594357000000     1.096082000000     1.007825032230
         O           -1.972263000000    -1.718144000000    -1.134114000000    15.994914619570
         H           -1.269265000000    -1.234137000000    -0.606429000000     1.007825032230
         H           -2.533102000000    -1.010675000000    -1.448851000000     1.007825032230
         O            1.845169000000    -0.935074000000    -2.257498000000    15.994914619570
         H            1.057097000000    -0.988219000000    -1.668991000000     1.007825032230
         H            2.348598000000    -1.768336000000    -2.397617000000     1.007825032230
         O           -0.866070000000     2.164358000000    -1.903602000000    15.994914619570
         H           -1.546584000000     2.604533000000    -1.419034000000     1.007825032230
         H           -0.642881000000     1.424063000000    -1.400965000000     1.007825032230

  Charge       = -1
  Multiplicity = 1
  Basis Set: AUG-CC-PVTZ
    Blend: AUG-CC-PVTZ
  Basis Set: (AUG-CC-PVTZ AUX)
    Blend: AUG-CC-PVTZ-JKFIT

    Orbital Energies [Eh]
    ---------------------

    Doubly Occupied:

       1A    -26.007715     2A    -20.421576     3A    -20.420470
       4A    -20.416721     5A    -20.413290     6A    -20.412597
       7A    -20.392362     8A     -1.275083     9A     -1.217597
      10A     -1.205266    11A     -1.189399    12A     -1.188252
      13A     -1.187857    14A     -1.183351    15A     -0.587104
      16A     -0.582269    17A     -0.568966    18A     -0.568484
      19A     -0.563125    20A     -0.549844    21A     -0.449906
      22A     -0.444464    23A     -0.441706    24A     -0.428551
      25A     -0.421351    26A     -0.416561    27A     -0.371955
      28A     -0.369856    29A     -0.365697    30A     -0.364297
      31A     -0.359612    32A     -0.356506    33A     -0.354387
      34A     -0.351626    35A     -0.339153

  @DF-RHF Final Energy:  -555.92368193149127

   => Energetics <=

    Nuclear Repulsion Energy =            348.0819040953541048
    One-Electron Energy =               -1475.6372509204331891
    Two-Electron Energy =                 571.6316648935878675
    Total Energy =                       -555.9236819314912736
 Dipole X            :         -1.7503472            2.0119290            0.2615818
 Dipole Y            :         37.8809271          -38.0125686           -0.1316415
 Dipole Z            :         20.0698976          -19.8499516            0.2199460
 Magnitude           :                                                    0.3662387
  Basis Set: (AUG-CC-PVTZ AUX)
    Blend: AUG-CC-PVTZ-RI
	 Reference Energy          =    -555.9236819314912736 [Eh]
	 Singles Energy            =      -0.0000000000000000 [Eh]
	 Same-Spin Energy          =      -0.5014774721987377 [Eh]
	 Opposite-Spin Energy      =      -1.5318216224073264 [Eh]
	 Correlation Energy        =      -2.0332990946060643 [Eh]
	 Total Energy              =    -557.9569810260973100 [Eh]

	 ================> DF-SCS-MP2 Energies <==================
	-----------------------------------------------------------
	 SCS Same-Spin Scale       =       0.3333333333333333 [-]
	 SCS Opposite-Spin Scale   =       1.2000000000000000 [-]
	 SCS Same-Spin Energy      =      -0.1671591573995792 [Eh]
	 SCS Opposite-Spin Energy  =      -1.8381859468887916 [Eh]
	 SCS Correlation Energy    =      -2.0053451042883710 [Eh]
	 SCS Total Energy          =    -557.9290270357796544 [Eh]
	-----------------------------------------------------------

*** Psi4 exiting successfully. Buy a developer a beer!
