                               Psi4 1.8.2 release

  ==> Input File <==

--------------------------------------------------------------------------
MEMORY 60 GB

molecule dimer {
-1 1
F          0.000000     0.000000     0.000000
Gh(O)     -1.321441     0.970764    -2.225812
Gh(H)     -0.992916     0.400039    -2.920581
Gh(H)     -0.802183     0.568251    -1.489213
Gh(O)      2.432565     0.546593    -1.243689
Gh(H)      1.612306     0.359837    -0.841379
Gh(H)      3.048573     0.013676    -0.665711
Gh(O)      1.240147    -0.379821     2.518952
Gh(H)      0.671240    -0.081223     1.806606
Gh(H)      1.223288     0.336111     3.147064
Gh(O)     -2.197900     1.504597     0.957569
Gh(H)     -1.493668     1.001179     0.522195
Gh(H)     -2.471022     2.300322     0.431031
Gh(O)      0.087719    -2.460204    -1.250966
Gh(H)      0.036346    -1.654206    -0.668350
Gh(H)      0.899697    -2.835357    -1.025072

units ang
no_reorient
no_com
symmetry c1
}

set {
basis        aug-cc-pVTZ
scf_type     df
}

energy("mp2")
--------------------------------------------------------------------------

    Molecular point group: c1

    Geometry (in Angstrom), charge = -1, multiplicity = 1:

       Center              X                  Y                   Z               Mass
    ------------   -----------------  -----------------  -----------------  -----------------
         F            0.000000000000     0.000000000000     0.000000000000    18.998403162730
      Gh(O)          -1.321441000000     0.970764000000    -2.225812000000    15.994914619570
      Gh(H)          -0.992916000000     0.400039000000    -2.920581000000     1.007825032230
      Gh(H)          -0.802183000000     0.568251000000    -1.489213000000     1.007825032230
      Gh(O)           2.432565000000     0.546593000000    -1.243689000000    15.994914619570
      Gh(H)           1.612306000000     0.359837000000    -0.841379000000     1.007825032230
      Gh(H)           3.048573000000     0.013676000000    -0.665711000000     1.007825032230
      Gh(O)           1.240147000000    -0.379821000000     2.518952000000    15.994914619570
      Gh(H)           0.671240000000    -0.081223000000     1.806606000000     1.007825032230
      Gh(H)           1.223288000000     0.336111000000     3.147064000000     1.007825032230
      Gh(O)          -2.197900000000     1.504597000000     0.957569000000    15.994914619570
      Gh(H)          -1.493668000000     1.001179000000     0.522195000000     1.007825032230
      Gh(H)          -2.471022000000     2.300322000000     0.431031000000     1.007825032230
      Gh(O)           0.087719000000    -2.460204000000    -1.250966000000    15.994914619570
      Gh(H)           0.036346000000    -1.654206000000    -0.668350000000     1.007825032230
      Gh(H)           0.899697000000    -2.835357000000    -1.025072000000     1.007825032230

  Charge       = -1
  Multiplicity = 1
  Basis Set: AUG-CC-PVTZ
    Blend: AUG-CC-PVTZ
  Basis Set: (AUG-CC-PVTZ AUX)
    Blend: AUG-CC-PVTZ-JKFIT

    Orbital Energies [Eh]
    ---------------------

    Doubly Occupied:

       1A    -25.833565     2A     -1.075890     3A     -0.180927
       4A     -0.180922     5A     -0.180878

  @DF-RHF Final Energy:   -99.45111197511899

   => Energetics <=

    Nuclear Repulsion Energy =              0.0000000000000000
    One-Electron Energy =                -143.9978525260381446
    Two-Electron Energy =                  44.5467405509191465
    Total Energy =                        -99.4511119751190051
 Dipole X            :          0.0000681            0.0000000            0.0000681
 Dipole Y            :         -0.0000390            0.0000000           -0.0000390
 Dipole Z            :         -0.0000562            0.0000000           -0.0000562
 Magnitude           :                                                    0.0000966
  Basis Set: (AUG-CC-PVTZ AUX)
    Blend: AUG-CC-PVTZ-RI
	 Reference Energy          =     -99.4511119751189909 [Eh]
	 Singles Energy            =      -0.0000000000000000 [Eh]
	 Same-Spin Energy          =      -0.0820676226365363 [Eh]
	 Opposite-Spin Energy      =      -0.2302326487224705 [Eh]
	 Correlation Energy        =      -0.3123002713590068 [Eh]
	 Total Energy              =     -99.7634122464779978 [Eh]

	 ================> DF-SCS-MP2 Energies <==================
	-----------------------------------------------------------
	 SCS Same-Spin Scale       =       0.3333333333333333 [-]
	 SCS Opposite-Spin Scale   =       1.2000000000000000 [-]
	 SCS Same-Spin Energy      =      -0.0273558742121788 [Eh]
	 SCS Opposite-Spin Energy  =      -0.2762791784669645 [Eh]
	 SCS Correlation Energy    =      -0.3036350526791433 [Eh]
	 SCS Total Energy          =     -99.7547470277981319 [Eh]
	-----------------------------------------------------------

*** Psi4 exiting successfully. Buy a developer a beer!
