                               Psi4 1.8.2 release

  ==> Input File <==

--------------------------------------------------------------------------
MEMORY 60 GB

molecule dimer {
-1 1
F          0.000000     0.000000     0.000000
O         -2.514233    -0.838589    -0.868966
H         -2.777531    -0.864339    -1.789497
H         -1.566044    -0.593973    -0.828615
O         -0.782480     1.801604    -2.000038
H         -1.732362     1.945839    -1.851762
H         -0.584653     1.094475    -1.373167
O         -0.590907     2.720783     1.336329
H          0.319764     2.744529     0.971711
H         -0.949250     1.810129     1.212275
O          2.242812     1.445091    -0.026596
H          1.411790     1.013484    -0.212396
H          2.372371     1.996144    -0.840441
O          1.553258    -1.647504    -1.312027
H          1.527789    -2.312558    -0.611092
H          1.024731    -0.930018    -0.897315

units ang
no_reorient
no_com
symmetry c1
}

set {
basis        aug-cc-pVTZ
scf_type     df
}

energy("mp2")
--------------------------------------------------------------------------

    Molecular point group: c1

    Geometry (in Angstrom), charge = -1, multiplicity = 1:

       Center              X                  Y                   Z               Mass
    ------------   -----------------  -----------------  -----------------  -----------------
         F            0.000000000000     0.000000000000     0.000000000000    18.998403162730
         O           -2.514233000000    -0.838589000000    -0.868966000000    15.994914619570
         H           -2.777531000000    -0.864339000000    -1.789497000000     1.007825032230
         H           -1.566044000000    -0.593973000000    -0.828615000000     1.007825032230
         O           -0.782480000000     1.801604000000    -2.000038000000    15.994914619570
         H           -1.732362000000     1.945839000000    -1.851762000000     1.007825032230
         H           -0.584653000000     1.094475000000    -1.373167000000     1.007825032230
         O           -0.590907000000     2.720783000000     1.336329000000    15.994914619570
         H            0.319764000000     2.744529000000     0.971711000000     1.007825032230
         H           -0.949250000000     1.810129000000     1.212275000000     1.007825032230
         O            2.242812000000     1.445091000000    -0.026596000000    15.994914619570
         H            1.411790000000     1.013484000000    -0.212396000000     1.007825032230
         H            2.372371000000     1.996144000000    -0.840441000000     1.007825032230
         O            1.553258000000    -1.647504000000    -1.312027000000    15.994914619570
         H            1.527789000000    -2.312558000000    -0.611092000000     1.007825032230
         H            1.024731000000    -0.930018000000    -0.897315000000     1.007825032230

  Charge       = -1
  Multiplicity = 1
  Basis Set: AUG-CC-PVTZ
    Blend: AUG-CC-PVTZ
  Basis Set: (AUG-CC-PVTZ AUX)
    Blend: AUG-CC-PVTZ-JKFIT

    Orbital Energies [Eh]
    ---------------------

    Doubly Occupied:

       1A    -25.997166     2A    -20.415309     3A    -20.412019
       4A    -20.408452     5A    -20.403156     6A    -20.385406
       7A     -1.268364     8A     -1.197694     9A     -1.194503
      10A     -1.184385    11A     -1.178273    12A     -1.167403
      13A     -0.574601    14A     -0.558882    15A     -0.553200
      16A     -0.546486    17A     -0.530331    18A     -0.447729
      19A     -0.434114    20A     -0.431036    21A     -0.426622
      22A     -0.418345    23A     -0.363719    24A     -0.360311
      25A     -0.355581    26A     -0.352584    27A     -0.349749
      28A     -0.345225    29A     -0.341125    30A     -0.328044

  @DF-RHF Final Energy:  -479.85670633260020

   => Energetics <=

    Nuclear Repulsion Energy =            270.8752515361053383
    One-Electron Energy =               -1215.6042877702400347
    Two-Electron Energy =                 464.8723299015344992
    Total Energy =                       -479.8567063326001971
 Dipole X            :          2.6446108           -3.1856909           -0.5410801
 Dipole Y            :        -64.7252598           63.7873123           -0.9379475
 Dipole Z            :         55.3418915          -55.1623963            0.1794952
 Magnitude           :                                                    1.0976027
  Basis Set: (AUG-CC-PVTZ AUX)
    Blend: AUG-CC-PVTZ-RI
	 Reference Energy          =    -479.8567063326001971 [Eh]
	 Singles Energy            =      -0.0000000000000000 [Eh]
	 Same-Spin Energy          =      -0.4342404656356113 [Eh]
	 Opposite-Spin Energy      =      -1.3183431374813577 [Eh]
	 Correlation Energy        =      -1.7525836031169690 [Eh]
	 Total Energy              =    -481.6092899357171859 [Eh]

	 ================> DF-SCS-MP2 Energies <==================
	-----------------------------------------------------------
	 SCS Same-Spin Scale       =       0.3333333333333333 [-]
	 SCS Opposite-Spin Scale   =       1.2000000000000000 [-]
	 SCS Same-Spin Energy      =      -0.1447468218785371 [Eh]
	 SCS Opposite-Spin Energy  =      -1.5820117649776291 [Eh]
	 SCS Correlation Energy    =      -1.7267585868561661 [Eh]
	 SCS Total Energy          =    -481.5834649194563895 [Eh]
	-----------------------------------------------------------

*** Psi4 exiting successfully. Buy a developer a beer!
