                               Psi4 1.8.2 release

  ==> Input File <==

--------------------------------------------------------------------------
MEMORY 60 GB

molecule dimer {
-1 1
F          0.000000     0.000000     0.000000
O          2.858282    -0.833213     0.651091
H          3.399293     0.024160     0.566205
H          1.903206    -0.625238     0.585710
O          1.868433     2.058308    -1.208021
H          2.540721     2.007336    -0.483762
H          1.227009     1.397810    -1.025747
O         -0.032310    -2.129156    -1.895246
H          0.717469    -2.702061    -1.661178
H         -0.051575    -1.419248    -1.207236
O         -2.451498    -1.582454    -0.217801
H         -1.706112    -0.991466    -0.104451
H         -2.028729    -2.422132     0.060201
O         -1.886662     1.914792    -0.671064
H         -1.332695     2.697518    -0.516387
H         -1.209928     1.217135    -0.609328
O          0.158118    -2.574331     1.157629
H          0.034132    -1.637920     1.237985
H         -0.064963    -2.865203     2.037544

units ang
no_reorient
no_com
symmetry c1
}

set {
basis        aug-cc-pVTZ
scf_type     df
}

energy("mp2")
--------------------------------------------------------------------------

    Molecular point group: c1

    Geometry (in Angstrom), charge = -1, multiplicity = 1:

       Center              X                  Y                   Z               Mass
    ------------   -----------------  -----------------  -----------------  -----------------
         F            0.000000000000     0.000000000000     0.000000000000    18.998403162730
         O            2.858282000000    -0.833213000000     0.651091000000    15.994914619570
         H            3.399293000000     0.024160000000     0.566205000000     1.007825032230
         H            1.903206000000    -0.625238000000     0.585710000000     1.007825032230
         O            1.868433000000     2.058308000000    -1.208021000000    15.994914619570
         H            2.540721000000     2.007336000000    -0.483762000000     1.007825032230
         H            1.227009000000     1.397810000000    -1.025747000000     1.007825032230
         O           -0.032310000000    -2.129156000000    -1.895246000000    15.994914619570
         H            0.717469000000    -2.702061000000    -1.661178000000     1.007825032230
         H           -0.051575000000    -1.419248000000    -1.207236000000     1.007825032230
         O           -2.451498000000    -1.582454000000    -0.217801000000    15.994914619570
         H           -1.706112000000    -0.991466000000    -0.104451000000     1.007825032230
         H           -2.028729000000    -2.422132000000     0.060201000000     1.007825032230
         O           -1.886662000000     1.914792000000    -0.671064000000    15.994914619570
         H           -1.332695000000     2.697518000000    -0.516387000000     1.007825032230
         H           -1.209928000000     1.217135000000    -0.609328000000     1.007825032230
         O            0.158118000000    -2.574331000000     1.157629000000    15.994914619570
         H            0.034132000000    -1.637920000000     1.237985000000     1.007825032230
         H           -0.064963000000    -2.865203000000     2.037544000000     1.007825032230

  Charge       = -1
  Multiplicity = 1
  Basis Set: AUG-CC-PVTZ
    Blend: AUG-CC-PVTZ
  Basis Set: (AUG-CC-PVTZ AUX)
    Blend: AUG-CC-PVTZ-JKFIT

    Orbital Energies [Eh]
    ---------------------

    Doubly Occupied:

       1A    -26.005413     2A    -20.437649     3A    -20.436554
       4A    -20.434097     5A    -20.399619     6A    -20.390316
       7A    -20.389634     8A     -1.270034     9A     -1.232447
      10A     -1.217285    11A     -1.198070    12A     -1.180839
      13A     -1.175983    14A     -1.164531    15A     -0.593106
      16A     -0.588597    17A     -0.571284    18A     -0.542028
      19A     -0.537988    20A     -0.523433    21A     -0.470225
      22A     -0.457442    23A     -0.437974    24A     -0.431936
      25A     -0.431134    26A     -0.410786    27A     -0.381261
      28A     -0.379994    29A     -0.373042    30A     -0.363041
      31A     -0.358850    32A     -0.356389    33A     -0.344367
      34A     -0.340610    35A     -0.322439

  @DF-RHF Final Energy:  -555.91266280842626

   => Energetics <=

    Nuclear Repulsion Energy =            356.0047755528384528
    One-Electron Energy =               -1491.5380689176097349
    Two-Electron Energy =                 579.6206305563449632
    Total Energy =                       -555.9126628084262620
 Dipole X            :        -12.7101032           14.2536977            1.5435945
 Dipole Y            :         58.3530175          -57.6134807            0.7395368
 Dipole Z            :         37.4382990          -35.1257379            2.3125611
 Magnitude           :                                                    2.8770710
  Basis Set: (AUG-CC-PVTZ AUX)
    Blend: AUG-CC-PVTZ-RI
	 Reference Energy          =    -555.9126628084262620 [Eh]
	 Singles Energy            =      -0.0000000000000000 [Eh]
	 Same-Spin Energy          =      -0.5039311825955022 [Eh]
	 Opposite-Spin Energy      =      -1.5367457926278059 [Eh]
	 Correlation Energy        =      -2.0406769752233078 [Eh]
	 Total Energy              =    -557.9533397836495396 [Eh]

	 ================> DF-SCS-MP2 Energies <==================
	-----------------------------------------------------------
	 SCS Same-Spin Scale       =       0.3333333333333333 [-]
	 SCS Opposite-Spin Scale   =       1.2000000000000000 [-]
	 SCS Same-Spin Energy      =      -0.1679770608651674 [Eh]
	 SCS Opposite-Spin Energy  =      -1.8440949511533669 [Eh]
	 SCS Correlation Energy    =      -2.0120720120185345 [Eh]
	 SCS Total Energy          =    -557.9247348204447690 [Eh]
	-----------------------------------------------------------

*** Psi4 exiting successfully. Buy a developer a beer!
