                               Psi4 1.8.2 release

  ==> Input File <==

--------------------------------------------------------------------------
MEMORY 60 GB

molecule dimer {
0 1
Gh(F)      0.000000     0.000000     0.000000
Gh(O)     -1.168925    -2.673082    -0.156407
Gh(H)     -0.532814    -1.976025     0.030081
Gh(H)     -0.770947    -3.520667    -0.293653
Gh(O)      1.082029     2.520347    -0.603439
Gh(H)      0.672508     1.677488    -0.480498
Gh(H)      0.457772     2.981546    -1.209019
Gh(O)     -0.925839     1.844347     1.960486
Gh(H)     -1.580309     2.274669     1.443794
Gh(H)     -0.581606     1.043570     1.437507
Gh(O)     -2.619341     0.361552    -1.053879
Gh(H)     -1.651449     0.465340    -0.947193
Gh(H)     -2.854127     1.241772    -0.755563
Gh(O)      1.854349    -0.472305    -2.337972
Gh(H)      2.829300    -0.270573    -2.277932
Gh(H)      1.410065    -0.078132    -1.605965
O          1.344018    -1.431921     1.858566
H          2.072652    -1.020212     2.353761
H          0.950753    -0.724812     1.238400

units ang
no_reorient
no_com
symmetry c1
}

set {
basis        aug-cc-pVTZ
scf_type     df
}

energy("mp2")
--------------------------------------------------------------------------

    Molecular point group: c1

    Geometry (in Angstrom), charge = 0, multiplicity = 1:

       Center              X                  Y                   Z               Mass
    ------------   -----------------  -----------------  -----------------  -----------------
      Gh(F)           0.000000000000     0.000000000000     0.000000000000    18.998403162730
      Gh(O)          -1.168925000000    -2.673082000000    -0.156407000000    15.994914619570
      Gh(H)          -0.532814000000    -1.976025000000     0.030081000000     1.007825032230
      Gh(H)          -0.770947000000    -3.520667000000    -0.293653000000     1.007825032230
      Gh(O)           1.082029000000     2.520347000000    -0.603439000000    15.994914619570
      Gh(H)           0.672508000000     1.677488000000    -0.480498000000     1.007825032230
      Gh(H)           0.457772000000     2.981546000000    -1.209019000000     1.007825032230
      Gh(O)          -0.925839000000     1.844347000000     1.960486000000    15.994914619570
      Gh(H)          -1.580309000000     2.274669000000     1.443794000000     1.007825032230
      Gh(H)          -0.581606000000     1.043570000000     1.437507000000     1.007825032230
      Gh(O)          -2.619341000000     0.361552000000    -1.053879000000    15.994914619570
      Gh(H)          -1.651449000000     0.465340000000    -0.947193000000     1.007825032230
      Gh(H)          -2.854127000000     1.241772000000    -0.755563000000     1.007825032230
      Gh(O)           1.854349000000    -0.472305000000    -2.337972000000    15.994914619570
      Gh(H)           2.829300000000    -0.270573000000    -2.277932000000     1.007825032230
      Gh(H)           1.410065000000    -0.078132000000    -1.605965000000     1.007825032230
         O            1.344018000000    -1.431921000000     1.858566000000    15.994914619570
         H            2.072652000000    -1.020212000000     2.353761000000     1.007825032230
         H            0.950753000000    -0.724812000000     1.238400000000     1.007825032230

  Charge       = 0
  Multiplicity = 1
  Basis Set: AUG-CC-PVTZ
    Blend: AUG-CC-PVTZ
  Basis Set: (AUG-CC-PVTZ AUX)
    Blend: AUG-CC-PVTZ-JKFIT

    Orbital Energies [Eh]
    ---------------------

    Doubly Occupied:

       1A    -20.572028     2A     -1.332760     3A     -0.702959
       4A     -0.571020     5A     -0.506280

  @DF-RHF Final Energy:   -76.05433515561228

   => Energetics <=

    Nuclear Repulsion Energy =              8.8349100426207237
    One-Electron Energy =                -122.4083908387373327
    Two-Electron Energy =                  37.5191456405043411
    Total Energy =                        -76.0543351556122786
 Dipole X            :        -25.8072476           26.0320148            0.2247672
 Dipole Y            :         25.6776998          -24.9451256            0.7325741
 Dipole Z            :        -34.9630372           34.8856463           -0.0773909
 Magnitude           :                                                    0.7701782
  Basis Set: (AUG-CC-PVTZ AUX)
    Blend: AUG-CC-PVTZ-RI
	 Reference Energy          =     -76.0543351556122786 [Eh]
	 Singles Energy            =      -0.0000000000000000 [Eh]
	 Same-Spin Energy          =      -0.0690361440974142 [Eh]
	 Opposite-Spin Energy      =      -0.2180763336883742 [Eh]
	 Correlation Energy        =      -0.2871124777857884 [Eh]
	 Total Energy              =     -76.3414476333980616 [Eh]

	 ================> DF-SCS-MP2 Energies <==================
	-----------------------------------------------------------
	 SCS Same-Spin Scale       =       0.3333333333333333 [-]
	 SCS Opposite-Spin Scale   =       1.2000000000000000 [-]
	 SCS Same-Spin Energy      =      -0.0230120480324714 [Eh]
	 SCS Opposite-Spin Energy  =      -0.2616916004260491 [Eh]
	 SCS Correlation Energy    =      -0.2847036484585205 [Eh]
	 SCS Total Energy          =     -76.3390388040707961 [Eh]
	-----------------------------------------------------------

*** Psi4 exiting successfully. Buy a developer a beer!
