                               Psi4 1.8.2 release

  ==> Input File <==

--------------------------------------------------------------------------
MEMORY 60 GB

molecule dimer {
0 1
Gh(F)      0.000000     0.000000     0.000000
Gh(O)      2.300634    -1.333306    -0.902108
Gh(H)      1.393934    -1.048189    -0.537281
Gh(H)      2.196325    -1.676113    -1.778413
Gh(O)     -0.721455     0.039200     2.664180
Gh(H)     -0.478323    -0.147144     1.721719
Gh(H)     -0.301277    -0.711256     3.142866
Gh(O)     -1.968178     1.181669    -1.178721
Gh(H)     -2.732253     0.755644    -0.806522
Gh(H)     -1.213738     0.822443    -0.721049
O         -2.147115    -1.870979    -0.798426
H         -1.363119    -1.488592    -0.414049
H         -2.860249    -1.280709    -0.613524
Gh(O)      0.601987     2.534872     1.009589
Gh(H)      0.625186     1.602289     0.786548
Gh(H)      1.072015     2.565401     1.876249

units ang
no_reorient
no_com
symmetry c1
}

set {
basis        aug-cc-pVTZ
scf_type     df
}

energy("mp2")
--------------------------------------------------------------------------

    Molecular point group: c1

    Geometry (in Angstrom), charge = 0, multiplicity = 1:

       Center              X                  Y                   Z               Mass
    ------------   -----------------  -----------------  -----------------  -----------------
      Gh(F)           0.000000000000     0.000000000000     0.000000000000    18.998403162730
      Gh(O)           2.300634000000    -1.333306000000    -0.902108000000    15.994914619570
      Gh(H)           1.393934000000    -1.048189000000    -0.537281000000     1.007825032230
      Gh(H)           2.196325000000    -1.676113000000    -1.778413000000     1.007825032230
      Gh(O)          -0.721455000000     0.039200000000     2.664180000000    15.994914619570
      Gh(H)          -0.478323000000    -0.147144000000     1.721719000000     1.007825032230
      Gh(H)          -0.301277000000    -0.711256000000     3.142866000000     1.007825032230
      Gh(O)          -1.968178000000     1.181669000000    -1.178721000000    15.994914619570
      Gh(H)          -2.732253000000     0.755644000000    -0.806522000000     1.007825032230
      Gh(H)          -1.213738000000     0.822443000000    -0.721049000000     1.007825032230
         O           -2.147115000000    -1.870979000000    -0.798426000000    15.994914619570
         H           -1.363119000000    -1.488592000000    -0.414049000000     1.007825032230
         H           -2.860249000000    -1.280709000000    -0.613524000000     1.007825032230
      Gh(O)           0.601987000000     2.534872000000     1.009589000000    15.994914619570
      Gh(H)           0.625186000000     1.602289000000     0.786548000000     1.007825032230
      Gh(H)           1.072015000000     2.565401000000     1.876249000000     1.007825032230

  Charge       = 0
  Multiplicity = 1
  Basis Set: AUG-CC-PVTZ
    Blend: AUG-CC-PVTZ
  Basis Set: (AUG-CC-PVTZ AUX)
    Blend: AUG-CC-PVTZ-JKFIT

    Orbital Energies [Eh]
    ---------------------

    Doubly Occupied:

       1A    -20.564491     2A     -1.356293     3A     -0.727286
       4A     -0.581748     5A     -0.510352

  @DF-RHF Final Energy:   -76.06109915577917

   => Energetics <=

    Nuclear Repulsion Energy =              9.2727739185187232
    One-Electron Energy =                -123.1874047222233486
    Two-Electron Energy =                  37.8535316479254575
    Total Energy =                        -76.0610991557791749
 Dipole X            :         40.4870322          -40.4406833            0.0463489
 Dipole Y            :         34.1739742          -33.5183236            0.6556505
 Dipole Z            :         14.3958837          -14.0122833            0.3836004
 Magnitude           :                                                    0.7610356
  Basis Set: (AUG-CC-PVTZ AUX)
    Blend: AUG-CC-PVTZ-RI
	 Reference Energy          =     -76.0610991557791749 [Eh]
	 Singles Energy            =      -0.0000000000000000 [Eh]
	 Same-Spin Energy          =      -0.0682169885407466 [Eh]
	 Opposite-Spin Energy      =      -0.2154436811986742 [Eh]
	 Correlation Energy        =      -0.2836606697394209 [Eh]
	 Total Energy              =     -76.3447598255185937 [Eh]

	 ================> DF-SCS-MP2 Energies <==================
	-----------------------------------------------------------
	 SCS Same-Spin Scale       =       0.3333333333333333 [-]
	 SCS Opposite-Spin Scale   =       1.2000000000000000 [-]
	 SCS Same-Spin Energy      =      -0.0227389961802489 [Eh]
	 SCS Opposite-Spin Energy  =      -0.2585324174384091 [Eh]
	 SCS Correlation Energy    =      -0.2812714136186580 [Eh]
	 SCS Total Energy          =     -76.3423705693978292 [Eh]
	-----------------------------------------------------------

*** Psi4 exiting successfully. Buy a developer a beer!
