                               Psi4 1.8.2 release

  ==> Input File <==

--------------------------------------------------------------------------
MEMORY 60 GB

molecule dimer {
0 1
Gh(F)      0.000000     0.000000     0.000000
Gh(O)     -1.815093    -1.909151    -1.378201
Gh(H)     -1.403991    -2.276259    -2.165990
Gh(H)     -1.261117    -1.228137    -1.060890
O         -2.290972     1.058239     1.136022
H         -1.623090     0.540782     0.668743
H         -1.945953     1.955729     1.153331
Gh(O)      0.991195     2.121049     1.492154
Gh(H)      0.917310     1.817853     2.425342
Gh(H)      0.600819     1.313217     1.073674
Gh(O)      0.163617    -2.054169     1.849337
Gh(H)     -0.065307    -1.308779     1.260088
Gh(H)     -0.495621    -2.762095     1.646170

units ang
no_reorient
no_com
symmetry c1
}

set {
basis        aug-cc-pVTZ
scf_type     df
}

energy("mp2")
--------------------------------------------------------------------------

    Molecular point group: c1

    Geometry (in Angstrom), charge = 0, multiplicity = 1:

       Center              X                  Y                   Z               Mass
    ------------   -----------------  -----------------  -----------------  -----------------
      Gh(F)           0.000000000000     0.000000000000     0.000000000000    18.998403162730
      Gh(O)          -1.815093000000    -1.909151000000    -1.378201000000    15.994914619570
      Gh(H)          -1.403991000000    -2.276259000000    -2.165990000000     1.007825032230
      Gh(H)          -1.261117000000    -1.228137000000    -1.060890000000     1.007825032230
         O           -2.290972000000     1.058239000000     1.136022000000    15.994914619570
         H           -1.623090000000     0.540782000000     0.668743000000     1.007825032230
         H           -1.945953000000     1.955729000000     1.153331000000     1.007825032230
      Gh(O)           0.991195000000     2.121049000000     1.492154000000    15.994914619570
      Gh(H)           0.917310000000     1.817853000000     2.425342000000     1.007825032230
      Gh(H)           0.600819000000     1.313217000000     1.073674000000     1.007825032230
      Gh(O)           0.163617000000    -2.054169000000     1.849337000000    15.994914619570
      Gh(H)          -0.065307000000    -1.308779000000     1.260088000000     1.007825032230
      Gh(H)          -0.495621000000    -2.762095000000     1.646170000000     1.007825032230

  Charge       = 0
  Multiplicity = 1
  Basis Set: AUG-CC-PVTZ
    Blend: AUG-CC-PVTZ
  Basis Set: (AUG-CC-PVTZ AUX)
    Blend: AUG-CC-PVTZ-JKFIT

    Orbital Energies [Eh]
    ---------------------

    Doubly Occupied:

       1A    -20.567952     2A     -1.349837     3A     -0.715441
       4A     -0.582475     5A     -0.509639

  @DF-RHF Final Energy:   -76.06022775079877

   => Energetics <=

    Nuclear Repulsion Energy =              9.1326805982281165
    One-Electron Energy =                -122.9351261386146916
    Two-Electron Energy =                  37.7422177895878050
    Total Energy =                        -76.0602277507987594
 Dipole X            :         42.0515074          -41.3789909            0.6725165
 Dipole Y            :        -20.4632923           20.7159771            0.2526849
 Dipole Z            :        -20.9162916           20.6173845           -0.2989071
 Magnitude           :                                                    0.7781218
  Basis Set: (AUG-CC-PVTZ AUX)
    Blend: AUG-CC-PVTZ-RI
	 Reference Energy          =     -76.0602277507987736 [Eh]
	 Singles Energy            =      -0.0000000000000000 [Eh]
	 Same-Spin Energy          =      -0.0685096371118257 [Eh]
	 Opposite-Spin Energy      =      -0.2163499262196700 [Eh]
	 Correlation Energy        =      -0.2848595633314956 [Eh]
	 Total Energy              =     -76.3450873141302679 [Eh]

	 ================> DF-SCS-MP2 Energies <==================
	-----------------------------------------------------------
	 SCS Same-Spin Scale       =       0.3333333333333333 [-]
	 SCS Opposite-Spin Scale   =       1.2000000000000000 [-]
	 SCS Same-Spin Energy      =      -0.0228365457039419 [Eh]
	 SCS Opposite-Spin Energy  =      -0.2596199114636040 [Eh]
	 SCS Correlation Energy    =      -0.2824564571675459 [Eh]
	 SCS Total Energy          =     -76.3426842079663146 [Eh]
	-----------------------------------------------------------

*** Psi4 exiting successfully. Buy a developer a beer!
