                               Psi4 1.8.2 release

  ==> Input File <==

--------------------------------------------------------------------------
MEMORY 60 GB

molecule dimer {
-1 1
F          0.000000     0.000000     0.000000
O         -2.413496     0.942059     1.683179
H         -2.369850     1.675598     2.308522
H         -1.516197     0.609131     1.412280
O          1.644372    -2.458712     0.050667
H          1.033770    -1.732996     0.175981
H          1.480271    -2.944848     0.845458
O          0.820687     0.822159     2.619673
H          0.614436     0.700992     1.654114
H          0.656262     1.757957     2.775129
O         -2.196713    -1.512783    -0.142220
H         -2.784492    -0.795457    -0.455902
H         -1.397291    -0.991488    -0.086194
O         -0.307997     2.194705    -1.635644
H         -0.307018     1.433362    -1.078243
H         -1.239503     2.400415    -1.651584

units ang
no_reorient
no_com
symmetry c1
}

set {
basis        aug-cc-pVTZ
scf_type     df
}

energy("mp2")
--------------------------------------------------------------------------

    Molecular point group: c1

    Geometry (in Angstrom), charge = -1, multiplicity = 1:

       Center              X                  Y                   Z               Mass
    ------------   -----------------  -----------------  -----------------  -----------------
         F            0.000000000000     0.000000000000     0.000000000000    18.998403162730
         O           -2.413496000000     0.942059000000     1.683179000000    15.994914619570
         H           -2.369850000000     1.675598000000     2.308522000000     1.007825032230
         H           -1.516197000000     0.609131000000     1.412280000000     1.007825032230
         O            1.644372000000    -2.458712000000     0.050667000000    15.994914619570
         H            1.033770000000    -1.732996000000     0.175981000000     1.007825032230
         H            1.480271000000    -2.944848000000     0.845458000000     1.007825032230
         O            0.820687000000     0.822159000000     2.619673000000    15.994914619570
         H            0.614436000000     0.700992000000     1.654114000000     1.007825032230
         H            0.656262000000     1.757957000000     2.775129000000     1.007825032230
         O           -2.196713000000    -1.512783000000    -0.142220000000    15.994914619570
         H           -2.784492000000    -0.795457000000    -0.455902000000     1.007825032230
         H           -1.397291000000    -0.991488000000    -0.086194000000     1.007825032230
         O           -0.307997000000     2.194705000000    -1.635644000000    15.994914619570
         H           -0.307018000000     1.433362000000    -1.078243000000     1.007825032230
         H           -1.239503000000     2.400415000000    -1.651584000000     1.007825032230

  Charge       = -1
  Multiplicity = 1
  Basis Set: AUG-CC-PVTZ
    Blend: AUG-CC-PVTZ
  Basis Set: (AUG-CC-PVTZ AUX)
    Blend: AUG-CC-PVTZ-JKFIT

    Orbital Energies [Eh]
    ---------------------

    Doubly Occupied:

       1A    -25.990558     2A    -20.425882     3A    -20.420264
       4A    -20.404316     5A    -20.402562     6A    -20.385692
       7A     -1.256560     8A     -1.199743     9A     -1.199093
      10A     -1.197822    11A     -1.195868    12A     -1.172747
      13A     -0.584258    14A     -0.560811    15A     -0.557381
      16A     -0.550234    17A     -0.524636    18A     -0.445308
      19A     -0.442702    20A     -0.437520    21A     -0.429786
      22A     -0.427258    23A     -0.369916    24A     -0.362389
      25A     -0.355834    26A     -0.352449    27A     -0.347300
      28A     -0.345912    29A     -0.339726    30A     -0.329639

  @DF-RHF Final Energy:  -479.85588784482172

   => Energetics <=

    Nuclear Repulsion Energy =            261.1720261030446864
    One-Electron Energy =               -1196.0274936098467151
    Two-Electron Energy =                 454.9995796619803059
    Total Energy =                       -479.8558878448217229
 Dipole X            :         47.9064787          -48.1025779           -0.1960992
 Dipole Y            :         -2.5081249            3.8022990            1.2941741
 Dipole Z            :        -49.7945312           50.0868149            0.2922837
 Magnitude           :                                                    1.3411828
  Basis Set: (AUG-CC-PVTZ AUX)
    Blend: AUG-CC-PVTZ-RI
	 Reference Energy          =    -479.8558878448217229 [Eh]
	 Singles Energy            =      -0.0000000000000000 [Eh]
	 Same-Spin Energy          =      -0.4323545907543238 [Eh]
	 Opposite-Spin Energy      =      -1.3151016412315535 [Eh]
	 Correlation Energy        =      -1.7474562319858773 [Eh]
	 Total Energy              =    -481.6033440768076161 [Eh]

	 ================> DF-SCS-MP2 Energies <==================
	-----------------------------------------------------------
	 SCS Same-Spin Scale       =       0.3333333333333333 [-]
	 SCS Opposite-Spin Scale   =       1.2000000000000000 [-]
	 SCS Same-Spin Energy      =      -0.1441181969181079 [Eh]
	 SCS Opposite-Spin Energy  =      -1.5781219694778641 [Eh]
	 SCS Correlation Energy    =      -1.7222401663959721 [Eh]
	 SCS Total Energy          =    -481.5781280112177001 [Eh]
	-----------------------------------------------------------

*** Psi4 exiting successfully. Buy a developer a beer!
