                               Psi4 1.8.2 release

  ==> Input File <==

--------------------------------------------------------------------------
MEMORY 60 GB

molecule dimer {
-1 1
F          0.000000     0.000000     0.000000
Gh(O)      2.779088    -0.118830    -0.906542
Gh(H)      2.861577    -0.902793    -1.461637
Gh(H)      1.786663    -0.046131    -0.692626
Gh(O)     -1.341633     2.261718    -1.186341
Gh(H)     -1.115566     2.466266    -2.140941
Gh(H)     -0.840947     1.535422    -0.871680
Gh(O)      1.697414    -0.600219     2.291858
Gh(H)      2.307780    -1.309760     2.178210
Gh(H)      0.932232    -0.756904     1.737642
Gh(O)     -1.062014    -1.090209    -2.427699
Gh(H)     -1.550385    -0.449677    -2.957604
Gh(H)     -0.707907    -0.582861    -1.692225
Gh(O)     -2.678698    -0.614221     0.746640
Gh(H)     -3.546811    -0.478083     0.421902
Gh(H)     -2.030516    -0.148316     0.196031
Gh(O)     -0.115018     2.307183     1.459312
Gh(H)      0.071014     1.562964     0.988675
Gh(H)     -1.079045     2.401109     1.137642

units ang
no_reorient
no_com
symmetry c1
}

set {
basis        aug-cc-pVTZ
scf_type     df
}

energy("mp2")
--------------------------------------------------------------------------

    Molecular point group: c1

    Geometry (in Angstrom), charge = -1, multiplicity = 1:

       Center              X                  Y                   Z               Mass
    ------------   -----------------  -----------------  -----------------  -----------------
         F            0.000000000000     0.000000000000     0.000000000000    18.998403162730
      Gh(O)           2.779088000000    -0.118830000000    -0.906542000000    15.994914619570
      Gh(H)           2.861577000000    -0.902793000000    -1.461637000000     1.007825032230
      Gh(H)           1.786663000000    -0.046131000000    -0.692626000000     1.007825032230
      Gh(O)          -1.341633000000     2.261718000000    -1.186341000000    15.994914619570
      Gh(H)          -1.115566000000     2.466266000000    -2.140941000000     1.007825032230
      Gh(H)          -0.840947000000     1.535422000000    -0.871680000000     1.007825032230
      Gh(O)           1.697414000000    -0.600219000000     2.291858000000    15.994914619570
      Gh(H)           2.307780000000    -1.309760000000     2.178210000000     1.007825032230
      Gh(H)           0.932232000000    -0.756904000000     1.737642000000     1.007825032230
      Gh(O)          -1.062014000000    -1.090209000000    -2.427699000000    15.994914619570
      Gh(H)          -1.550385000000    -0.449677000000    -2.957604000000     1.007825032230
      Gh(H)          -0.707907000000    -0.582861000000    -1.692225000000     1.007825032230
      Gh(O)          -2.678698000000    -0.614221000000     0.746640000000    15.994914619570
      Gh(H)          -3.546811000000    -0.478083000000     0.421902000000     1.007825032230
      Gh(H)          -2.030516000000    -0.148316000000     0.196031000000     1.007825032230
      Gh(O)          -0.115018000000     2.307183000000     1.459312000000    15.994914619570
      Gh(H)           0.071014000000     1.562964000000     0.988675000000     1.007825032230
      Gh(H)          -1.079045000000     2.401109000000     1.137642000000     1.007825032230

  Charge       = -1
  Multiplicity = 1
  Basis Set: AUG-CC-PVTZ
    Blend: AUG-CC-PVTZ
  Basis Set: (AUG-CC-PVTZ AUX)
    Blend: AUG-CC-PVTZ-JKFIT

    Orbital Energies [Eh]
    ---------------------

    Doubly Occupied:

       1A    -25.833518     2A     -1.075871     3A     -0.180927
       4A     -0.180897     5A     -0.180864

  @DF-RHF Final Energy:   -99.45113738307192

   => Energetics <=

    Nuclear Repulsion Energy =              0.0000000000000000
    One-Electron Energy =                -143.9981136756063052
    Two-Electron Energy =                  44.5469762925343886
    Total Energy =                        -99.4511373830719094
 Dipole X            :         -0.0001128            0.0000000           -0.0001128
 Dipole Y            :          0.0001587            0.0000000            0.0001587
 Dipole Z            :         -0.0000188            0.0000000           -0.0000188
 Magnitude           :                                                    0.0001956
  Basis Set: (AUG-CC-PVTZ AUX)
    Blend: AUG-CC-PVTZ-RI
	 Reference Energy          =     -99.4511373830719236 [Eh]
	 Singles Energy            =      -0.0000000000000000 [Eh]
	 Same-Spin Energy          =      -0.0820532473833073 [Eh]
	 Opposite-Spin Energy      =      -0.2300273909816281 [Eh]
	 Correlation Energy        =      -0.3120806383649353 [Eh]
	 Total Energy              =     -99.7632180214368560 [Eh]

	 ================> DF-SCS-MP2 Energies <==================
	-----------------------------------------------------------
	 SCS Same-Spin Scale       =       0.3333333333333333 [-]
	 SCS Opposite-Spin Scale   =       1.2000000000000000 [-]
	 SCS Same-Spin Energy      =      -0.0273510824611024 [Eh]
	 SCS Opposite-Spin Energy  =      -0.2760328691779537 [Eh]
	 SCS Correlation Energy    =      -0.3033839516390561 [Eh]
	 SCS Total Energy          =     -99.7545213347109865 [Eh]
	-----------------------------------------------------------

*** Psi4 exiting successfully. Buy a developer a beer!
