                               Psi4 1.8.2 release

  ==> Input File <==

--------------------------------------------------------------------------
MEMORY 60 GB

molecule dimer {
-1 1
F          0.000000     0.000000     0.000000
Gh(O)      1.372061    -1.347210    -1.932574
Gh(H)      1.774702    -2.112636    -1.501750
Gh(H)      0.855323    -0.909015    -1.230796
Gh(O)     -1.740094    -2.011283    -0.219246
Gh(H)     -1.508601    -2.530431    -0.974565
Gh(H)     -1.010642    -1.384241    -0.176034
Gh(O)     -1.563985     1.368744    -1.739992
Gh(H)     -1.407057     0.868260    -2.530266
Gh(H)     -1.046196     0.902619    -1.029123
Gh(O)     -1.071139    -0.537241     2.612539
Gh(H)     -0.620873    -0.301090     1.726356
Gh(H)     -0.452618    -0.183595     3.292619

units ang
no_reorient
no_com
symmetry c1
}

set {
basis        aug-cc-pVTZ
scf_type     df
}

energy("mp2")
--------------------------------------------------------------------------

    Molecular point group: c1

    Geometry (in Angstrom), charge = -1, multiplicity = 1:

       Center              X                  Y                   Z               Mass
    ------------   -----------------  -----------------  -----------------  -----------------
         F            0.000000000000     0.000000000000     0.000000000000    18.998403162730
      Gh(O)           1.372061000000    -1.347210000000    -1.932574000000    15.994914619570
      Gh(H)           1.774702000000    -2.112636000000    -1.501750000000     1.007825032230
      Gh(H)           0.855323000000    -0.909015000000    -1.230796000000     1.007825032230
      Gh(O)          -1.740094000000    -2.011283000000    -0.219246000000    15.994914619570
      Gh(H)          -1.508601000000    -2.530431000000    -0.974565000000     1.007825032230
      Gh(H)          -1.010642000000    -1.384241000000    -0.176034000000     1.007825032230
      Gh(O)          -1.563985000000     1.368744000000    -1.739992000000    15.994914619570
      Gh(H)          -1.407057000000     0.868260000000    -2.530266000000     1.007825032230
      Gh(H)          -1.046196000000     0.902619000000    -1.029123000000     1.007825032230
      Gh(O)          -1.071139000000    -0.537241000000     2.612539000000    15.994914619570
      Gh(H)          -0.620873000000    -0.301090000000     1.726356000000     1.007825032230
      Gh(H)          -0.452618000000    -0.183595000000     3.292619000000     1.007825032230

  Charge       = -1
  Multiplicity = 1
  Basis Set: AUG-CC-PVTZ
    Blend: AUG-CC-PVTZ
  Basis Set: (AUG-CC-PVTZ AUX)
    Blend: AUG-CC-PVTZ-JKFIT

    Orbital Energies [Eh]
    ---------------------

    Doubly Occupied:

       1A    -25.833614     2A     -1.075911     3A     -0.180939
       4A     -0.180913     5A     -0.180909

  @DF-RHF Final Energy:   -99.45108191388184

   => Energetics <=

    Nuclear Repulsion Energy =              0.0000000000000000
    One-Electron Energy =                -143.9975930991739119
    Two-Electron Energy =                  44.5465111852920757
    Total Energy =                        -99.4510819138818363
 Dipole X            :         -0.0001294            0.0000000           -0.0001294
 Dipole Y            :         -0.0000659            0.0000000           -0.0000659
 Dipole Z            :         -0.0002325            0.0000000           -0.0002325
 Magnitude           :                                                    0.0002742
  Basis Set: (AUG-CC-PVTZ AUX)
    Blend: AUG-CC-PVTZ-RI
	 Reference Energy          =     -99.4510819138818363 [Eh]
	 Singles Energy            =      -0.0000000000000000 [Eh]
	 Same-Spin Energy          =      -0.0820420933109980 [Eh]
	 Opposite-Spin Energy      =      -0.2300442318459840 [Eh]
	 Correlation Energy        =      -0.3120863251569820 [Eh]
	 Total Energy              =     -99.7631682390388193 [Eh]

	 ================> DF-SCS-MP2 Energies <==================
	-----------------------------------------------------------
	 SCS Same-Spin Scale       =       0.3333333333333333 [-]
	 SCS Opposite-Spin Scale   =       1.2000000000000000 [-]
	 SCS Same-Spin Energy      =      -0.0273473644369993 [Eh]
	 SCS Opposite-Spin Energy  =      -0.2760530782151808 [Eh]
	 SCS Correlation Energy    =      -0.3034004426521801 [Eh]
	 SCS Total Energy          =     -99.7544823565340124 [Eh]
	-----------------------------------------------------------

*** Psi4 exiting successfully. Buy a developer a beer!
