                               Psi4 1.9 release

  ==> Input File <==

--------------------------------------------------------------------------
MEMORY 60 GB

molecule dimer {
-1 1
F      0.000000     0.000000     0.000000
--
0 1
O      1.645101     1.699296     1.129951
H      1.015254     1.023734     0.938557
H      2.452697     1.509168     0.634777
O     -1.553213    -0.631155     2.482268
H     -1.969669    -1.457558     2.128408
H     -0.949585    -0.251440     1.820527
O      0.961898    -2.550376     0.595543
H      0.820165    -1.603401     0.519010
H      1.796966    -2.594357     1.096082
O     -1.972263    -1.718144    -1.134114
H     -1.269265    -1.234137    -0.606429
H     -2.533102    -1.010675    -1.448851
O      1.845169    -0.935074    -2.257498
H      1.057097    -0.988219    -1.668991
H      2.348598    -1.768336    -2.397617
O     -0.866070     2.164358    -1.903602
H     -1.546584     2.604533    -1.419034
H     -0.642881     1.424063    -1.400965

units ang
no_reorient
no_com
symmetry c1
}

set {
basis        aug-cc-pVTZ
scf_type     df
}

energy("mp2", bsse_type="cp")
--------------------------------------------------------------------------

                               Psi4 1.9 release
    Molecular point group: c1
  Charge       = 0
  Multiplicity = 1
  Basis Set: AUG-CC-PVTZ
    Blend: AUG-CC-PVTZ
  Basis Set: (AUG-CC-PVTZ AUX)
    Blend: AUG-CC-PVTZ-JKFIT
  @DF-RHF Final Energy:  -456.33164004174557
    Total Energy =                       -456.3316400417455725
 Dipole X            :         -1.7075495            2.0119290            0.3043796
 Dipole Y            :         37.5814612          -38.0125686           -0.4311074
 Dipole Z            :         20.0663498          -19.8499516            0.2163982
 Magnitude           :                                                    0.5703759
  Basis Set: (AUG-CC-PVTZ AUX)
    Blend: AUG-CC-PVTZ-RI
	 Reference Energy          =    -456.3316400417455725 [Eh]
	 Singles Energy            =      -0.0000000000000000 [Eh]
	 Same-Spin Energy          =      -0.4142022926301951 [Eh]
	 Opposite-Spin Energy      =      -1.3027722047599608 [Eh]
	 Correlation Energy        =      -1.7169744973901560 [Eh]
	 Total Energy              =    -458.0486145391357127 [Eh]
	 SCS Total Energy          =    -458.0330341183342853 [Eh]
                               Psi4 1.9 release
    Molecular point group: c1
  Multiplicity = 1
  Basis Set: AUG-CC-PVTZ
    Blend: AUG-CC-PVTZ
  Basis Set: (AUG-CC-PVTZ AUX)
    Blend: AUG-CC-PVTZ-JKFIT
  @DF-RHF Final Energy:   -99.45114959399909
    Total Energy =                        -99.4511495939991050
  Basis Set: (AUG-CC-PVTZ AUX)
	 Singles Energy            =      -0.0000000000000000 [Eh]
	 Same-Spin Energy          =      -0.0820577010300614 [Eh]
	 Opposite-Spin Energy      =      -0.2301958817933808 [Eh]
	 Correlation Energy        =      -0.3122535828234422 [Eh]
	 Total Energy              =     -99.7634031768225356 [Eh]
	 SCS Total Energy          =     -99.7547372191611714 [Eh]
                               Psi4 1.9 release
    Molecular point group: c1

    Geometry (in Bohr), charge = -1, multiplicity = 1:

       Center              X                  Y                   Z               Mass
    ------------   -----------------  -----------------  -----------------  -----------------
         F            0.000000000000     0.000000000000     0.000000000000    18.998403162730
         O            3.108790338717     3.211204046086     2.135297925187    15.994914619570
         H            1.918552007776     1.934576885319     1.773615683131     1.007825032230
         H            4.634925598732     2.851914197305     1.199554680740     1.007825032230
         O           -2.935147184501    -1.192710092713     4.690806689988    15.994914619570
         H           -3.722134967804    -2.754385431970     4.022108203233     1.007825032230
         H           -1.794455582843    -0.475152736985     3.440297434001     1.007825032230
         O            1.817723780626    -4.819512156941     1.125413165934    15.994914619570
         H            1.549887227686    -3.029988759285     0.980786756374     1.007825032230
         H            3.395773596759    -4.902624201664     2.071294791044     1.007825032230
         O           -3.727036917374    -3.246821604099    -2.143164855047    15.994914619570
         H           -2.398563230629    -2.332180931294    -1.145984724535     1.007825032230
         H           -4.786869027849    -1.909898951847    -2.737931586596     1.007825032230
         O            3.486864065185    -1.767033767036    -4.266052948769    15.994914619570
         H            1.997623818043    -1.867463261974    -3.153935895854     1.007825032230
         H            4.438206998798    -3.341670737788    -4.530839483742     1.007825032230
         O           -1.636635105475     4.090043857444    -3.597286431874    15.994914619570
         H           -2.922620190015     4.921854054717    -2.681585622713     1.007825032230
         H           -1.214869021260     2.691089055398    -2.647440161352     1.007825032230

  Charge       = -1
  Multiplicity = 1
  Basis Set: AUG-CC-PVTZ
    Blend: AUG-CC-PVTZ
  Basis Set: (AUG-CC-PVTZ AUX)
    Blend: AUG-CC-PVTZ-JKFIT

    Orbital Energies [Eh]
    ---------------------

    Doubly Occupied:

       1A    -26.007715     2A    -20.421576     3A    -20.420470
       4A    -20.416721     5A    -20.413290     6A    -20.412597
       7A    -20.392362     8A     -1.275083     9A     -1.217597
      10A     -1.205266    11A     -1.189399    12A     -1.188252
      13A     -1.187857    14A     -1.183351    15A     -0.587104
      16A     -0.582269    17A     -0.568966    18A     -0.568484
      19A     -0.563125    20A     -0.549844    21A     -0.449906
      22A     -0.444464    23A     -0.441706    24A     -0.428551
      25A     -0.421351    26A     -0.416561    27A     -0.371955
      28A     -0.369856    29A     -0.365697    30A     -0.364297
      31A     -0.359612    32A     -0.356506    33A     -0.354387
      34A     -0.351626    35A     -0.339153

  @DF-RHF Final Energy:  -555.92368193203299

   => Energetics <=

    Nuclear Repulsion Energy =            348.0819040953541048
    One-Electron Energy =               -1475.6372509205959886
    Two-Electron Energy =                 571.6316648932089493
    Total Energy =                       -555.9236819320329914
 Dipole X            :         -1.7503472            2.0119290            0.2615818
 Dipole Y            :         37.8809271          -38.0125686           -0.1316415
 Dipole Z            :         20.0698976          -19.8499516            0.2199460
 Magnitude           :                                                    0.3662387
  Basis Set: (AUG-CC-PVTZ AUX)
    Blend: AUG-CC-PVTZ-RI
	 Reference Energy          =    -555.9236819320329914 [Eh]
	 Singles Energy            =      -0.0000000000000000 [Eh]
	 Same-Spin Energy          =      -0.5014774721990863 [Eh]
	 Opposite-Spin Energy      =      -1.5318216224084620 [Eh]
	 Correlation Energy        =      -2.0332990946075484 [Eh]
	 Total Energy              =    -557.9569810266405057 [Eh]

	 ================> DF-SCS-MP2 Energies <==================
	-----------------------------------------------------------
	 SCS Same-Spin Scale       =       0.3333333333333333 [-]
	 SCS Opposite-Spin Scale   =       1.2000000000000000 [-]
	 SCS Same-Spin Energy      =      -0.1671591573996954 [Eh]
	 SCS Opposite-Spin Energy  =      -1.8381859468901542 [Eh]
	 SCS Correlation Energy    =      -2.0053451042898498 [Eh]
	 SCS Total Energy          =    -557.9290270363228501 [Eh]
	-----------------------------------------------------------

*** Psi4 exiting successfully. Buy a developer a beer!
