                               Psi4 1.9 release

  ==> Input File <==

--------------------------------------------------------------------------
MEMORY 60 GB

molecule dimer {
-1 1
F      0.000000     0.000000     0.000000
--
0 1
O      1.999981     1.872363    -0.549390
H      1.832241     2.798537    -0.384091
H      1.190518     1.366946    -0.536042
O     -0.732147    -0.508733    -2.638181
H     -0.559848    -0.335039    -1.688412
H     -1.560312    -0.049892    -2.825446
O     -1.396072     2.119528     1.247335
H     -0.668981     2.736259     1.112284
H     -0.986667     1.275496     1.030001
O      0.539337    -2.569316     0.762966
H      0.351918    -1.701170     0.380121
H      0.432027    -3.158462     0.035461
O      2.295897     0.161463     1.842537
H      1.406911     0.065818     2.189690
H      2.212168     0.621719     0.983706
O     -2.515644    -1.246307     0.318199
H     -2.419320    -2.143283    -0.096705
H     -1.667771    -0.781486     0.321701

units ang
no_reorient
no_com
symmetry c1
}

set {
basis        aug-cc-pVTZ
scf_type     df
}

energy("mp2", bsse_type="cp")
--------------------------------------------------------------------------

                               Psi4 1.9 release
    Molecular point group: c1
  Charge       = 0
  Multiplicity = 1
  Basis Set: AUG-CC-PVTZ
    Blend: AUG-CC-PVTZ
  Basis Set: (AUG-CC-PVTZ AUX)
    Blend: AUG-CC-PVTZ-JKFIT
  @DF-RHF Final Energy:  -456.33398102611471
    Total Energy =                       -456.3339810261147136
 Dipole X            :         -2.6356792            2.0667935           -0.5688857
 Dipole Y            :          1.9942824           -1.2709788            0.7233037
 Dipole Z            :        -16.9156174           15.8547946           -1.0608228
 Magnitude           :                                                    1.4043305
  Basis Set: (AUG-CC-PVTZ AUX)
    Blend: AUG-CC-PVTZ-RI
	 Reference Energy          =    -456.3339810261147136 [Eh]
	 Singles Energy            =      -0.0000000000000000 [Eh]
	 Same-Spin Energy          =      -0.4158226707217000 [Eh]
	 Opposite-Spin Energy      =      -1.3048651642159623 [Eh]
	 Correlation Energy        =      -1.7206878349376624 [Eh]
	 Total Energy              =    -458.0546688610523915 [Eh]
	 SCS Total Energy          =    -458.0384267800811244 [Eh]
                               Psi4 1.9 release
    Molecular point group: c1
  Multiplicity = 1
  Basis Set: AUG-CC-PVTZ
    Blend: AUG-CC-PVTZ
  Basis Set: (AUG-CC-PVTZ AUX)
    Blend: AUG-CC-PVTZ-JKFIT
  @DF-RHF Final Energy:   -99.45114390805448
    Total Energy =                        -99.4511439080544761
  Basis Set: (AUG-CC-PVTZ AUX)
	 Singles Energy            =      -0.0000000000000000 [Eh]
	 Same-Spin Energy          =      -0.0820844784589866 [Eh]
	 Opposite-Spin Energy      =      -0.2303309241220370 [Eh]
	 Correlation Energy        =      -0.3124154025810236 [Eh]
	 Total Energy              =     -99.7635593106355003 [Eh]
	 SCS Total Energy          =     -99.7549025098205817 [Eh]
                               Psi4 1.9 release
    Molecular point group: c1

    Geometry (in Bohr), charge = -1, multiplicity = 1:

       Center              X                  Y                   Z               Mass
    ------------   -----------------  -----------------  -----------------  -----------------
         F            0.000000000000     0.000000000000     0.000000000000    18.998403162730
         O            3.779416346119     3.538253277441    -1.038196636065    15.994914619570
         H            3.462433685835     5.288468481960    -0.725826797253     1.007825032230
         H            2.249752967428     2.583153568290    -1.012972571743     1.007825032230
         O           -1.383557313576    -0.961366040983    -4.985439559386    15.994914619570
         H           -1.057959391885    -0.633131951347    -3.190636266937     1.007825032230
         H           -2.948562350265    -0.094282215851    -5.339319122270     1.007825032230
         O           -2.638193731420     4.005327435239     2.357121536698    15.994914619570
         H           -1.264190873135     5.170780118319     2.101912133729     1.007825032230
         H           -1.864530407027     2.410338114117     1.946419798948     1.007825032230
         O            1.019199219326    -4.855303569757     1.441796783036    15.994914619570
         H            0.665028638619    -3.214745392845     0.718324584535     1.007825032230
         H            0.816412708803    -5.968628157666     0.067011578135     1.007825032230
         O            4.338616542260     0.305120849395     3.481890306023    15.994914619570
         H            2.658676472894     0.124377994125     4.137914399654     1.007825032230
         H            4.180391663502     1.174878636994     1.858934927970     1.007825032230
         O           -4.753878189151    -2.355178898241     0.601308963395    15.994914619570
         H           -4.571852209843    -4.050217879350    -0.182745964962     1.007825032230
         H           -3.151630429981    -1.476794510880     0.607926784286     1.007825032230

  Charge       = -1
  Multiplicity = 1
  Basis Set: AUG-CC-PVTZ
    Blend: AUG-CC-PVTZ
  Basis Set: (AUG-CC-PVTZ AUX)
    Blend: AUG-CC-PVTZ-JKFIT

    Orbital Energies [Eh]
    ---------------------

    Doubly Occupied:

       1A    -26.015953     2A    -20.434965     3A    -20.422043
       4A    -20.412737     5A    -20.409841     6A    -20.399392
       7A    -20.396397     8A     -1.285873     9A     -1.226960
      10A     -1.208303    11A     -1.193218    12A     -1.192395
      13A     -1.183551    14A     -1.178178    15A     -0.611593
      16A     -0.573421    17A     -0.566383    18A     -0.562017
      19A     -0.556433    20A     -0.550601    21A     -0.460050
      22A     -0.449236    23A     -0.441795    24A     -0.436284
      25A     -0.425521    26A     -0.420329    27A     -0.379985
      28A     -0.374255    29A     -0.372373    30A     -0.367345
      31A     -0.363398    32A     -0.360094    33A     -0.352796
      34A     -0.344530    35A     -0.337745

  @DF-RHF Final Energy:  -555.93168457894126

   => Energetics <=

    Nuclear Repulsion Energy =            357.0642659863975723
    One-Electron Energy =               -1493.4599183257130335
    Two-Electron Energy =                 580.4639677603740893
    Total Energy =                       -555.9316845789412582
 Dipole X            :         -2.4738552            2.0667935           -0.4070617
 Dipole Y            :          2.0774233           -1.2709788            0.8064446
 Dipole Z            :        -16.8702883           15.8547946           -1.0154936
 Magnitude           :                                                    1.3591466
  Basis Set: (AUG-CC-PVTZ AUX)
    Blend: AUG-CC-PVTZ-RI
	 Reference Energy          =    -555.9316845789412582 [Eh]
	 Singles Energy            =      -0.0000000000000000 [Eh]
	 Same-Spin Energy          =      -0.5033123254863729 [Eh]
	 Opposite-Spin Energy      =      -1.5336308428108263 [Eh]
	 Correlation Energy        =      -2.0369431682971992 [Eh]
	 Total Energy              =    -557.9686277472384290 [Eh]

	 ================> DF-SCS-MP2 Energies <==================
	-----------------------------------------------------------
	 SCS Same-Spin Scale       =       0.3333333333333333 [-]
	 SCS Opposite-Spin Scale   =       1.2000000000000000 [-]
	 SCS Same-Spin Energy      =      -0.1677707751621243 [Eh]
	 SCS Opposite-Spin Energy  =      -1.8403570113729915 [Eh]
	 SCS Correlation Energy    =      -2.0081277865351157 [Eh]
	 SCS Total Energy          =    -557.9398123654764277 [Eh]
	-----------------------------------------------------------

*** Psi4 exiting successfully. Buy a developer a beer!
