                               Psi4 1.8.2 release

  ==> Input File <==

--------------------------------------------------------------------------
MEMORY 60 GB

molecule dimer {
0 1
Gh(F)      0.000000     0.000000     0.000000
Gh(O)      1.645101     1.699296     1.129951
Gh(H)      1.015254     1.023734     0.938557
Gh(H)      2.452697     1.509168     0.634777
O         -1.553213    -0.631155     2.482268
H         -1.969669    -1.457558     2.128408
H         -0.949585    -0.251440     1.820527
Gh(O)      0.961898    -2.550376     0.595543
Gh(H)      0.820165    -1.603401     0.519010
Gh(H)      1.796966    -2.594357     1.096082
Gh(O)     -1.972263    -1.718144    -1.134114
Gh(H)     -1.269265    -1.234137    -0.606429
Gh(H)     -2.533102    -1.010675    -1.448851
Gh(O)      1.845169    -0.935074    -2.257498
Gh(H)      1.057097    -0.988219    -1.668991
Gh(H)      2.348598    -1.768336    -2.397617
Gh(O)     -0.866070     2.164358    -1.903602
Gh(H)     -1.546584     2.604533    -1.419034
Gh(H)     -0.642881     1.424063    -1.400965

units ang
no_reorient
no_com
symmetry c1
}

set {
basis        aug-cc-pVTZ
scf_type     df
}

energy("mp2")
--------------------------------------------------------------------------

    Molecular point group: c1

    Geometry (in Angstrom), charge = 0, multiplicity = 1:

       Center              X                  Y                   Z               Mass
    ------------   -----------------  -----------------  -----------------  -----------------
      Gh(F)           0.000000000000     0.000000000000     0.000000000000    18.998403162730
      Gh(O)           1.645101000000     1.699296000000     1.129951000000    15.994914619570
      Gh(H)           1.015254000000     1.023734000000     0.938557000000     1.007825032230
      Gh(H)           2.452697000000     1.509168000000     0.634777000000     1.007825032230
         O           -1.553213000000    -0.631155000000     2.482268000000    15.994914619570
         H           -1.969669000000    -1.457558000000     2.128408000000     1.007825032230
         H           -0.949585000000    -0.251440000000     1.820527000000     1.007825032230
      Gh(O)           0.961898000000    -2.550376000000     0.595543000000    15.994914619570
      Gh(H)           0.820165000000    -1.603401000000     0.519010000000     1.007825032230
      Gh(H)           1.796966000000    -2.594357000000     1.096082000000     1.007825032230
      Gh(O)          -1.972263000000    -1.718144000000    -1.134114000000    15.994914619570
      Gh(H)          -1.269265000000    -1.234137000000    -0.606429000000     1.007825032230
      Gh(H)          -2.533102000000    -1.010675000000    -1.448851000000     1.007825032230
      Gh(O)           1.845169000000    -0.935074000000    -2.257498000000    15.994914619570
      Gh(H)           1.057097000000    -0.988219000000    -1.668991000000     1.007825032230
      Gh(H)           2.348598000000    -1.768336000000    -2.397617000000     1.007825032230
      Gh(O)          -0.866070000000     2.164358000000    -1.903602000000    15.994914619570
      Gh(H)          -1.546584000000     2.604533000000    -1.419034000000     1.007825032230
      Gh(H)          -0.642881000000     1.424063000000    -1.400965000000     1.007825032230

  Charge       = 0
  Multiplicity = 1
  Basis Set: AUG-CC-PVTZ
    Blend: AUG-CC-PVTZ
  Basis Set: (AUG-CC-PVTZ AUX)
    Blend: AUG-CC-PVTZ-JKFIT

    Orbital Energies [Eh]
    ---------------------

    Doubly Occupied:

       1A    -20.568712     2A     -1.337537     3A     -0.714416
       4A     -0.569470     5A     -0.506596

  @DF-RHF Final Energy:   -76.05715051255712

   => Energetics <=

    Nuclear Repulsion Energy =              8.9532623980200245
    One-Electron Energy =                -122.6273600887162587
    Two-Electron Energy =                  37.6169471781390996
    Total Energy =                        -76.0571505125571292
 Dipole X            :         29.1243757          -28.9977680            0.1266076
 Dipole Y            :         12.4757591          -12.7712189           -0.2954598
 Dipole Z            :        -45.6661514           44.9888592           -0.6772922
 Magnitude           :                                                    0.7497004
  Basis Set: (AUG-CC-PVTZ AUX)
    Blend: AUG-CC-PVTZ-RI
	 Reference Energy          =     -76.0571505125571150 [Eh]
	 Singles Energy            =      -0.0000000000000000 [Eh]
	 Same-Spin Energy          =      -0.0687534641458085 [Eh]
	 Opposite-Spin Energy      =      -0.2170867643881322 [Eh]
	 Correlation Energy        =      -0.2858402285339408 [Eh]
	 Total Energy              =     -76.3429907410910573 [Eh]

	 ================> DF-SCS-MP2 Energies <==================
	-----------------------------------------------------------
	 SCS Same-Spin Scale       =       0.3333333333333333 [-]
	 SCS Opposite-Spin Scale   =       1.2000000000000000 [-]
	 SCS Same-Spin Energy      =      -0.0229178213819362 [Eh]
	 SCS Opposite-Spin Energy  =      -0.2605041172657586 [Eh]
	 SCS Correlation Energy    =      -0.2834219386476948 [Eh]
	 SCS Total Energy          =     -76.3405724512048067 [Eh]
	-----------------------------------------------------------

*** Psi4 exiting successfully. Buy a developer a beer!
