                               Psi4 1.8.2 release

  ==> Input File <==

--------------------------------------------------------------------------
MEMORY 60 GB

molecule dimer {
0 1
Gh(F)      0.000000     0.000000     0.000000
Gh(O)     -1.006216    -0.656294    -2.699179
Gh(H)     -1.494548     0.181956    -2.928445
Gh(H)     -0.539619    -0.569324    -1.861169
O          1.610323     1.707632    -1.491867
H          1.013163     2.482512    -1.512988
H          1.164599     1.015320    -1.082122
Gh(O)     -1.681240    -2.035223     1.447043
Gh(H)     -1.235665    -1.300377     0.974924
Gh(H)     -2.630026    -1.906729     1.111423
Gh(O)      2.021760    -1.325611     0.977475
Gh(H)      1.199443    -1.017688     0.585508
Gh(H)      2.376563    -1.912348     0.315540

units ang
no_reorient
no_com
symmetry c1
}

set {
basis        aug-cc-pVTZ
scf_type     df
}

energy("mp2")
--------------------------------------------------------------------------

    Molecular point group: c1

    Geometry (in Angstrom), charge = 0, multiplicity = 1:

       Center              X                  Y                   Z               Mass
    ------------   -----------------  -----------------  -----------------  -----------------
      Gh(F)           0.000000000000     0.000000000000     0.000000000000    18.998403162730
      Gh(O)          -1.006216000000    -0.656294000000    -2.699179000000    15.994914619570
      Gh(H)          -1.494548000000     0.181956000000    -2.928445000000     1.007825032230
      Gh(H)          -0.539619000000    -0.569324000000    -1.861169000000     1.007825032230
         O            1.610323000000     1.707632000000    -1.491867000000    15.994914619570
         H            1.013163000000     2.482512000000    -1.512988000000     1.007825032230
         H            1.164599000000     1.015320000000    -1.082122000000     1.007825032230
      Gh(O)          -1.681240000000    -2.035223000000     1.447043000000    15.994914619570
      Gh(H)          -1.235665000000    -1.300377000000     0.974924000000     1.007825032230
      Gh(H)          -2.630026000000    -1.906729000000     1.111423000000     1.007825032230
      Gh(O)           2.021760000000    -1.325611000000     0.977475000000    15.994914619570
      Gh(H)           1.199443000000    -1.017688000000     0.585508000000     1.007825032230
      Gh(H)           2.376563000000    -1.912348000000     0.315540000000     1.007825032230

  Charge       = 0
  Multiplicity = 1
  Basis Set: AUG-CC-PVTZ
    Blend: AUG-CC-PVTZ
  Basis Set: (AUG-CC-PVTZ AUX)
    Blend: AUG-CC-PVTZ-JKFIT

    Orbital Energies [Eh]
    ---------------------

    Doubly Occupied:

       1A    -20.563921     2A     -1.356105     3A     -0.729345
       4A     -0.579262     5A     -0.510056

  @DF-RHF Final Energy:   -76.05918423824281

   => Energetics <=

    Nuclear Repulsion Energy =              9.2737778813884404
    One-Electron Energy =                -123.1885424948189041
    Two-Electron Energy =                  37.8555803751876567
    Total Energy =                        -76.0591842382428069
 Dipole X            :        -29.1643759           28.4599293           -0.7044467
 Dipole Y            :        -32.3788345           32.4255989            0.0467644
 Dipole Z            :         27.7233873          -27.4578075            0.2655797
 Magnitude           :                                                    0.7542974
  Basis Set: (AUG-CC-PVTZ AUX)
    Blend: AUG-CC-PVTZ-RI
	 Reference Energy          =     -76.0591842382428069 [Eh]
	 Singles Energy            =      -0.0000000000000000 [Eh]
	 Same-Spin Energy          =      -0.0681944574029080 [Eh]
	 Opposite-Spin Energy      =      -0.2154867334831025 [Eh]
	 Correlation Energy        =      -0.2836811908860105 [Eh]
	 Total Energy              =     -76.3428654291288211 [Eh]

	 ================> DF-SCS-MP2 Energies <==================
	-----------------------------------------------------------
	 SCS Same-Spin Scale       =       0.3333333333333333 [-]
	 SCS Opposite-Spin Scale   =       1.2000000000000000 [-]
	 SCS Same-Spin Energy      =      -0.0227314858009693 [Eh]
	 SCS Opposite-Spin Energy  =      -0.2585840801797230 [Eh]
	 SCS Correlation Energy    =      -0.2813155659806924 [Eh]
	 SCS Total Energy          =     -76.3404998042234979 [Eh]
	-----------------------------------------------------------

*** Psi4 exiting successfully. Buy a developer a beer!
