                               Psi4 1.9 release

  ==> Input File <==

--------------------------------------------------------------------------
MEMORY 60 GB

molecule dimer {
-1 1
F      0.000000     0.000000     0.000000
--
0 1
O     -2.413496     0.942059     1.683179
H     -2.369850     1.675598     2.308522
H     -1.516197     0.609131     1.412280
O      1.644372    -2.458712     0.050667
H      1.033770    -1.732996     0.175981
H      1.480271    -2.944848     0.845458
O      0.820687     0.822159     2.619673
H      0.614436     0.700992     1.654114
H      0.656262     1.757957     2.775129
O     -2.196713    -1.512783    -0.142220
H     -2.784492    -0.795457    -0.455902
H     -1.397291    -0.991488    -0.086194
O     -0.307997     2.194705    -1.635644
H     -0.307018     1.433362    -1.078243
H     -1.239503     2.400415    -1.651584

units ang
no_reorient
no_com
symmetry c1
}

set {
basis        aug-cc-pVTZ
scf_type     df
}

energy("mp2", bsse_type="cp")
--------------------------------------------------------------------------

                               Psi4 1.9 release
    Molecular point group: c1
  Charge       = 0
  Multiplicity = 1
  Basis Set: AUG-CC-PVTZ
    Blend: AUG-CC-PVTZ
  Basis Set: (AUG-CC-PVTZ AUX)
    Blend: AUG-CC-PVTZ-JKFIT
  @DF-RHF Final Energy:  -380.27683787835775
    Total Energy =                       -380.2768378783577532
 Dipole X            :         47.4490465          -48.1025779           -0.6535314
 Dipole Y            :         -2.4278628            3.8022990            1.3744362
 Dipole Z            :        -49.4647200           50.0868149            0.6220949
 Magnitude           :                                                    1.6441351
  Basis Set: (AUG-CC-PVTZ AUX)
    Blend: AUG-CC-PVTZ-RI
	 Reference Energy          =    -380.2768378783577532 [Eh]
	 Singles Energy            =      -0.0000000000000000 [Eh]
	 Same-Spin Energy          =      -0.3453895936728121 [Eh]
	 Opposite-Spin Energy      =      -1.0860260255478127 [Eh]
	 Correlation Energy        =      -1.4314156192206249 [Eh]
	 Total Energy              =    -381.7082534975783688 [Eh]
	 SCS Total Energy          =    -381.6951989735727580 [Eh]
                               Psi4 1.9 release
    Molecular point group: c1
  Multiplicity = 1
  Basis Set: AUG-CC-PVTZ
    Blend: AUG-CC-PVTZ
  Basis Set: (AUG-CC-PVTZ AUX)
    Blend: AUG-CC-PVTZ-JKFIT
  @DF-RHF Final Energy:   -99.45110629163995
    Total Energy =                        -99.4511062916399453
  Basis Set: (AUG-CC-PVTZ AUX)
	 Singles Energy            =      -0.0000000000000000 [Eh]
	 Same-Spin Energy          =      -0.0820366636063155 [Eh]
	 Opposite-Spin Energy      =      -0.2299784036417421 [Eh]
	 Correlation Energy        =      -0.3120150672480576 [Eh]
	 Total Energy              =     -99.7631213588880001 [Eh]
	 SCS Total Energy          =     -99.7544259305454801 [Eh]
                               Psi4 1.9 release
    Molecular point group: c1

    Geometry (in Bohr), charge = -1, multiplicity = 1:

       Center              X                  Y                   Z               Mass
    ------------   -----------------  -----------------  -----------------  -----------------
         F            0.000000000000     0.000000000000     0.000000000000    18.998403162730
         O           -4.560846444888     1.780233504023     3.180747330122    15.994914619570
         H           -4.478367458416     3.166421316365     4.362474334594     1.007825032230
         H           -2.865197082241     1.151090764526     2.668822412462     1.007825032230
         O            3.107412728371    -4.646292301377     0.095746753599    15.994914619570
         H            1.953542176715    -3.274887816514     0.332555893284     1.007825032230
         H            2.797306781458    -5.564956201102     1.597684070577     1.007825032230
         O            1.550873664724     1.553655341580     4.950464508256    15.994914619570
         H            1.161115761622     1.324682896137     3.125822440286     1.007825032230
         H            1.240155446545     3.322057270331     5.244233772816     1.007825032230
         O           -4.151185946233    -2.858745557248    -0.268756849563    15.994914619570
         H           -5.261927278528    -1.503195874578    -0.861529920048     1.007825032230
         H           -2.640497307567    -1.873640776678    -0.162883053658     1.007825032230
         O           -0.582029977463     4.147391376173    -3.090919198748    15.994914619570
         H           -0.580179935586     2.708661618638    -2.037583966692     1.007825032230
         H           -2.342321201683     4.536126937441    -3.121041433188     1.007825032230

  Charge       = -1
  Multiplicity = 1
  Basis Set: AUG-CC-PVTZ
    Blend: AUG-CC-PVTZ
  Basis Set: (AUG-CC-PVTZ AUX)
    Blend: AUG-CC-PVTZ-JKFIT

    Orbital Energies [Eh]
    ---------------------

    Doubly Occupied:

       1A    -25.990558     2A    -20.425882     3A    -20.420264
       4A    -20.404316     5A    -20.402562     6A    -20.385692
       7A     -1.256560     8A     -1.199743     9A     -1.199093
      10A     -1.197822    11A     -1.195868    12A     -1.172747
      13A     -0.584258    14A     -0.560811    15A     -0.557381
      16A     -0.550234    17A     -0.524636    18A     -0.445308
      19A     -0.442702    20A     -0.437520    21A     -0.429786
      22A     -0.427258    23A     -0.369916    24A     -0.362389
      25A     -0.355834    26A     -0.352449    27A     -0.347300
      28A     -0.345912    29A     -0.339726    30A     -0.329639

  @DF-RHF Final Energy:  -479.85588784470400

   => Energetics <=

    Nuclear Repulsion Energy =            261.1720261030446295
    One-Electron Energy =               -1196.0274936098312537
    Two-Electron Energy =                 454.9995796620826809
    Total Energy =                       -479.8558878447040001
 Dipole X            :         47.9064787          -48.1025779           -0.1960992
 Dipole Y            :         -2.5081249            3.8022990            1.2941741
 Dipole Z            :        -49.7945312           50.0868149            0.2922837
 Magnitude           :                                                    1.3411828
  Basis Set: (AUG-CC-PVTZ AUX)
    Blend: AUG-CC-PVTZ-RI
	 Reference Energy          =    -479.8558878447040001 [Eh]
	 Singles Energy            =      -0.0000000000000000 [Eh]
	 Same-Spin Energy          =      -0.4323545907544462 [Eh]
	 Opposite-Spin Energy      =      -1.3151016412320951 [Eh]
	 Correlation Energy        =      -1.7474562319865412 [Eh]
	 Total Energy              =    -481.6033440766905187 [Eh]

	 ================> DF-SCS-MP2 Energies <==================
	-----------------------------------------------------------
	 SCS Same-Spin Scale       =       0.3333333333333333 [-]
	 SCS Opposite-Spin Scale   =       1.2000000000000000 [-]
	 SCS Same-Spin Energy      =      -0.1441181969181487 [Eh]
	 SCS Opposite-Spin Energy  =      -1.5781219694785140 [Eh]
	 SCS Correlation Energy    =      -1.7222401663966627 [Eh]
	 SCS Total Energy          =    -481.5781280111006595 [Eh]
	-----------------------------------------------------------

*** Psi4 exiting successfully. Buy a developer a beer!
