                               Psi4 1.8.2 release

  ==> Input File <==

--------------------------------------------------------------------------
MEMORY 60 GB

molecule dimer {
0 1
Gh(F)      0.000000     0.000000     0.000000
Gh(O)     -0.080310    -1.847083     2.022993
Gh(H)      0.457360    -2.626850     1.740577
Gh(H)      0.018614    -1.169433     1.294985
Gh(O)      2.837448     0.327763    -0.543030
Gh(H)      1.880268     0.381752    -0.427617
Gh(H)      3.126366     1.066889    -0.006077
Gh(O)     -2.870208     0.106987    -0.242889
Gh(H)     -1.947930     0.074098    -0.240484
Gh(H)     -3.032889     0.359006     0.686018
Gh(O)     -0.565191    -2.497966    -1.410818
Gh(H)     -0.439203    -1.753445    -0.804045
Gh(H)     -1.324202    -3.032814    -1.079231
O          0.554201     1.968228     1.715688
H         -0.376763     2.281724     1.957626
H          0.367929     1.318127     1.000096

units ang
no_reorient
no_com
symmetry c1
}

set {
basis        aug-cc-pVTZ
scf_type     df
}

energy("mp2")
--------------------------------------------------------------------------

    Molecular point group: c1

    Geometry (in Angstrom), charge = 0, multiplicity = 1:

       Center              X                  Y                   Z               Mass
    ------------   -----------------  -----------------  -----------------  -----------------
      Gh(F)           0.000000000000     0.000000000000     0.000000000000    18.998403162730
      Gh(O)          -0.080310000000    -1.847083000000     2.022993000000    15.994914619570
      Gh(H)           0.457360000000    -2.626850000000     1.740577000000     1.007825032230
      Gh(H)           0.018614000000    -1.169433000000     1.294985000000     1.007825032230
      Gh(O)           2.837448000000     0.327763000000    -0.543030000000    15.994914619570
      Gh(H)           1.880268000000     0.381752000000    -0.427617000000     1.007825032230
      Gh(H)           3.126366000000     1.066889000000    -0.006077000000     1.007825032230
      Gh(O)          -2.870208000000     0.106987000000    -0.242889000000    15.994914619570
      Gh(H)          -1.947930000000     0.074098000000    -0.240484000000     1.007825032230
      Gh(H)          -3.032889000000     0.359006000000     0.686018000000     1.007825032230
      Gh(O)          -0.565191000000    -2.497966000000    -1.410818000000    15.994914619570
      Gh(H)          -0.439203000000    -1.753445000000    -0.804045000000     1.007825032230
      Gh(H)          -1.324202000000    -3.032814000000    -1.079231000000     1.007825032230
         O            0.554201000000     1.968228000000     1.715688000000    15.994914619570
         H           -0.376763000000     2.281724000000     1.957626000000     1.007825032230
         H            0.367929000000     1.318127000000     1.000096000000     1.007825032230

  Charge       = 0
  Multiplicity = 1
  Basis Set: AUG-CC-PVTZ
    Blend: AUG-CC-PVTZ
  Basis Set: (AUG-CC-PVTZ AUX)
    Blend: AUG-CC-PVTZ-JKFIT

    Orbital Energies [Eh]
    ---------------------

    Doubly Occupied:

       1A    -20.575338     2A     -1.335394     3A     -0.691068
       4A     -0.582158     5A     -0.508001

  @DF-RHF Final Energy:   -76.05457299523424

   => Energetics <=

    Nuclear Repulsion Energy =              8.8258185747657354
    One-Electron Energy =                -122.3768606839547743
    Two-Electron Energy =                  37.4964691139548023
    Total Energy =                        -76.0545729952342384
 Dipole X            :         -9.0782869            8.3616110           -0.7166759
 Dipole Y            :        -36.7780228           36.5580275           -0.2199954
 Dipole Z            :        -31.8352840           31.5267280           -0.3085560
 Magnitude           :                                                    0.8106967
  Basis Set: (AUG-CC-PVTZ AUX)
    Blend: AUG-CC-PVTZ-RI
	 Reference Energy          =     -76.0545729952342384 [Eh]
	 Singles Energy            =      -0.0000000000000000 [Eh]
	 Same-Spin Energy          =      -0.0691959892369547 [Eh]
	 Opposite-Spin Energy      =      -0.2185755588602241 [Eh]
	 Correlation Energy        =      -0.2877715480971789 [Eh]
	 Total Energy              =     -76.3423445433314214 [Eh]

	 ================> DF-SCS-MP2 Energies <==================
	-----------------------------------------------------------
	 SCS Same-Spin Scale       =       0.3333333333333333 [-]
	 SCS Opposite-Spin Scale   =       1.2000000000000000 [-]
	 SCS Same-Spin Energy      =      -0.0230653297456516 [Eh]
	 SCS Opposite-Spin Energy  =      -0.2622906706322690 [Eh]
	 SCS Correlation Energy    =      -0.2853560003779205 [Eh]
	 SCS Total Energy          =     -76.3399289956121549 [Eh]
	-----------------------------------------------------------

*** Psi4 exiting successfully. Buy a developer a beer!
