                               Psi4 1.8.2 release

  ==> Input File <==

--------------------------------------------------------------------------
MEMORY 60 GB

molecule dimer {
-1 1
F          0.000000     0.000000     0.000000
O          0.939133     2.246448    -1.810299
H          0.182154     2.339815    -2.431459
H          0.631445     1.529279    -1.221823
O          0.333738     1.798982     2.158341
H          0.266377     1.191470     1.384322
H         -0.480834     1.721529     2.716331
O         -2.404593     1.393581     0.312901
H         -2.408128     1.153754     1.258151
H         -1.572145     1.037122    -0.045040
O          1.919438    -1.311444    -1.308668
H          1.124707    -0.870402    -0.913735
H          2.164585    -2.064254    -0.748678
O          1.220508    -1.402945     2.234795
H          0.781895    -2.282298     2.115950
H          0.768841    -0.858246     1.533477
O         -1.412038    -2.154855    -1.604480
H         -2.091893    -1.650807    -2.061775
H         -1.081371    -1.383401    -1.077126

units ang
no_reorient
no_com
symmetry c1
}

set {
basis        aug-cc-pVTZ
scf_type     df
}

energy("mp2")
--------------------------------------------------------------------------

    Molecular point group: c1

    Geometry (in Angstrom), charge = -1, multiplicity = 1:

       Center              X                  Y                   Z               Mass
    ------------   -----------------  -----------------  -----------------  -----------------
         F            0.000000000000     0.000000000000     0.000000000000    18.998403162730
         O            0.939133000000     2.246448000000    -1.810299000000    15.994914619570
         H            0.182154000000     2.339815000000    -2.431459000000     1.007825032230
         H            0.631445000000     1.529279000000    -1.221823000000     1.007825032230
         O            0.333738000000     1.798982000000     2.158341000000    15.994914619570
         H            0.266377000000     1.191470000000     1.384322000000     1.007825032230
         H           -0.480834000000     1.721529000000     2.716331000000     1.007825032230
         O           -2.404593000000     1.393581000000     0.312901000000    15.994914619570
         H           -2.408128000000     1.153754000000     1.258151000000     1.007825032230
         H           -1.572145000000     1.037122000000    -0.045040000000     1.007825032230
         O            1.919438000000    -1.311444000000    -1.308668000000    15.994914619570
         H            1.124707000000    -0.870402000000    -0.913735000000     1.007825032230
         H            2.164585000000    -2.064254000000    -0.748678000000     1.007825032230
         O            1.220508000000    -1.402945000000     2.234795000000    15.994914619570
         H            0.781895000000    -2.282298000000     2.115950000000     1.007825032230
         H            0.768841000000    -0.858246000000     1.533477000000     1.007825032230
         O           -1.412038000000    -2.154855000000    -1.604480000000    15.994914619570
         H           -2.091893000000    -1.650807000000    -2.061775000000     1.007825032230
         H           -1.081371000000    -1.383401000000    -1.077126000000     1.007825032230

  Charge       = -1
  Multiplicity = 1
  Basis Set: AUG-CC-PVTZ
    Blend: AUG-CC-PVTZ
  Basis Set: (AUG-CC-PVTZ AUX)
    Blend: AUG-CC-PVTZ-JKFIT

    Orbital Energies [Eh]
    ---------------------

    Doubly Occupied:

       1A    -26.030931     2A    -20.435114     3A    -20.426678
       4A    -20.424449     5A    -20.422592     6A    -20.414238
       7A    -20.389777     8A     -1.299680     9A     -1.214577
      10A     -1.205272    11A     -1.196069    12A     -1.191494
      13A     -1.183072    14A     -1.166039    15A     -0.578297
      16A     -0.568064    17A     -0.556945    18A     -0.554988
      19A     -0.548297    20A     -0.543631    21A     -0.469429
      22A     -0.458922    23A     -0.448929    24A     -0.441258
      25A     -0.426377    26A     -0.415792    27A     -0.388015
      28A     -0.382608    29A     -0.375655    30A     -0.371730
      31A     -0.366938    32A     -0.363624    33A     -0.360687
      34A     -0.350792    35A     -0.332734

  @DF-RHF Final Energy:  -555.91878214705866

   => Energetics <=

    Nuclear Repulsion Energy =            349.4859488749727348
    One-Electron Energy =               -1478.2020698545877622
    Two-Electron Energy =                 572.7973388325563064
    Total Energy =                       -555.9187821470586641
 Dipole X            :         -7.6229068            5.7733420           -1.8495648
 Dipole Y            :         -9.1376851            8.3557963           -0.7818888
 Dipole Z            :         -0.3819613            0.6979042            0.3159429
 Magnitude           :                                                    2.0327469
  Basis Set: (AUG-CC-PVTZ AUX)
    Blend: AUG-CC-PVTZ-RI
	 Reference Energy          =    -555.9187821470586641 [Eh]
	 Singles Energy            =      -0.0000000000000000 [Eh]
	 Same-Spin Energy          =      -0.5045668395246284 [Eh]
	 Opposite-Spin Energy      =      -1.5389780860423863 [Eh]
	 Correlation Energy        =      -2.0435449255670148 [Eh]
	 Total Energy              =    -557.9623270726257260 [Eh]

	 ================> DF-SCS-MP2 Energies <==================
	-----------------------------------------------------------
	 SCS Same-Spin Scale       =       0.3333333333333333 [-]
	 SCS Opposite-Spin Scale   =       1.2000000000000000 [-]
	 SCS Same-Spin Energy      =      -0.1681889465082095 [Eh]
	 SCS Opposite-Spin Energy  =      -1.8467737032508635 [Eh]
	 SCS Correlation Energy    =      -2.0149626497590729 [Eh]
	 SCS Total Energy          =    -557.9337447968177912 [Eh]
	-----------------------------------------------------------

*** Psi4 exiting successfully. Buy a developer a beer!
