                               Psi4 1.8.2 release

  ==> Input File <==

--------------------------------------------------------------------------
MEMORY 60 GB

molecule dimer {
-1 1
F          0.000000     0.000000     0.000000
O          1.815615    -0.941221    -2.028679
H          1.196320    -0.603635    -1.341781
H          1.329942    -1.625481    -2.584256
O         -0.164743    -2.684351     0.868609
H         -0.119543    -1.813088     0.511185
H         -0.233705    -2.576983     1.812943
O          2.572567     0.988403     0.505127
H          2.611520     0.617316     1.382224
H          1.660090     0.661148     0.292697
O         -1.733909     0.639512     2.242591
H         -1.151471     0.428192     1.444013
H         -1.823257     1.594147     2.421441
O         -2.609308    -1.257365    -0.345859
H         -1.768286    -0.883322    -0.559987
H         -2.703850    -1.219159     0.584343
O         -1.727752     1.500209    -1.627650
H         -1.125877     0.925771    -1.141094
H         -2.322672     0.851685    -2.088837

units ang
no_reorient
no_com
symmetry c1
}

set {
basis        aug-cc-pVTZ
scf_type     df
}

energy("mp2")
--------------------------------------------------------------------------

    Molecular point group: c1

    Geometry (in Angstrom), charge = -1, multiplicity = 1:

       Center              X                  Y                   Z               Mass
    ------------   -----------------  -----------------  -----------------  -----------------
         F            0.000000000000     0.000000000000     0.000000000000    18.998403162730
         O            1.815615000000    -0.941221000000    -2.028679000000    15.994914619570
         H            1.196320000000    -0.603635000000    -1.341781000000     1.007825032230
         H            1.329942000000    -1.625481000000    -2.584256000000     1.007825032230
         O           -0.164743000000    -2.684351000000     0.868609000000    15.994914619570
         H           -0.119543000000    -1.813088000000     0.511185000000     1.007825032230
         H           -0.233705000000    -2.576983000000     1.812943000000     1.007825032230
         O            2.572567000000     0.988403000000     0.505127000000    15.994914619570
         H            2.611520000000     0.617316000000     1.382224000000     1.007825032230
         H            1.660090000000     0.661148000000     0.292697000000     1.007825032230
         O           -1.733909000000     0.639512000000     2.242591000000    15.994914619570
         H           -1.151471000000     0.428192000000     1.444013000000     1.007825032230
         H           -1.823257000000     1.594147000000     2.421441000000     1.007825032230
         O           -2.609308000000    -1.257365000000    -0.345859000000    15.994914619570
         H           -1.768286000000    -0.883322000000    -0.559987000000     1.007825032230
         H           -2.703850000000    -1.219159000000     0.584343000000     1.007825032230
         O           -1.727752000000     1.500209000000    -1.627650000000    15.994914619570
         H           -1.125877000000     0.925771000000    -1.141094000000     1.007825032230
         H           -2.322672000000     0.851685000000    -2.088837000000     1.007825032230

  Charge       = -1
  Multiplicity = 1
  Basis Set: AUG-CC-PVTZ
    Blend: AUG-CC-PVTZ
  Basis Set: (AUG-CC-PVTZ AUX)
    Blend: AUG-CC-PVTZ-JKFIT

    Orbital Energies [Eh]
    ---------------------

    Doubly Occupied:

       1A    -26.028526     2A    -20.428711     3A    -20.413247
       4A    -20.413228     5A    -20.412458     6A    -20.411520
       7A    -20.406456     8A     -1.296824     9A     -1.214944
      10A     -1.208081    11A     -1.194603    12A     -1.190587
      13A     -1.189497    14A     -1.176711    15A     -0.592412
      16A     -0.583637    17A     -0.580292    18A     -0.556657
      19A     -0.553522    20A     -0.533037    21A     -0.455889
      22A     -0.447620    23A     -0.440731    24A     -0.438050
      25A     -0.434012    26A     -0.421445    27A     -0.382045
      28A     -0.379475    29A     -0.377870    30A     -0.375600
      31A     -0.367313    32A     -0.356848    33A     -0.352297
      34A     -0.348544    35A     -0.347439

  @DF-RHF Final Energy:  -555.92391055602229

   => Energetics <=

    Nuclear Repulsion Energy =            356.0152869844255292
    One-Electron Energy =               -1491.2581259825087727
    Two-Electron Energy =                 579.3189284420609511
    Total Energy =                       -555.9239105560222924
 Dipole X            :         36.0014379          -36.3413779           -0.3399400
 Dipole Y            :         33.5287397          -33.4139729            0.1147668
 Dipole Z            :          5.4689249           -4.4484096            1.0205153
 Magnitude           :                                                    1.0817495
  Basis Set: (AUG-CC-PVTZ AUX)
    Blend: AUG-CC-PVTZ-RI
	 Reference Energy          =    -555.9239105560222924 [Eh]
	 Singles Energy            =      -0.0000000000000000 [Eh]
	 Same-Spin Energy          =      -0.5037360780690157 [Eh]
	 Opposite-Spin Energy      =      -1.5359400166091628 [Eh]
	 Correlation Energy        =      -2.0396760946781782 [Eh]
	 Total Energy              =    -557.9635866507004494 [Eh]

	 ================> DF-SCS-MP2 Energies <==================
	-----------------------------------------------------------
	 SCS Same-Spin Scale       =       0.3333333333333333 [-]
	 SCS Opposite-Spin Scale   =       1.2000000000000000 [-]
	 SCS Same-Spin Energy      =      -0.1679120260230052 [Eh]
	 SCS Opposite-Spin Energy  =      -1.8431280199309952 [Eh]
	 SCS Correlation Energy    =      -2.0110400459540005 [Eh]
	 SCS Total Energy          =    -557.9349506019763112 [Eh]
	-----------------------------------------------------------

*** Psi4 exiting successfully. Buy a developer a beer!
