                               Psi4 1.9 release

  ==> Input File <==

--------------------------------------------------------------------------
MEMORY 60 GB

molecule dimer {
-1 1
F      0.000000     0.000000     0.000000
--
0 1
O      1.083487     1.163503    -2.426510
H      0.943812     0.577349    -3.200577
H      0.539524     0.760717    -1.711888
O     -0.494244    -2.731057     0.347994
H     -0.429507    -1.802030     0.254898
H      0.255994    -3.099428    -0.002083
O     -1.560254     2.216611     0.530057
H     -1.025108     3.040199     0.409244
H     -0.961843     1.486509     0.454221
O      1.214809     0.712872     2.482325
H      0.834328     0.841337     1.604326
H      1.778510    -0.049437     2.410774
O      2.620893    -1.324543     0.095877
H      1.695148    -0.897003     0.074745
H      2.528597    -2.249405    -0.321033
O     -2.624165    -0.409702    -1.323028
H     -3.303734    -0.066172    -0.725785
H     -1.750133    -0.322732    -0.885164

units ang
no_reorient
no_com
symmetry c1
}

set {
basis        aug-cc-pVTZ
scf_type     df
}

energy("mp2", bsse_type="cp")
--------------------------------------------------------------------------

                               Psi4 1.9 release
    Molecular point group: c1
  Charge       = 0
  Multiplicity = 1
  Basis Set: AUG-CC-PVTZ
    Blend: AUG-CC-PVTZ
  Basis Set: (AUG-CC-PVTZ AUX)
    Blend: AUG-CC-PVTZ-JKFIT
  @DF-RHF Final Energy:  -456.32116527900712
    Total Energy =                       -456.3211652790071184
 Dipole X            :         -5.2729579            5.7254847            0.4525268
 Dipole Y            :          8.3580731           -8.9924961           -0.6344230
 Dipole Z            :          6.8308740           -7.5298065           -0.6989325
 Magnitude           :                                                    1.0467950
  Basis Set: (AUG-CC-PVTZ AUX)
    Blend: AUG-CC-PVTZ-RI
	 Reference Energy          =    -456.3211652790071184 [Eh]
	 Singles Energy            =      -0.0000000000000000 [Eh]
	 Same-Spin Energy          =      -0.4150343837767642 [Eh]
	 Opposite-Spin Energy      =      -1.3052091231386811 [Eh]
	 Correlation Energy        =      -1.7202435069154451 [Eh]
	 Total Energy              =    -458.0414087859225560 [Eh]
	 SCS Total Energy          =    -458.0257610213657813 [Eh]
                               Psi4 1.9 release
    Molecular point group: c1
  Multiplicity = 1
  Basis Set: AUG-CC-PVTZ
    Blend: AUG-CC-PVTZ
  Basis Set: (AUG-CC-PVTZ AUX)
    Blend: AUG-CC-PVTZ-JKFIT
  @DF-RHF Final Energy:   -99.45114802952472
    Total Energy =                        -99.4511480295247168
  Basis Set: (AUG-CC-PVTZ AUX)
	 Singles Energy            =      -0.0000000000000000 [Eh]
	 Same-Spin Energy          =      -0.0820761529814689 [Eh]
	 Opposite-Spin Energy      =      -0.2302054198180783 [Eh]
	 Correlation Energy        =      -0.3122815727995472 [Eh]
	 Total Energy              =     -99.7634296023242655 [Eh]
	 SCS Total Energy          =     -99.7547532509668997 [Eh]
                               Psi4 1.9 release
    Molecular point group: c1

    Geometry (in Bohr), charge = -1, multiplicity = 1:

       Center              X                  Y                   Z               Mass
    ------------   -----------------  -----------------  -----------------  -----------------
         F            0.000000000000     0.000000000000     0.000000000000    18.998403162730
         O            2.047493690494     2.198702016149    -4.585439340685    15.994914619570
         H            1.783546193921     1.091031488807    -6.048213973439     1.007825032230
         H            1.019552598112     1.437546788980    -3.234999477458     1.007825032230
         O           -0.933985799151    -5.160949763014     0.657613353303    15.994914619570
         H           -0.811650598967    -3.405343169859     0.481687409927     1.007825032230
         H            0.483758549760    -5.857070065576    -0.003936299519     1.007825032230
         O           -2.948452746150     4.188787716677     1.001662560882    15.994914619570
         H           -1.937173369016     5.745143476891     0.773359078487     1.007825032230
         H           -1.817619845689     2.809094893028     0.858353290432     1.007825032230
         O            2.295656304741     1.347132842507     4.690914404377    15.994914619570
         H            1.576651418801     1.589896509214     3.031736755951     1.007825032230
         H            3.360896811388    -0.093422390464     4.555702610374     1.007825032230
         O            4.952769974130    -2.503023511392     0.181181271731    15.994914619570
         H            3.203365462118    -1.695090003714     0.141247579247     1.007825032230
         H            4.778355811654    -4.250759395235    -0.606664447234     1.007825032230
         O           -4.958953158012    -0.774224573052    -2.500160576312    15.994914619570
         H           -6.243152451363    -0.125046957174    -1.371534875965     1.007825032230
         H           -3.307272053126    -0.609875091921    -1.672717536115     1.007825032230

  Charge       = -1
  Multiplicity = 1
  Basis Set: AUG-CC-PVTZ
    Blend: AUG-CC-PVTZ
  Basis Set: (AUG-CC-PVTZ AUX)
    Blend: AUG-CC-PVTZ-JKFIT

    Orbital Energies [Eh]
    ---------------------

    Doubly Occupied:

       1A    -26.019642     2A    -20.437759     3A    -20.420598
       4A    -20.411981     5A    -20.410611     6A    -20.408290
       7A    -20.406580     8A     -1.286695     9A     -1.223547
      10A     -1.195478    11A     -1.194313    12A     -1.192783
      13A     -1.187776    14A     -1.187335    15A     -0.601951
      16A     -0.572986    17A     -0.567172    18A     -0.560934
      19A     -0.559522    20A     -0.556072    21A     -0.457263
      22A     -0.442031    23A     -0.437983    24A     -0.433417
      25A     -0.431274    26A     -0.424750    27A     -0.380225
      28A     -0.373186    29A     -0.372566    30A     -0.369909
      31A     -0.364829    32A     -0.359872    33A     -0.356782
      34A     -0.352053    35A     -0.350340

  @DF-RHF Final Energy:  -555.92398446778952

   => Energetics <=

    Nuclear Repulsion Energy =            350.2665868657343253
    One-Electron Energy =               -1479.7641238718413206
    Two-Electron Energy =                 573.5735525383174718
    Total Energy =                       -555.9239844677895235
 Dipole X            :         -5.3435474            5.7254847            0.3819373
 Dipole Y            :          8.4440113           -8.9924961           -0.5484848
 Dipole Z            :          6.9151046           -7.5298065           -0.6147019
 Magnitude           :                                                    0.9080584
  Basis Set: (AUG-CC-PVTZ AUX)
    Blend: AUG-CC-PVTZ-RI
	 Reference Energy          =    -555.9239844677895235 [Eh]
	 Singles Energy            =      -0.0000000000000000 [Eh]
	 Same-Spin Energy          =      -0.5024489653332169 [Eh]
	 Opposite-Spin Energy      =      -1.5337948364787561 [Eh]
	 Correlation Energy        =      -2.0362438018119731 [Eh]
	 Total Energy              =    -557.9602282696015436 [Eh]

	 ================> DF-SCS-MP2 Energies <==================
	-----------------------------------------------------------
	 SCS Same-Spin Scale       =       0.3333333333333333 [-]
	 SCS Opposite-Spin Scale   =       1.2000000000000000 [-]
	 SCS Same-Spin Energy      =      -0.1674829884444056 [Eh]
	 SCS Opposite-Spin Energy  =      -1.8405538037745073 [Eh]
	 SCS Correlation Energy    =      -2.0080367922189128 [Eh]
	 SCS Total Energy          =    -557.9320212600084687 [Eh]
	-----------------------------------------------------------

*** Psi4 exiting successfully. Buy a developer a beer!
