                               Psi4 1.8.2 release

  ==> Input File <==

--------------------------------------------------------------------------
MEMORY 60 GB

molecule dimer {
0 1
Gh(F)      0.000000     0.000000     0.000000
Gh(O)      1.999981     1.872363    -0.549390
Gh(H)      1.832241     2.798537    -0.384091
Gh(H)      1.190518     1.366946    -0.536042
Gh(O)     -0.732147    -0.508733    -2.638181
Gh(H)     -0.559848    -0.335039    -1.688412
Gh(H)     -1.560312    -0.049892    -2.825446
O         -1.396072     2.119528     1.247335
H         -0.668981     2.736259     1.112284
H         -0.986667     1.275496     1.030001
Gh(O)      0.539337    -2.569316     0.762966
Gh(H)      0.351918    -1.701170     0.380121
Gh(H)      0.432027    -3.158462     0.035461
Gh(O)      2.295897     0.161463     1.842537
Gh(H)      1.406911     0.065818     2.189690
Gh(H)      2.212168     0.621719     0.983706
Gh(O)     -2.515644    -1.246307     0.318199
Gh(H)     -2.419320    -2.143283    -0.096705
Gh(H)     -1.667771    -0.781486     0.321701

units ang
no_reorient
no_com
symmetry c1
}

set {
basis        aug-cc-pVTZ
scf_type     df
}

energy("mp2")
--------------------------------------------------------------------------

    Molecular point group: c1

    Geometry (in Angstrom), charge = 0, multiplicity = 1:

       Center              X                  Y                   Z               Mass
    ------------   -----------------  -----------------  -----------------  -----------------
      Gh(F)           0.000000000000     0.000000000000     0.000000000000    18.998403162730
      Gh(O)           1.999981000000     1.872363000000    -0.549390000000    15.994914619570
      Gh(H)           1.832241000000     2.798537000000    -0.384091000000     1.007825032230
      Gh(H)           1.190518000000     1.366946000000    -0.536042000000     1.007825032230
      Gh(O)          -0.732147000000    -0.508733000000    -2.638181000000    15.994914619570
      Gh(H)          -0.559848000000    -0.335039000000    -1.688412000000     1.007825032230
      Gh(H)          -1.560312000000    -0.049892000000    -2.825446000000     1.007825032230
         O           -1.396072000000     2.119528000000     1.247335000000    15.994914619570
         H           -0.668981000000     2.736259000000     1.112284000000     1.007825032230
         H           -0.986667000000     1.275496000000     1.030001000000     1.007825032230
      Gh(O)           0.539337000000    -2.569316000000     0.762966000000    15.994914619570
      Gh(H)           0.351918000000    -1.701170000000     0.380121000000     1.007825032230
      Gh(H)           0.432027000000    -3.158462000000     0.035461000000     1.007825032230
      Gh(O)           2.295897000000     0.161463000000     1.842537000000    15.994914619570
      Gh(H)           1.406911000000     0.065818000000     2.189690000000     1.007825032230
      Gh(H)           2.212168000000     0.621719000000     0.983706000000     1.007825032230
      Gh(O)          -2.515644000000    -1.246307000000     0.318199000000    15.994914619570
      Gh(H)          -2.419320000000    -2.143283000000    -0.096705000000     1.007825032230
      Gh(H)          -1.667771000000    -0.781486000000     0.321701000000     1.007825032230

  Charge       = 0
  Multiplicity = 1
  Basis Set: AUG-CC-PVTZ
    Blend: AUG-CC-PVTZ
  Basis Set: (AUG-CC-PVTZ AUX)
    Blend: AUG-CC-PVTZ-JKFIT

    Orbital Energies [Eh]
    ---------------------

    Doubly Occupied:

       1A    -20.569145     2A     -1.352354     3A     -0.709801
       4A     -0.588607     5A     -0.510574

  @DF-RHF Final Energy:   -76.05998650260909

   => Energetics <=

    Nuclear Repulsion Energy =              9.1461749027688697
    One-Electron Energy =                -122.9513575183679421
    Two-Electron Energy =                  37.7451961129899871
    Total Energy =                        -76.0599865026090924
 Dipole X            :         24.9822722          -24.2342711            0.7480011
 Dipole Y            :        -39.7737959           39.6237377           -0.1500582
 Dipole Z            :        -23.1371609           22.9053042           -0.2318567
 Magnitude           :                                                    0.7973585
  Basis Set: (AUG-CC-PVTZ AUX)
    Blend: AUG-CC-PVTZ-RI
	 Reference Energy          =     -76.0599865026090924 [Eh]
	 Singles Energy            =      -0.0000000000000000 [Eh]
	 Same-Spin Energy          =      -0.0685684843554327 [Eh]
	 Opposite-Spin Energy      =      -0.2165486896017051 [Eh]
	 Correlation Energy        =      -0.2851171739571378 [Eh]
	 Total Energy              =     -76.3451036765662252 [Eh]

	 ================> DF-SCS-MP2 Energies <==================
	-----------------------------------------------------------
	 SCS Same-Spin Scale       =       0.3333333333333333 [-]
	 SCS Opposite-Spin Scale   =       1.2000000000000000 [-]
	 SCS Same-Spin Energy      =      -0.0228561614518109 [Eh]
	 SCS Opposite-Spin Energy  =      -0.2598584275220461 [Eh]
	 SCS Correlation Energy    =      -0.2827145889738570 [Eh]
	 SCS Total Energy          =     -76.3427010915829527 [Eh]
	-----------------------------------------------------------

*** Psi4 exiting successfully. Buy a developer a beer!
