                               Psi4 1.9 release

  ==> Input File <==

--------------------------------------------------------------------------
MEMORY 60 GB

molecule dimer {
-1 1
F      0.000000     0.000000     0.000000
--
0 1
O     -0.499858     2.656083    -0.452516
H     -0.568811     1.780548    -0.057749
H     -0.971596     2.655662    -1.273282
O      2.032753     1.165306     1.191711
H      1.862455     1.191590     2.129967
H      1.311241     0.610980     0.867723
O      1.503412    -0.706894    -2.146729
H      2.318272    -0.158179    -2.419535
H      1.004696    -0.164797    -1.460316
O     -1.040215     0.023420     2.545448
H     -0.674650     0.273310     1.628852
H     -1.234537     0.904277     2.858910

units ang
no_reorient
no_com
symmetry c1
}

set {
basis        aug-cc-pVTZ
scf_type     df
}

energy("mp2", bsse_type="cp")
--------------------------------------------------------------------------

                               Psi4 1.9 release
    Molecular point group: c1
  Charge       = 0
  Multiplicity = 1
  Basis Set: AUG-CC-PVTZ
    Blend: AUG-CC-PVTZ
  Basis Set: (AUG-CC-PVTZ AUX)
    Blend: AUG-CC-PVTZ-JKFIT
  @DF-RHF Final Energy:  -304.21504431501756
    Total Energy =                       -304.2150443150175647
 Dipole X            :        -36.5189568           35.9346654           -0.5842914
 Dipole Y            :        -60.2574845           60.8429659            0.5854815
 Dipole Z            :        -21.4444329           21.5010809            0.0566480
 Magnitude           :                                                    0.8290923
  Basis Set: (AUG-CC-PVTZ AUX)
    Blend: AUG-CC-PVTZ-RI
	 Reference Energy          =    -304.2150443150175647 [Eh]
	 Singles Energy            =      -0.0000000000000000 [Eh]
	 Same-Spin Energy          =      -0.2769640939644742 [Eh]
	 Opposite-Spin Energy      =      -0.8711722399457870 [Eh]
	 Correlation Energy        =      -1.1481363339102613 [Eh]
	 Total Energy              =    -305.3631806489278233 [Eh]
	 SCS Total Energy          =    -305.3527723676073151 [Eh]
                               Psi4 1.9 release
    Molecular point group: c1
  Multiplicity = 1
  Basis Set: AUG-CC-PVTZ
    Blend: AUG-CC-PVTZ
  Basis Set: (AUG-CC-PVTZ AUX)
    Blend: AUG-CC-PVTZ-JKFIT
  @DF-RHF Final Energy:   -99.45108200861053
    Total Energy =                        -99.4510820086105269
  Basis Set: (AUG-CC-PVTZ AUX)
	 Singles Energy            =      -0.0000000000000000 [Eh]
	 Same-Spin Energy          =      -0.0820332046195573 [Eh]
	 Opposite-Spin Energy      =      -0.2299551688690503 [Eh]
	 Correlation Energy        =      -0.3119883734886075 [Eh]
	 Total Energy              =     -99.7630703820991300 [Eh]
	 SCS Total Energy          =     -99.7543726127932331 [Eh]
                               Psi4 1.9 release
    Molecular point group: c1

    Geometry (in Bohr), charge = -1, multiplicity = 1:

       Center              X                  Y                   Z               Mass
    ------------   -----------------  -----------------  -----------------  -----------------
         F            0.000000000000     0.000000000000     0.000000000000    18.998403162730
         O           -0.944594721619     5.019269436484    -0.855131307388    15.994914619570
         H           -1.074897007148     3.364748073232    -0.109129794019     1.007825032230
         H           -1.836050344590     5.018473861786    -2.406154260475     1.007825032230
         O            3.841346450703     2.202109192353     2.252007410695    15.994914619570
         H            3.519529870990     2.251778753834     4.025054286263     1.007825032230
         H            2.477886374471     1.154584868132     1.639758822761     1.007825032230
         O            2.841036933727    -1.335836059729    -4.056729875578    15.994914619570
         H            4.380899164317    -0.298914988799    -4.572258500960     1.007825032230
         H            1.898600279343    -0.311421196297    -2.759597296624     1.007825032230
         O           -1.965721461593     0.044257385858     4.810199586594    15.994914619570
         H           -1.274903730540     0.516481047349     3.078084178904     1.007825032230
         H           -2.332936821744     1.708835871551     5.402556917333     1.007825032230

  Charge       = -1
  Multiplicity = 1
  Basis Set: AUG-CC-PVTZ
    Blend: AUG-CC-PVTZ
  Basis Set: (AUG-CC-PVTZ AUX)
    Blend: AUG-CC-PVTZ-JKFIT

    Orbital Energies [Eh]
    ---------------------

    Doubly Occupied:

       1A    -25.973600     2A    -20.405268     3A    -20.395656
       4A    -20.392208     5A    -20.378549     6A     -1.243378
       7A     -1.185751     8A     -1.179927     9A     -1.169110
      10A     -1.145481    11A     -0.565491    12A     -0.536080
      13A     -0.532398    14A     -0.515373    15A     -0.436864
      16A     -0.419934    17A     -0.415213    18A     -0.398455
      19A     -0.351425    20A     -0.346783    21A     -0.334480
      22A     -0.330122    23A     -0.324817    24A     -0.321460
      25A     -0.319633

  @DF-RHF Final Energy:  -403.77301665456361

   => Energetics <=

    Nuclear Repulsion Energy =            190.9977376296818932
    One-Electron Energy =                -950.3065873844863063
    Two-Electron Energy =                 355.5358331002408363
    Total Energy =                       -403.7730166545636052
 Dipole X            :        -36.8871204           35.9346654           -0.9524550
 Dipole Y            :        -60.8353032           60.8429659            0.0076627
 Dipole Z            :        -21.7118229           21.5010809           -0.2107420
 Magnitude           :                                                    0.9755212
  Basis Set: (AUG-CC-PVTZ AUX)
    Blend: AUG-CC-PVTZ-RI
	 Reference Energy          =    -403.7730166545636052 [Eh]
	 Singles Energy            =      -0.0000000000000000 [Eh]
	 Same-Spin Energy          =      -0.3646014118938384 [Eh]
	 Opposite-Spin Energy      =      -1.1010948420261781 [Eh]
	 Correlation Energy        =      -1.4656962539200165 [Eh]
	 Total Energy              =    -405.2387129084836488 [Eh]

	 ================> DF-SCS-MP2 Energies <==================
	-----------------------------------------------------------
	 SCS Same-Spin Scale       =       0.3333333333333333 [-]
	 SCS Opposite-Spin Scale   =       1.2000000000000000 [-]
	 SCS Same-Spin Energy      =      -0.1215338039646128 [Eh]
	 SCS Opposite-Spin Energy  =      -1.3213138104314137 [Eh]
	 SCS Correlation Energy    =      -1.4428476143960265 [Eh]
	 SCS Total Energy          =    -405.2158642689596491 [Eh]
	-----------------------------------------------------------

*** Psi4 exiting successfully. Buy a developer a beer!
