                               Psi4 1.8.2 release

  ==> Input File <==

--------------------------------------------------------------------------
MEMORY 60 GB

molecule dimer {
-1 1
F          0.000000     0.000000     0.000000
O          1.687657     1.316846    -1.965167
H          2.588408     1.564995    -1.727402
H          1.164304     1.175955    -1.161700
O         -1.464850     2.221854    -0.966651
H         -1.553513     2.085937    -1.894647
H         -0.984980     1.460650    -0.640983
O          1.779926    -1.980227    -0.972180
H          1.031895    -1.360303    -0.763898
H          1.804884    -2.133995    -1.896560
O         -1.058445    -2.339141     1.291056
H         -0.708302    -3.070607     0.723884
H         -0.765571    -1.555023     0.855966
O         -1.517699    -1.121248    -1.892872
H         -2.456826    -0.756113    -1.965467
H         -1.021022    -0.535627    -1.187547

units ang
no_reorient
no_com
symmetry c1
}

set {
basis        aug-cc-pVTZ
scf_type     df
}

energy("mp2")
--------------------------------------------------------------------------

    Molecular point group: c1

    Geometry (in Angstrom), charge = -1, multiplicity = 1:

       Center              X                  Y                   Z               Mass
    ------------   -----------------  -----------------  -----------------  -----------------
         F            0.000000000000     0.000000000000     0.000000000000    18.998403162730
         O            1.687657000000     1.316846000000    -1.965167000000    15.994914619570
         H            2.588408000000     1.564995000000    -1.727402000000     1.007825032230
         H            1.164304000000     1.175955000000    -1.161700000000     1.007825032230
         O           -1.464850000000     2.221854000000    -0.966651000000    15.994914619570
         H           -1.553513000000     2.085937000000    -1.894647000000     1.007825032230
         H           -0.984980000000     1.460650000000    -0.640983000000     1.007825032230
         O            1.779926000000    -1.980227000000    -0.972180000000    15.994914619570
         H            1.031895000000    -1.360303000000    -0.763898000000     1.007825032230
         H            1.804884000000    -2.133995000000    -1.896560000000     1.007825032230
         O           -1.058445000000    -2.339141000000     1.291056000000    15.994914619570
         H           -0.708302000000    -3.070607000000     0.723884000000     1.007825032230
         H           -0.765571000000    -1.555023000000     0.855966000000     1.007825032230
         O           -1.517699000000    -1.121248000000    -1.892872000000    15.994914619570
         H           -2.456826000000    -0.756113000000    -1.965467000000     1.007825032230
         H           -1.021022000000    -0.535627000000    -1.187547000000     1.007825032230

  Charge       = -1
  Multiplicity = 1
  Basis Set: AUG-CC-PVTZ
    Blend: AUG-CC-PVTZ
  Basis Set: (AUG-CC-PVTZ AUX)
    Blend: AUG-CC-PVTZ-JKFIT

    Orbital Energies [Eh]
    ---------------------

    Doubly Occupied:

       1A    -25.999286     2A    -20.412746     3A    -20.405984
       4A    -20.402320     5A    -20.395152     6A    -20.394404
       7A     -1.266525     8A     -1.201412     9A     -1.193966
      10A     -1.179158    11A     -1.178265    12A     -1.152559
      13A     -0.576824    14A     -0.569982    15A     -0.557702
      16A     -0.544389    17A     -0.529116    18A     -0.441101
      19A     -0.428257    20A     -0.421144    21A     -0.414868
      22A     -0.411876    23A     -0.365065    24A     -0.359240
      25A     -0.353104    26A     -0.349443    27A     -0.347100
      28A     -0.342248    29A     -0.337811    30A     -0.331486

  @DF-RHF Final Energy:  -479.85196486998393

   => Energetics <=

    Nuclear Repulsion Energy =            269.8914971095588271
    One-Electron Energy =               -1213.7618500095722993
    Two-Electron Energy =                 464.0183880300295414
    Total Energy =                       -479.8519648699839308
 Dipole X            :         10.7633386          -10.3708378            0.3925008
 Dipole Y            :         35.4083161          -34.6565548            0.7517613
 Dipole Z            :         86.5452801          -86.3696793            0.1756007
 Magnitude           :                                                    0.8660471
  Basis Set: (AUG-CC-PVTZ AUX)
    Blend: AUG-CC-PVTZ-RI
	 Reference Energy          =    -479.8519648699839308 [Eh]
	 Singles Energy            =      -0.0000000000000000 [Eh]
	 Same-Spin Energy          =      -0.4339752704901595 [Eh]
	 Opposite-Spin Energy      =      -1.3180034021111726 [Eh]
	 Correlation Energy        =      -1.7519786726013322 [Eh]
	 Total Energy              =    -481.6039435425852844 [Eh]

	 ================> DF-SCS-MP2 Energies <==================
	-----------------------------------------------------------
	 SCS Same-Spin Scale       =       0.3333333333333333 [-]
	 SCS Opposite-Spin Scale   =       1.2000000000000000 [-]
	 SCS Same-Spin Energy      =      -0.1446584234967198 [Eh]
	 SCS Opposite-Spin Energy  =      -1.5816040825334070 [Eh]
	 SCS Correlation Energy    =      -1.7262625060301269 [Eh]
	 SCS Total Energy          =    -481.5782273760140697 [Eh]
	-----------------------------------------------------------

*** Psi4 exiting successfully. Buy a developer a beer!
