                               Psi4 1.8.2 release

  ==> Input File <==

--------------------------------------------------------------------------
MEMORY 60 GB

molecule dimer {
-1 1
F          0.000000     0.000000     0.000000
Gh(O)      1.512197     2.406580     0.840529
Gh(H)      1.189138     1.586338     0.433157
Gh(H)      2.329104     2.157667     1.308984
Gh(O)      2.683513    -0.541509    -1.145838
Gh(H)      1.792279    -0.332970    -1.099115
Gh(H)      2.865836    -1.009315    -1.953440
Gh(O)      0.329378     0.134783     2.607000
Gh(H)      0.981309    -0.433808     3.083691
Gh(H)      0.427067     0.007313     1.637742
Gh(O)     -1.529615     2.372468    -0.487485
Gh(H)     -2.400986     2.019607    -0.798232
Gh(H)     -0.921564     1.683072    -0.056461
Gh(O)     -1.725904    -1.071838    -2.007168
Gh(H)     -0.961340    -0.890348    -1.431397
Gh(H)     -2.335466    -0.373033    -1.946563
Gh(O)     -1.183214    -2.045956     1.508332
Gh(H)     -0.765362    -1.328612     0.983167
Gh(H)     -0.774333    -1.986699     2.409746

units ang
no_reorient
no_com
symmetry c1
}

set {
basis        aug-cc-pVTZ
scf_type     df
}

energy("mp2")
--------------------------------------------------------------------------

    Molecular point group: c1

    Geometry (in Angstrom), charge = -1, multiplicity = 1:

       Center              X                  Y                   Z               Mass
    ------------   -----------------  -----------------  -----------------  -----------------
         F            0.000000000000     0.000000000000     0.000000000000    18.998403162730
      Gh(O)           1.512197000000     2.406580000000     0.840529000000    15.994914619570
      Gh(H)           1.189138000000     1.586338000000     0.433157000000     1.007825032230
      Gh(H)           2.329104000000     2.157667000000     1.308984000000     1.007825032230
      Gh(O)           2.683513000000    -0.541509000000    -1.145838000000    15.994914619570
      Gh(H)           1.792279000000    -0.332970000000    -1.099115000000     1.007825032230
      Gh(H)           2.865836000000    -1.009315000000    -1.953440000000     1.007825032230
      Gh(O)           0.329378000000     0.134783000000     2.607000000000    15.994914619570
      Gh(H)           0.981309000000    -0.433808000000     3.083691000000     1.007825032230
      Gh(H)           0.427067000000     0.007313000000     1.637742000000     1.007825032230
      Gh(O)          -1.529615000000     2.372468000000    -0.487485000000    15.994914619570
      Gh(H)          -2.400986000000     2.019607000000    -0.798232000000     1.007825032230
      Gh(H)          -0.921564000000     1.683072000000    -0.056461000000     1.007825032230
      Gh(O)          -1.725904000000    -1.071838000000    -2.007168000000    15.994914619570
      Gh(H)          -0.961340000000    -0.890348000000    -1.431397000000     1.007825032230
      Gh(H)          -2.335466000000    -0.373033000000    -1.946563000000     1.007825032230
      Gh(O)          -1.183214000000    -2.045956000000     1.508332000000    15.994914619570
      Gh(H)          -0.765362000000    -1.328612000000     0.983167000000     1.007825032230
      Gh(H)          -0.774333000000    -1.986699000000     2.409746000000     1.007825032230

  Charge       = -1
  Multiplicity = 1
  Basis Set: AUG-CC-PVTZ
    Blend: AUG-CC-PVTZ
  Basis Set: (AUG-CC-PVTZ AUX)
    Blend: AUG-CC-PVTZ-JKFIT

    Orbital Energies [Eh]
    ---------------------

    Doubly Occupied:

       1A    -25.833525     2A     -1.075865     3A     -0.180911
       4A     -0.180894     5A     -0.180879

  @DF-RHF Final Energy:   -99.45115734864429

   => Energetics <=

    Nuclear Repulsion Energy =              0.0000000000000000
    One-Electron Energy =                -143.9981579593672620
    Two-Electron Energy =                  44.5470006107229679
    Total Energy =                        -99.4511573486443012
 Dipole X            :         -0.0000227            0.0000000           -0.0000227
 Dipole Y            :          0.0000206            0.0000000            0.0000206
 Dipole Z            :          0.0000520            0.0000000            0.0000520
 Magnitude           :                                                    0.0000603
  Basis Set: (AUG-CC-PVTZ AUX)
    Blend: AUG-CC-PVTZ-RI
	 Reference Energy          =     -99.4511573486442870 [Eh]
	 Singles Energy            =      -0.0000000000000000 [Eh]
	 Same-Spin Energy          =      -0.0820850996260467 [Eh]
	 Opposite-Spin Energy      =      -0.2304042335818294 [Eh]
	 Correlation Energy        =      -0.3124893332078761 [Eh]
	 Total Energy              =     -99.7636466818521654 [Eh]

	 ================> DF-SCS-MP2 Energies <==================
	-----------------------------------------------------------
	 SCS Same-Spin Scale       =       0.3333333333333333 [-]
	 SCS Opposite-Spin Scale   =       1.2000000000000000 [-]
	 SCS Same-Spin Energy      =      -0.0273616998753489 [Eh]
	 SCS Opposite-Spin Energy  =      -0.2764850802981953 [Eh]
	 SCS Correlation Energy    =      -0.3038467801735442 [Eh]
	 SCS Total Energy          =     -99.7550041288178306 [Eh]
	-----------------------------------------------------------

*** Psi4 exiting successfully. Buy a developer a beer!
