                               Psi4 1.8.2 release

  ==> Input File <==

--------------------------------------------------------------------------
MEMORY 60 GB

molecule dimer {
0 1
Gh(F)      0.000000     0.000000     0.000000
Gh(O)      2.168807     1.707714    -0.355893
Gh(H)      2.073389     2.313978     0.418100
Gh(H)      1.432893     1.055999    -0.259639
Gh(O)     -0.026158     0.744940     2.521287
Gh(H)      0.010483     0.423758     1.592003
Gh(H)     -0.458684     1.649632     2.480823
Gh(O)      1.794697    -1.829527    -1.647068
Gh(H)      1.108505    -1.229676    -1.232109
Gh(H)      2.212978    -2.403178    -0.980161
Gh(O)     -1.647590     2.228935    -0.142764
Gh(H)     -1.627566     2.508274    -1.084550
Gh(H)     -1.043895     1.472816    -0.082986
O         -1.812943    -1.946993    -0.037439
H         -1.220264    -1.242475    -0.256203
H         -2.477282    -2.005238    -0.795925

units ang
no_reorient
no_com
symmetry c1
}

set {
basis        aug-cc-pVTZ
scf_type     df
}

energy("mp2")
--------------------------------------------------------------------------

    Molecular point group: c1

    Geometry (in Angstrom), charge = 0, multiplicity = 1:

       Center              X                  Y                   Z               Mass
    ------------   -----------------  -----------------  -----------------  -----------------
      Gh(F)           0.000000000000     0.000000000000     0.000000000000    18.998403162730
      Gh(O)           2.168807000000     1.707714000000    -0.355893000000    15.994914619570
      Gh(H)           2.073389000000     2.313978000000     0.418100000000     1.007825032230
      Gh(H)           1.432893000000     1.055999000000    -0.259639000000     1.007825032230
      Gh(O)          -0.026158000000     0.744940000000     2.521287000000    15.994914619570
      Gh(H)           0.010483000000     0.423758000000     1.592003000000     1.007825032230
      Gh(H)          -0.458684000000     1.649632000000     2.480823000000     1.007825032230
      Gh(O)           1.794697000000    -1.829527000000    -1.647068000000    15.994914619570
      Gh(H)           1.108505000000    -1.229676000000    -1.232109000000     1.007825032230
      Gh(H)           2.212978000000    -2.403178000000    -0.980161000000     1.007825032230
      Gh(O)          -1.647590000000     2.228935000000    -0.142764000000    15.994914619570
      Gh(H)          -1.627566000000     2.508274000000    -1.084550000000     1.007825032230
      Gh(H)          -1.043895000000     1.472816000000    -0.082986000000     1.007825032230
         O           -1.812943000000    -1.946993000000    -0.037439000000    15.994914619570
         H           -1.220264000000    -1.242475000000    -0.256203000000     1.007825032230
         H           -2.477282000000    -2.005238000000    -0.795925000000     1.007825032230

  Charge       = 0
  Multiplicity = 1
  Basis Set: AUG-CC-PVTZ
    Blend: AUG-CC-PVTZ
  Basis Set: (AUG-CC-PVTZ AUX)
    Blend: AUG-CC-PVTZ-JKFIT

    Orbital Energies [Eh]
    ---------------------

    Doubly Occupied:

       1A    -20.569692     2A     -1.342681     3A     -0.710174
       4A     -0.576993     5A     -0.508175

  @DF-RHF Final Energy:   -76.05670472024781

   => Energetics <=

    Nuclear Repulsion Energy =              9.0031673910369321
    One-Electron Energy =                -122.7043099138151234
    Two-Electron Energy =                  37.6444378025303692
    Total Energy =                        -76.0567047202478079
 Dipole X            :         34.3564505          -34.3950753           -0.0386248
 Dipole Y            :         36.0038498          -35.5715564            0.4322934
 Dipole Z            :          1.9120325           -2.5542294           -0.6421969
 Magnitude           :                                                    0.7751041
  Basis Set: (AUG-CC-PVTZ AUX)
    Blend: AUG-CC-PVTZ-RI
	 Reference Energy          =     -76.0567047202478079 [Eh]
	 Singles Energy            =      -0.0000000000000000 [Eh]
	 Same-Spin Energy          =      -0.0687246174156135 [Eh]
	 Opposite-Spin Energy      =      -0.2170862750384102 [Eh]
	 Correlation Energy        =      -0.2858108924540237 [Eh]
	 Total Energy              =     -76.3425156127018312 [Eh]

	 ================> DF-SCS-MP2 Energies <==================
	-----------------------------------------------------------
	 SCS Same-Spin Scale       =       0.3333333333333333 [-]
	 SCS Opposite-Spin Scale   =       1.2000000000000000 [-]
	 SCS Same-Spin Energy      =      -0.0229082058052045 [Eh]
	 SCS Opposite-Spin Energy  =      -0.2605035300460922 [Eh]
	 SCS Correlation Energy    =      -0.2834117358512967 [Eh]
	 SCS Total Energy          =     -76.3401164560991106 [Eh]
	-----------------------------------------------------------

*** Psi4 exiting successfully. Buy a developer a beer!
