                               Psi4 1.8.2 release

  ==> Input File <==

--------------------------------------------------------------------------
MEMORY 60 GB

molecule dimer {
-1 1
F          0.000000     0.000000     0.000000
O         -2.200509     1.323634     0.710260
H         -1.503891     0.683674     0.540733
H         -2.315484     1.737995    -0.119068
O         -1.967079    -2.020860    -0.122763
H         -1.318963    -1.305195     0.136157
H         -1.696741    -2.218317    -1.007498
O          0.991465    -1.547512     2.500463
H          0.667023    -1.154030     1.676389
H          0.516695    -1.090567     3.200283
O          2.410120     0.780079    -1.095237
H          3.060268     0.046287    -0.902074
H          1.654642     0.711894    -0.477528
O          1.437300    -2.134809    -0.746584
H          1.223810    -2.927188    -0.210324
H          0.772852    -1.490569    -0.481987
O         -0.357139     2.126165    -1.924590
H         -0.018848     1.313137    -1.513999
H          0.141845     2.856791    -1.535479

units ang
no_reorient
no_com
symmetry c1
}

set {
basis        aug-cc-pVTZ
scf_type     df
}

energy("mp2")
--------------------------------------------------------------------------

    Molecular point group: c1

    Geometry (in Angstrom), charge = -1, multiplicity = 1:

       Center              X                  Y                   Z               Mass
    ------------   -----------------  -----------------  -----------------  -----------------
         F            0.000000000000     0.000000000000     0.000000000000    18.998403162730
         O           -2.200509000000     1.323634000000     0.710260000000    15.994914619570
         H           -1.503891000000     0.683674000000     0.540733000000     1.007825032230
         H           -2.315484000000     1.737995000000    -0.119068000000     1.007825032230
         O           -1.967079000000    -2.020860000000    -0.122763000000    15.994914619570
         H           -1.318963000000    -1.305195000000     0.136157000000     1.007825032230
         H           -1.696741000000    -2.218317000000    -1.007498000000     1.007825032230
         O            0.991465000000    -1.547512000000     2.500463000000    15.994914619570
         H            0.667023000000    -1.154030000000     1.676389000000     1.007825032230
         H            0.516695000000    -1.090567000000     3.200283000000     1.007825032230
         O            2.410120000000     0.780079000000    -1.095237000000    15.994914619570
         H            3.060268000000     0.046287000000    -0.902074000000     1.007825032230
         H            1.654642000000     0.711894000000    -0.477528000000     1.007825032230
         O            1.437300000000    -2.134809000000    -0.746584000000    15.994914619570
         H            1.223810000000    -2.927188000000    -0.210324000000     1.007825032230
         H            0.772852000000    -1.490569000000    -0.481987000000     1.007825032230
         O           -0.357139000000     2.126165000000    -1.924590000000    15.994914619570
         H           -0.018848000000     1.313137000000    -1.513999000000     1.007825032230
         H            0.141845000000     2.856791000000    -1.535479000000     1.007825032230

  Charge       = -1
  Multiplicity = 1
  Basis Set: AUG-CC-PVTZ
    Blend: AUG-CC-PVTZ
  Basis Set: (AUG-CC-PVTZ AUX)
    Blend: AUG-CC-PVTZ-JKFIT

    Orbital Energies [Eh]
    ---------------------

    Doubly Occupied:

       1A    -26.022173     2A    -20.433469     3A    -20.415337
       4A    -20.414667     5A    -20.412355     6A    -20.408221
       7A    -20.386660     8A     -1.294250     9A     -1.216439
      10A     -1.197763    11A     -1.196727    12A     -1.194671
      13A     -1.185769    14A     -1.177392    15A     -0.585154
      16A     -0.573216    17A     -0.568535    18A     -0.562340
      19A     -0.553579    20A     -0.547050    21A     -0.457123
      22A     -0.454220    23A     -0.443719    24A     -0.435891
      25A     -0.429288    26A     -0.419569    27A     -0.384266
      28A     -0.377927    29A     -0.373987    30A     -0.367759
      31A     -0.361440    32A     -0.358647    33A     -0.354030
      34A     -0.346008    35A     -0.336326

  @DF-RHF Final Energy:  -555.92966659421290

   => Energetics <=

    Nuclear Repulsion Energy =            359.7904340049993266
    One-Electron Energy =               -1498.9482632109375118
    Two-Electron Energy =                 583.2281626117253381
    Total Energy =                       -555.9296665942129039
 Dipole X            :         -6.5418943            6.9853197            0.4434254
 Dipole Y            :         27.8391119          -27.6325429            0.2065689
 Dipole Z            :         12.0399968          -11.5689090            0.4710878
 Magnitude           :                                                    0.6791322
  Basis Set: (AUG-CC-PVTZ AUX)
    Blend: AUG-CC-PVTZ-RI
	 Reference Energy          =    -555.9296665942129039 [Eh]
	 Singles Energy            =      -0.0000000000000000 [Eh]
	 Same-Spin Energy          =      -0.5041546248603626 [Eh]
	 Opposite-Spin Energy      =      -1.5350425375850361 [Eh]
	 Correlation Energy        =      -2.0391971624453986 [Eh]
	 Total Energy              =    -557.9688637566582656 [Eh]

	 ================> DF-SCS-MP2 Energies <==================
	-----------------------------------------------------------
	 SCS Same-Spin Scale       =       0.3333333333333333 [-]
	 SCS Opposite-Spin Scale   =       1.2000000000000000 [-]
	 SCS Same-Spin Energy      =      -0.1680515416201208 [Eh]
	 SCS Opposite-Spin Energy  =      -1.8420510451020431 [Eh]
	 SCS Correlation Energy    =      -2.0101025867221640 [Eh]
	 SCS Total Energy          =    -557.9397691809350590 [Eh]
	-----------------------------------------------------------

*** Psi4 exiting successfully. Buy a developer a beer!
