                               Psi4 1.8.2 release

  ==> Input File <==

--------------------------------------------------------------------------
MEMORY 60 GB

molecule dimer {
-1 1
F          0.000000     0.000000     0.000000
Gh(O)      1.817114     1.946444    -0.723175
Gh(H)      1.018768     1.381289    -1.036039
Gh(H)      2.133974     1.611845     0.184788
Gh(O)     -1.618648     2.227966     0.983095
Gh(H)     -1.190650     1.430225     0.637791
Gh(H)     -1.783720     2.118152     1.906642
Gh(O)     -0.955691     1.698319    -2.105695
Gh(H)     -0.402285     1.876495    -2.895468
Gh(H)     -1.255684     0.819664    -2.003767
Gh(O)      1.688096    -0.251298     2.069765
Gh(H)      2.518079     0.189713     1.984541
Gh(H)      1.298638    -0.141263     1.240993
Gh(O)      1.074017    -0.791253    -2.569566
Gh(H)      1.889382    -0.271590    -2.714166
Gh(H)      0.775089    -0.600320    -1.647716
Gh(O)     -1.131261    -2.325104     0.575167
Gh(H)     -0.809361    -1.464786     0.417327
Gh(H)     -2.086261    -2.127325     0.545425

units ang
no_reorient
no_com
symmetry c1
}

set {
basis        aug-cc-pVTZ
scf_type     df
}

energy("mp2")
--------------------------------------------------------------------------

    Molecular point group: c1

    Geometry (in Angstrom), charge = -1, multiplicity = 1:

       Center              X                  Y                   Z               Mass
    ------------   -----------------  -----------------  -----------------  -----------------
         F            0.000000000000     0.000000000000     0.000000000000    18.998403162730
      Gh(O)           1.817114000000     1.946444000000    -0.723175000000    15.994914619570
      Gh(H)           1.018768000000     1.381289000000    -1.036039000000     1.007825032230
      Gh(H)           2.133974000000     1.611845000000     0.184788000000     1.007825032230
      Gh(O)          -1.618648000000     2.227966000000     0.983095000000    15.994914619570
      Gh(H)          -1.190650000000     1.430225000000     0.637791000000     1.007825032230
      Gh(H)          -1.783720000000     2.118152000000     1.906642000000     1.007825032230
      Gh(O)          -0.955691000000     1.698319000000    -2.105695000000    15.994914619570
      Gh(H)          -0.402285000000     1.876495000000    -2.895468000000     1.007825032230
      Gh(H)          -1.255684000000     0.819664000000    -2.003767000000     1.007825032230
      Gh(O)           1.688096000000    -0.251298000000     2.069765000000    15.994914619570
      Gh(H)           2.518079000000     0.189713000000     1.984541000000     1.007825032230
      Gh(H)           1.298638000000    -0.141263000000     1.240993000000     1.007825032230
      Gh(O)           1.074017000000    -0.791253000000    -2.569566000000    15.994914619570
      Gh(H)           1.889382000000    -0.271590000000    -2.714166000000     1.007825032230
      Gh(H)           0.775089000000    -0.600320000000    -1.647716000000     1.007825032230
      Gh(O)          -1.131261000000    -2.325104000000     0.575167000000    15.994914619570
      Gh(H)          -0.809361000000    -1.464786000000     0.417327000000     1.007825032230
      Gh(H)          -2.086261000000    -2.127325000000     0.545425000000     1.007825032230

  Charge       = -1
  Multiplicity = 1
  Basis Set: AUG-CC-PVTZ
    Blend: AUG-CC-PVTZ
  Basis Set: (AUG-CC-PVTZ AUX)
    Blend: AUG-CC-PVTZ-JKFIT

    Orbital Energies [Eh]
    ---------------------

    Doubly Occupied:

       1A    -25.833549     2A     -1.075872     3A     -0.180914
       4A     -0.180894     5A     -0.180885

  @DF-RHF Final Energy:   -99.45114099363678

   => Energetics <=

    Nuclear Repulsion Energy =              0.0000000000000000
    One-Electron Energy =                -143.9980464565075522
    Two-Electron Energy =                  44.5469054628707539
    Total Energy =                        -99.4511409936367983
 Dipole X            :          0.0000740            0.0000000            0.0000740
 Dipole Y            :          0.0000221            0.0000000            0.0000221
 Dipole Z            :          0.0000776            0.0000000            0.0000776
 Magnitude           :                                                    0.0001095
  Basis Set: (AUG-CC-PVTZ AUX)
    Blend: AUG-CC-PVTZ-RI
	 Reference Energy          =     -99.4511409936367841 [Eh]
	 Singles Energy            =      -0.0000000000000000 [Eh]
	 Same-Spin Energy          =      -0.0820696367492753 [Eh]
	 Opposite-Spin Energy      =      -0.2303269057177812 [Eh]
	 Correlation Energy        =      -0.3123965424670565 [Eh]
	 Total Energy              =     -99.7635375361038399 [Eh]

	 ================> DF-SCS-MP2 Energies <==================
	-----------------------------------------------------------
	 SCS Same-Spin Scale       =       0.3333333333333333 [-]
	 SCS Opposite-Spin Scale   =       1.2000000000000000 [-]
	 SCS Same-Spin Energy      =      -0.0273565455830918 [Eh]
	 SCS Opposite-Spin Energy  =      -0.2763922868613374 [Eh]
	 SCS Correlation Energy    =      -0.3037488324444292 [Eh]
	 SCS Total Energy          =     -99.7548898260812109 [Eh]
	-----------------------------------------------------------

*** Psi4 exiting successfully. Buy a developer a beer!
