                               Psi4 1.9 release

  ==> Input File <==

--------------------------------------------------------------------------
MEMORY 60 GB

molecule dimer {
-1 1
F      0.000000     0.000000     0.000000
--
0 1
O      2.677680    -0.431683     0.982344
H      2.933162     0.317043     0.487951
H      1.708005    -0.404595     0.837210
O      1.576856    -0.040462    -2.621091
H      2.404113    -0.374615    -2.443570
H      1.025387    -0.010348    -1.815928
O     -2.450615     0.572312     1.271496
H     -1.576686     0.559397     0.900868
H     -2.799350     1.506271     1.234932
O      0.318935     2.917871     0.285605
H      0.929765     3.196369     1.002172
H      0.243820     1.921280     0.350783
O     -1.632182    -0.210996    -2.315884
H     -1.059865    -0.204007    -1.547666
H     -1.569097     0.672687    -2.721168
O     -0.849068    -2.951308     0.210019
H     -0.770250    -1.966145     0.116227
H     -0.630310    -3.256642    -0.643333

units ang
no_reorient
no_com
symmetry c1
}

set {
basis        aug-cc-pVTZ
scf_type     df
}

energy("mp2", bsse_type="cp")
--------------------------------------------------------------------------

                               Psi4 1.9 release
    Molecular point group: c1
  Charge       = 0
  Multiplicity = 1
  Basis Set: AUG-CC-PVTZ
    Blend: AUG-CC-PVTZ
  Basis Set: (AUG-CC-PVTZ AUX)
    Blend: AUG-CC-PVTZ-JKFIT
  @DF-RHF Final Energy:  -456.32671520884185
    Total Energy =                       -456.3267152088418470
 Dipole X            :          4.8264653           -3.8332301            0.9932353
 Dipole Y            :         -0.0264750            1.5166318            1.4901568
 Dipole Z            :         41.0973630          -41.0856884            0.0116745
 Magnitude           :                                                    1.7908712
  Basis Set: (AUG-CC-PVTZ AUX)
    Blend: AUG-CC-PVTZ-RI
	 Reference Energy          =    -456.3267152088418470 [Eh]
	 Singles Energy            =      -0.0000000000000000 [Eh]
	 Same-Spin Energy          =      -0.4140534324855281 [Eh]
	 Opposite-Spin Energy      =      -1.3028633904527560 [Eh]
	 Correlation Energy        =      -1.7169168229382841 [Eh]
	 Total Energy              =    -458.0436320317801346 [Eh]
	 SCS Total Energy          =    -458.0281690882136445 [Eh]
                               Psi4 1.9 release
    Molecular point group: c1
  Multiplicity = 1
  Basis Set: AUG-CC-PVTZ
    Blend: AUG-CC-PVTZ
  Basis Set: (AUG-CC-PVTZ AUX)
    Blend: AUG-CC-PVTZ-JKFIT
  @DF-RHF Final Energy:   -99.45113803155813
    Total Energy =                        -99.4511380315581306
  Basis Set: (AUG-CC-PVTZ AUX)
	 Singles Energy            =      -0.0000000000000000 [Eh]
	 Same-Spin Energy          =      -0.0820468729427087 [Eh]
	 Opposite-Spin Energy      =      -0.2299556527780009 [Eh]
	 Correlation Energy        =      -0.3120025257207096 [Eh]
	 Total Energy              =     -99.7631405572788452 [Eh]
	 SCS Total Energy          =     -99.7544337725393007 [Eh]
                               Psi4 1.9 release
    Molecular point group: c1

    Geometry (in Bohr), charge = -1, multiplicity = 1:

       Center              X                  Y                   Z               Mass
    ------------   -----------------  -----------------  -----------------  -----------------
         F            0.000000000000     0.000000000000     0.000000000000    18.998403162730
         O            5.060081851616    -0.815762643016     1.856361120987    15.994914619570
         H            5.542872861600     0.599124439994     0.922093752643     1.007825032230
         H            3.227661670913    -0.764573741730     1.582097609495     1.007825032230
         O            2.979825979285    -0.076462098488    -4.953144139902    15.994914619570
         H            4.543115144653    -0.707919752488    -4.617678068385     1.007825032230
         H            1.937700602605    -0.019554885946    -3.431606583550     1.007825032230
         O           -4.630991188939     1.081512938313     2.402779209615    15.994914619570
         H           -2.979504725844     1.057107125403     1.702393795189     1.007825032230
         H           -5.290004829300     2.846439660719     2.333683263564     1.007825032230
         O            0.602699801823     5.513977059416     0.539715230061    15.994914619570
         H            1.757001211036     6.040262005904     1.893830610602     1.007825032230
         H            0.460753023909     3.630693010320     0.662883799466     1.007825032230
         O           -3.084376966902    -0.398724653567    -4.376386498330    15.994914619570
         H           -2.002854579958    -0.385517357676    -2.924664873683     1.007825032230
         H           -2.965163594278     1.271194198156    -5.142262261360     1.007825032230
         O           -1.604505981890    -5.577163831873     0.396878391143    15.994914619570
         H           -1.455561548134    -3.715475572938     0.219637198384     1.007825032230
         H           -1.191113274137    -6.154161468663    -1.215723177469     1.007825032230

  Charge       = -1
  Multiplicity = 1
  Basis Set: AUG-CC-PVTZ
    Blend: AUG-CC-PVTZ
  Basis Set: (AUG-CC-PVTZ AUX)
    Blend: AUG-CC-PVTZ-JKFIT

    Orbital Energies [Eh]
    ---------------------

    Doubly Occupied:

       1A    -26.013941     2A    -20.436149     3A    -20.420421
       4A    -20.418424     5A    -20.411986     6A    -20.410358
       7A    -20.406310     8A     -1.277259     9A     -1.217274
      10A     -1.212760    11A     -1.202497    12A     -1.198836
      13A     -1.189844    14A     -1.187628    15A     -0.600950
      16A     -0.573087    17A     -0.569095    18A     -0.564229
      19A     -0.562024    20A     -0.557171    21A     -0.459987
      22A     -0.448177    23A     -0.439313    24A     -0.438040
      25A     -0.429721    26A     -0.424298    27A     -0.376900
      28A     -0.373191    29A     -0.370897    30A     -0.368380
      31A     -0.367249    32A     -0.364112    33A     -0.355885
      34A     -0.353548    35A     -0.348265

  @DF-RHF Final Energy:  -555.92816815509855

   => Energetics <=

    Nuclear Repulsion Energy =            343.9415120035278619
    One-Electron Energy =               -1467.0429434490833955
    Two-Electron Energy =                 567.1732632904570437
    Total Energy =                       -555.9281681550985468
 Dipole X            :          4.8449248           -3.8332301            1.0116947
 Dipole Y            :         -0.1750511            1.5166318            1.3415807
 Dipole Z            :         41.3525685          -41.0856884            0.2668800
 Magnitude           :                                                    1.7013494
  Basis Set: (AUG-CC-PVTZ AUX)
    Blend: AUG-CC-PVTZ-RI
	 Reference Energy          =    -555.9281681550985468 [Eh]
	 Singles Energy            =      -0.0000000000000000 [Eh]
	 Same-Spin Energy          =      -0.5010430250004917 [Eh]
	 Opposite-Spin Energy      =      -1.5312106557749929 [Eh]
	 Correlation Energy        =      -2.0322536807754847 [Eh]
	 Total Energy              =    -557.9604218358740582 [Eh]

	 ================> DF-SCS-MP2 Energies <==================
	-----------------------------------------------------------
	 SCS Same-Spin Scale       =       0.3333333333333333 [-]
	 SCS Opposite-Spin Scale   =       1.2000000000000000 [-]
	 SCS Same-Spin Energy      =      -0.1670143416668305 [Eh]
	 SCS Opposite-Spin Energy  =      -1.8374527869299915 [Eh]
	 SCS Correlation Energy    =      -2.0044671285968221 [Eh]
	 SCS Total Energy          =    -557.9326352836953902 [Eh]
	-----------------------------------------------------------

*** Psi4 exiting successfully. Buy a developer a beer!
