                               Psi4 1.8.2 release

  ==> Input File <==

--------------------------------------------------------------------------
MEMORY 60 GB

molecule dimer {
0 1
Gh(F)      0.000000     0.000000     0.000000
Gh(O)      0.316579     2.487371    -1.033870
Gh(H)     -0.299784     2.958747    -1.698141
Gh(H)      0.068567     1.636716    -0.609642
Gh(O)     -2.966622    -0.324922    -0.279360
Gh(H)     -1.997157    -0.168453    -0.193960
Gh(H)     -3.039299    -1.203601    -0.674475
Gh(O)      2.620493     0.082477    -0.913598
Gh(H)      3.090818    -0.144429    -0.074903
Gh(H)      1.665367     0.173836    -0.709739
Gh(O)     -1.016627     1.008044     2.356890
Gh(H)     -0.498021     0.696455     1.582640
Gh(H)     -1.005983     0.224406     2.964702
O         -0.584061    -0.002881    -2.710546
H          0.203428     0.427802    -3.052160
H         -0.399019    -0.109730    -1.768497

units ang
no_reorient
no_com
symmetry c1
}

set {
basis        aug-cc-pVTZ
scf_type     df
}

energy("mp2")
--------------------------------------------------------------------------

    Molecular point group: c1

    Geometry (in Angstrom), charge = 0, multiplicity = 1:

       Center              X                  Y                   Z               Mass
    ------------   -----------------  -----------------  -----------------  -----------------
      Gh(F)           0.000000000000     0.000000000000     0.000000000000    18.998403162730
      Gh(O)           0.316579000000     2.487371000000    -1.033870000000    15.994914619570
      Gh(H)          -0.299784000000     2.958747000000    -1.698141000000     1.007825032230
      Gh(H)           0.068567000000     1.636716000000    -0.609642000000     1.007825032230
      Gh(O)          -2.966622000000    -0.324922000000    -0.279360000000    15.994914619570
      Gh(H)          -1.997157000000    -0.168453000000    -0.193960000000     1.007825032230
      Gh(H)          -3.039299000000    -1.203601000000    -0.674475000000     1.007825032230
      Gh(O)           2.620493000000     0.082477000000    -0.913598000000    15.994914619570
      Gh(H)           3.090818000000    -0.144429000000    -0.074903000000     1.007825032230
      Gh(H)           1.665367000000     0.173836000000    -0.709739000000     1.007825032230
      Gh(O)          -1.016627000000     1.008044000000     2.356890000000    15.994914619570
      Gh(H)          -0.498021000000     0.696455000000     1.582640000000     1.007825032230
      Gh(H)          -1.005983000000     0.224406000000     2.964702000000     1.007825032230
         O           -0.584061000000    -0.002881000000    -2.710546000000    15.994914619570
         H            0.203428000000     0.427802000000    -3.052160000000     1.007825032230
         H           -0.399019000000    -0.109730000000    -1.768497000000     1.007825032230

  Charge       = 0
  Multiplicity = 1
  Basis Set: AUG-CC-PVTZ
    Blend: AUG-CC-PVTZ
  Basis Set: (AUG-CC-PVTZ AUX)
    Blend: AUG-CC-PVTZ-JKFIT

    Orbital Energies [Eh]
    ---------------------

    Doubly Occupied:

       1A    -20.568417     2A     -1.350936     3A     -0.713232
       4A     -0.585013     5A     -0.510033

  @DF-RHF Final Energy:   -76.06020191378173

   => Energetics <=

    Nuclear Repulsion Energy =              9.1395455086039448
    One-Electron Energy =                -122.9442311430440782
    Two-Electron Energy =                  37.7444837206584083
    Total Energy =                        -76.0602019137817251
 Dipole X            :          9.8430677           -9.1993361            0.6437316
 Dipole Y            :         -0.3431625            0.5575146            0.2143521
 Dipole Z            :         50.4839196          -50.0872382            0.3966814
 Magnitude           :                                                    0.7859347
  Basis Set: (AUG-CC-PVTZ AUX)
    Blend: AUG-CC-PVTZ-RI
	 Reference Energy          =     -76.0602019137817251 [Eh]
	 Singles Energy            =      -0.0000000000000000 [Eh]
	 Same-Spin Energy          =      -0.0685426200607872 [Eh]
	 Opposite-Spin Energy      =      -0.2166419863664608 [Eh]
	 Correlation Energy        =      -0.2851846064272480 [Eh]
	 Total Energy              =     -76.3453865202089759 [Eh]

	 ================> DF-SCS-MP2 Energies <==================
	-----------------------------------------------------------
	 SCS Same-Spin Scale       =       0.3333333333333333 [-]
	 SCS Opposite-Spin Scale   =       1.2000000000000000 [-]
	 SCS Same-Spin Energy      =      -0.0228475400202624 [Eh]
	 SCS Opposite-Spin Energy  =      -0.2599703836397529 [Eh]
	 SCS Correlation Energy    =      -0.2828179236600153 [Eh]
	 SCS Total Energy          =     -76.3430198374417444 [Eh]
	-----------------------------------------------------------

*** Psi4 exiting successfully. Buy a developer a beer!
