                               Psi4 1.8.2 release

  ==> Input File <==

--------------------------------------------------------------------------
MEMORY 60 GB

molecule dimer {
-1 1
F          0.000000     0.000000     0.000000
O         -0.057118     2.692147    -0.976789
H          0.731116     3.225705    -0.805216
H          0.209827     1.795792    -0.774691
O          0.486465    -2.407014     1.207865
H          0.269082    -1.731333     0.576353
H          1.158872    -2.081555     1.761537
O          2.743152     0.252394     0.166207
H          2.913143     0.164435    -0.786041
H          1.744815     0.219563     0.238161
O          0.021137     0.684540     2.677081
H         -0.147829     0.359385     1.789779
H         -0.892075     0.785151     3.140166
O         -2.468711    -1.509440    -0.488093
H         -1.632848    -1.124206    -0.091186
H         -2.494928    -1.207266    -1.445224
O         -0.643514    -0.967018    -2.526052
H         -0.484782    -0.177777    -1.974885
H         -0.087133    -1.668284    -2.070015

units ang
no_reorient
no_com
symmetry c1
}

set {
basis        aug-cc-pVTZ
scf_type     df
}

energy("mp2")
--------------------------------------------------------------------------

    Molecular point group: c1

    Geometry (in Angstrom), charge = -1, multiplicity = 1:

       Center              X                  Y                   Z               Mass
    ------------   -----------------  -----------------  -----------------  -----------------
         F            0.000000000000     0.000000000000     0.000000000000    18.998403162730
         O           -0.057118000000     2.692147000000    -0.976789000000    15.994914619570
         H            0.731116000000     3.225705000000    -0.805216000000     1.007825032230
         H            0.209827000000     1.795792000000    -0.774691000000     1.007825032230
         O            0.486465000000    -2.407014000000     1.207865000000    15.994914619570
         H            0.269082000000    -1.731333000000     0.576353000000     1.007825032230
         H            1.158872000000    -2.081555000000     1.761537000000     1.007825032230
         O            2.743152000000     0.252394000000     0.166207000000    15.994914619570
         H            2.913143000000     0.164435000000    -0.786041000000     1.007825032230
         H            1.744815000000     0.219563000000     0.238161000000     1.007825032230
         O            0.021137000000     0.684540000000     2.677081000000    15.994914619570
         H           -0.147829000000     0.359385000000     1.789779000000     1.007825032230
         H           -0.892075000000     0.785151000000     3.140166000000     1.007825032230
         O           -2.468711000000    -1.509440000000    -0.488093000000    15.994914619570
         H           -1.632848000000    -1.124206000000    -0.091186000000     1.007825032230
         H           -2.494928000000    -1.207266000000    -1.445224000000     1.007825032230
         O           -0.643514000000    -0.967018000000    -2.526052000000    15.994914619570
         H           -0.484782000000    -0.177777000000    -1.974885000000     1.007825032230
         H           -0.087133000000    -1.668284000000    -2.070015000000     1.007825032230

  Charge       = -1
  Multiplicity = 1
  Basis Set: AUG-CC-PVTZ
    Blend: AUG-CC-PVTZ
  Basis Set: (AUG-CC-PVTZ AUX)
    Blend: AUG-CC-PVTZ-JKFIT

    Orbital Energies [Eh]
    ---------------------

    Doubly Occupied:

       1A    -26.020555     2A    -20.430619     3A    -20.424994
       4A    -20.417847     5A    -20.414751     6A    -20.400375
       7A    -20.399648     8A     -1.291212     9A     -1.210352
      10A     -1.202909    11A     -1.201403    12A     -1.190377
      13A     -1.180245    14A     -1.161685    15A     -0.585025
      16A     -0.576102    17A     -0.563707    18A     -0.558147
      19A     -0.552496    20A     -0.533469    21A     -0.456627
      22A     -0.453153    23A     -0.445577    24A     -0.435771
      25A     -0.426457    26A     -0.425329    27A     -0.377988
      28A     -0.373772    29A     -0.369288    30A     -0.366791
      31A     -0.362838    32A     -0.360045    33A     -0.355937
      34A     -0.347156    35A     -0.335453

  @DF-RHF Final Energy:  -555.91725207936724

   => Energetics <=

    Nuclear Repulsion Energy =            358.4342926620953449
    One-Electron Energy =               -1496.2868744122256430
    Two-Electron Energy =                 581.9353296707631671
    Total Energy =                       -555.9172520793672447
 Dipole X            :         -3.0115311            3.6633248            0.6517937
 Dipole Y            :         22.5436169          -21.6855862            0.8580308
 Dipole Z            :         -0.5190821            0.0765150           -0.4425671
 Magnitude           :                                                    1.1648680
  Basis Set: (AUG-CC-PVTZ AUX)
    Blend: AUG-CC-PVTZ-RI
	 Reference Energy          =    -555.9172520793672447 [Eh]
	 Singles Energy            =      -0.0000000000000000 [Eh]
	 Same-Spin Energy          =      -0.5049064367879998 [Eh]
	 Opposite-Spin Energy      =      -1.5378942857411591 [Eh]
	 Correlation Energy        =      -2.0428007225291589 [Eh]
	 Total Energy              =    -557.9600528018963814 [Eh]

	 ================> DF-SCS-MP2 Energies <==================
	-----------------------------------------------------------
	 SCS Same-Spin Scale       =       0.3333333333333333 [-]
	 SCS Opposite-Spin Scale   =       1.2000000000000000 [-]
	 SCS Same-Spin Energy      =      -0.1683021455959999 [Eh]
	 SCS Opposite-Spin Energy  =      -1.8454731428893907 [Eh]
	 SCS Correlation Energy    =      -2.0137752884853906 [Eh]
	 SCS Total Energy          =    -557.9310273678526073 [Eh]
	-----------------------------------------------------------

*** Psi4 exiting successfully. Buy a developer a beer!
