                               Psi4 1.9 release

  ==> Input File <==

--------------------------------------------------------------------------
MEMORY 60 GB

molecule dimer {
-1 1
F      0.000000     0.000000     0.000000
--
0 1
O     -1.487872    -0.217420    -2.363753
H     -1.846266    -1.101990    -2.303354
H     -0.867098    -0.126949    -1.620883
O     -1.868663    -2.007774     0.548444
H     -1.271309    -1.335933     0.538696
H     -2.725726    -1.478875     0.632794
O     -2.203007     1.637413     0.887644
H     -1.407326     1.184148     0.615864
H     -1.872138     2.526221     0.987551
O      1.801115     0.959619    -2.091262
H      2.347007     1.699909    -1.793638
H      1.430991     0.615917    -1.275322
O      1.566564    -2.169919     0.460736
H      1.039338    -1.344244     0.290975
H      1.396974    -2.309900     1.415673

units ang
no_reorient
no_com
symmetry c1
}

set {
basis        aug-cc-pVTZ
scf_type     df
}

energy("mp2", bsse_type="cp")
--------------------------------------------------------------------------

                               Psi4 1.9 release
    Molecular point group: c1
  Charge       = 0
  Multiplicity = 1
  Basis Set: AUG-CC-PVTZ
    Blend: AUG-CC-PVTZ
  Basis Set: (AUG-CC-PVTZ AUX)
    Blend: AUG-CC-PVTZ-JKFIT
  @DF-RHF Final Energy:  -380.27536744905962
    Total Energy =                       -380.2753674490596154
 Dipole X            :         40.6367089          -40.2709273            0.3657815
 Dipole Y            :         31.5281330          -30.3420927            1.1860403
 Dipole Z            :         45.0403234          -43.4205622            1.6197612
 Magnitude           :                                                    2.0406161
  Basis Set: (AUG-CC-PVTZ AUX)
    Blend: AUG-CC-PVTZ-RI
	 Reference Energy          =    -380.2753674490596154 [Eh]
	 Singles Energy            =      -0.0000000000000000 [Eh]
	 Same-Spin Energy          =      -0.3451995648987766 [Eh]
	 Opposite-Spin Energy      =      -1.0860816375819038 [Eh]
	 Correlation Energy        =      -1.4312812024806805 [Eh]
	 Total Energy              =    -381.7066486515403199 [Eh]
	 SCS Total Energy          =    -381.6937319357908223 [Eh]
                               Psi4 1.9 release
    Molecular point group: c1
  Multiplicity = 1
  Basis Set: AUG-CC-PVTZ
    Blend: AUG-CC-PVTZ
  Basis Set: (AUG-CC-PVTZ AUX)
    Blend: AUG-CC-PVTZ-JKFIT
  @DF-RHF Final Energy:   -99.45111005763391
    Total Energy =                        -99.4511100576339118
  Basis Set: (AUG-CC-PVTZ AUX)
	 Singles Energy            =      -0.0000000000000000 [Eh]
	 Same-Spin Energy          =      -0.0820451788168230 [Eh]
	 Opposite-Spin Energy      =      -0.2300023547332968 [Eh]
	 Correlation Energy        =      -0.3120475335501198 [Eh]
	 Total Energy              =     -99.7631575911840258 [Eh]
	 SCS Total Energy          =     -99.7544612762528118 [Eh]
                               Psi4 1.9 release
    Molecular point group: c1

    Geometry (in Bohr), charge = -1, multiplicity = 1:

       Center              X                  Y                   Z               Mass
    ------------   -----------------  -----------------  -----------------  -----------------
         F            0.000000000000     0.000000000000     0.000000000000    18.998403162730
         O           -2.811670589737    -0.410864254197    -4.466845798229    15.994914619570
         H           -3.488937094745    -2.082459292993    -4.352708229978     1.007825032230
         H           -1.638577743932    -0.239898841901    -3.063024951410     1.007825032230
         O           -3.531261290776    -3.794142981815     1.036408955151    15.994914619570
         H           -2.402425830830    -2.524547491961     1.017987904880     1.007825032230
         H           -5.150875633040    -2.794668723786     1.195807353833     1.007825032230
         O           -4.163079882466     3.094262124264     1.677404056906    15.994914619570
         H           -2.659460709236     2.237715412009     1.163814290529     1.007825032230
         H           -3.537828089062     4.773865822380     1.866200924922     1.007825032230
         O            3.403614070454     1.813417094786    -3.951912436577    15.994914619570
         H            4.435200444532     3.212362448201    -3.389484588214     1.007825032230
         H            2.704181077995     1.163914446014    -2.410009301771     1.007825032230
         O            2.960376918002    -4.100552624427     0.870664856139    15.994914619570
         H            1.964064171781    -2.540253005790     0.549863059355     1.007825032230
         H            2.639898264385    -4.365078377195     2.675234253205     1.007825032230

  Charge       = -1
  Multiplicity = 1
  Basis Set: AUG-CC-PVTZ
    Blend: AUG-CC-PVTZ
  Basis Set: (AUG-CC-PVTZ AUX)
    Blend: AUG-CC-PVTZ-JKFIT

    Orbital Energies [Eh]
    ---------------------

    Doubly Occupied:

       1A    -25.994243     2A    -20.415763     3A    -20.410921
       4A    -20.405166     5A    -20.393223     6A    -20.381922
       7A     -1.261259     8A     -1.208028     9A     -1.199913
      10A     -1.195435    11A     -1.167501    12A     -1.165669
      13A     -0.565671    14A     -0.559783    15A     -0.554392
      16A     -0.539296    17A     -0.526762    18A     -0.450740
      19A     -0.439510    20A     -0.433933    21A     -0.424231
      22A     -0.411163    23A     -0.364629    24A     -0.358996
      25A     -0.354975    26A     -0.350642    27A     -0.348199
      28A     -0.342760    29A     -0.332860    30A     -0.327037

  @DF-RHF Final Energy:  -479.85679213653430

   => Energetics <=

    Nuclear Repulsion Energy =            264.7281193589162740
    One-Electron Energy =               -1203.4005687379667506
    Two-Electron Energy =                 458.8156572425161812
    Total Energy =                       -479.8567921365342954
 Dipole X            :         40.8695300          -40.2709273            0.5986027
 Dipole Y            :         31.8384598          -30.3420927            1.4963671
 Dipole Z            :         45.2831470          -43.4205622            1.8625848
 Magnitude           :                                                    2.4630594
  Basis Set: (AUG-CC-PVTZ AUX)
    Blend: AUG-CC-PVTZ-RI
	 Reference Energy          =    -479.8567921365342954 [Eh]
	 Singles Energy            =      -0.0000000000000000 [Eh]
	 Same-Spin Energy          =      -0.4320919728373891 [Eh]
	 Opposite-Spin Energy      =      -1.3148585941150639 [Eh]
	 Correlation Energy        =      -1.7469505669524530 [Eh]
	 Total Energy              =    -481.6037427034867733 [Eh]

	 ================> DF-SCS-MP2 Energies <==================
	-----------------------------------------------------------
	 SCS Same-Spin Scale       =       0.3333333333333333 [-]
	 SCS Opposite-Spin Scale   =       1.2000000000000000 [-]
	 SCS Same-Spin Energy      =      -0.1440306576124630 [Eh]
	 SCS Opposite-Spin Energy  =      -1.5778303129380766 [Eh]
	 SCS Correlation Energy    =      -1.7218609705505397 [Eh]
	 SCS Total Energy          =    -481.5786531070848469 [Eh]
	-----------------------------------------------------------

*** Psi4 exiting successfully. Buy a developer a beer!
