                               Psi4 1.8.2 release

  ==> Input File <==

--------------------------------------------------------------------------
MEMORY 60 GB

molecule dimer {
-1 1
F          0.000000     0.000000     0.000000
O         -1.260900    -2.254512    -1.019552
H         -2.116647    -1.981406    -1.460657
H         -0.886299    -1.461259    -0.624048
O          0.797432    -1.918530     2.094916
H          0.760946    -1.157874     1.509449
H          0.725951    -1.582356     2.998300
O          2.111783     1.327632     1.753854
H          2.614097     1.583631     2.486238
H          1.329987     0.996826     2.201141
O         -2.174612     1.324090     1.166663
H         -1.510760     0.876909     0.680206
H         -1.789404     1.445993     2.012538
O         -1.021032     0.928373    -2.325044
H         -0.460450     0.648507    -1.601012
H         -1.318384     0.178931    -2.852340
O          0.841089     2.518421    -0.309383
H          0.478528     1.619902    -0.303863
H          1.276908     2.576825     0.587759

units ang
no_reorient
no_com
symmetry c1
}

set {
basis        aug-cc-pVTZ
scf_type     df
}

energy("mp2")
--------------------------------------------------------------------------

    Molecular point group: c1

    Geometry (in Angstrom), charge = -1, multiplicity = 1:

       Center              X                  Y                   Z               Mass
    ------------   -----------------  -----------------  -----------------  -----------------
         F            0.000000000000     0.000000000000     0.000000000000    18.998403162730
         O           -1.260900000000    -2.254512000000    -1.019552000000    15.994914619570
         H           -2.116647000000    -1.981406000000    -1.460657000000     1.007825032230
         H           -0.886299000000    -1.461259000000    -0.624048000000     1.007825032230
         O            0.797432000000    -1.918530000000     2.094916000000    15.994914619570
         H            0.760946000000    -1.157874000000     1.509449000000     1.007825032230
         H            0.725951000000    -1.582356000000     2.998300000000     1.007825032230
         O            2.111783000000     1.327632000000     1.753854000000    15.994914619570
         H            2.614097000000     1.583631000000     2.486238000000     1.007825032230
         H            1.329987000000     0.996826000000     2.201141000000     1.007825032230
         O           -2.174612000000     1.324090000000     1.166663000000    15.994914619570
         H           -1.510760000000     0.876909000000     0.680206000000     1.007825032230
         H           -1.789404000000     1.445993000000     2.012538000000     1.007825032230
         O           -1.021032000000     0.928373000000    -2.325044000000    15.994914619570
         H           -0.460450000000     0.648507000000    -1.601012000000     1.007825032230
         H           -1.318384000000     0.178931000000    -2.852340000000     1.007825032230
         O            0.841089000000     2.518421000000    -0.309383000000    15.994914619570
         H            0.478528000000     1.619902000000    -0.303863000000     1.007825032230
         H            1.276908000000     2.576825000000     0.587759000000     1.007825032230

  Charge       = -1
  Multiplicity = 1
  Basis Set: AUG-CC-PVTZ
    Blend: AUG-CC-PVTZ
  Basis Set: (AUG-CC-PVTZ AUX)
    Blend: AUG-CC-PVTZ-JKFIT

    Orbital Energies [Eh]
    ---------------------

    Doubly Occupied:

       1A    -25.994914     2A    -20.469775     3A    -20.426035
       4A    -20.400816     5A    -20.398822     6A    -20.386780
       7A    -20.363403     8A     -1.273832     9A     -1.265327
      10A     -1.209269    11A     -1.202411    12A     -1.174642
      13A     -1.172938    14A     -1.142510    15A     -0.622746
      16A     -0.581032    17A     -0.569922    18A     -0.563596
      19A     -0.548339    20A     -0.523711    21A     -0.495311
      22A     -0.444894    23A     -0.438550    24A     -0.429959
      25A     -0.422947    26A     -0.404808    27A     -0.383842
      28A     -0.370319    29A     -0.356920    30A     -0.352909
      31A     -0.348989    32A     -0.341396    33A     -0.337740
      34A     -0.331748    35A     -0.307788

  @DF-RHF Final Energy:  -555.90222701071059

   => Energetics <=

    Nuclear Repulsion Energy =            359.4591784281712421
    One-Electron Energy =               -1498.6049236736644161
    Two-Electron Energy =                 583.2435182347825275
    Total Energy =                       -555.9022270107105896
 Dipole X            :         13.1586139          -12.3691022            0.7895117
 Dipole Y            :        -36.5353079           36.1852714           -0.3500365
 Dipole Z            :        -29.2611962           31.2283724            1.9671762
 Magnitude           :                                                    2.1484032
  Basis Set: (AUG-CC-PVTZ AUX)
    Blend: AUG-CC-PVTZ-RI
	 Reference Energy          =    -555.9022270107105896 [Eh]
	 Singles Energy            =      -0.0000000000000000 [Eh]
	 Same-Spin Energy          =      -0.5039339633418884 [Eh]
	 Opposite-Spin Energy      =      -1.5344266438787171 [Eh]
	 Correlation Energy        =      -2.0383606072206053 [Eh]
	 Total Energy              =    -557.9405876179312145 [Eh]

	 ================> DF-SCS-MP2 Energies <==================
	-----------------------------------------------------------
	 SCS Same-Spin Scale       =       0.3333333333333333 [-]
	 SCS Opposite-Spin Scale   =       1.2000000000000000 [-]
	 SCS Same-Spin Energy      =      -0.1679779877806295 [Eh]
	 SCS Opposite-Spin Energy  =      -1.8413119726544604 [Eh]
	 SCS Correlation Energy    =      -2.0092899604350900 [Eh]
	 SCS Total Energy          =    -557.9115169711457156 [Eh]
	-----------------------------------------------------------

*** Psi4 exiting successfully. Buy a developer a beer!
