                               Psi4 1.9 release

  ==> Input File <==

--------------------------------------------------------------------------
MEMORY 60 GB

molecule dimer {
-1 1
F      0.000000     0.000000     0.000000
--
0 1
O     -0.397648    -0.910418     2.622164
H     -0.278439    -0.332943     1.846098
H     -0.948382    -1.629149     2.239891
O      0.397013     2.439291     1.895123
H      0.857906     1.621274     1.666906
H     -0.315526     2.168674     2.538856
O      1.430544    -2.203104    -0.374068
H      0.802760    -1.465357    -0.109589
H      2.163364    -2.326051     0.230939
O     -2.107879    -1.075061    -1.420751
H     -1.468864    -0.523104    -0.966716
H     -2.939395    -0.987639    -0.873767
O      1.169294     1.920077    -2.056293
H      0.738830     1.355211    -1.379914
H      1.743484     1.303436    -2.480539
O     -1.806412     1.932441     0.047936
H     -1.097988     1.281221     0.130003
H     -1.594507     2.797864     0.448413

units ang
no_reorient
no_com
symmetry c1
}

set {
basis        aug-cc-pVTZ
scf_type     df
}

energy("mp2", bsse_type="cp")
--------------------------------------------------------------------------

                               Psi4 1.9 release
    Molecular point group: c1
  Charge       = 0
  Multiplicity = 1
  Basis Set: AUG-CC-PVTZ
    Blend: AUG-CC-PVTZ
  Basis Set: (AUG-CC-PVTZ AUX)
    Blend: AUG-CC-PVTZ-JKFIT
  @DF-RHF Final Energy:  -456.32557613437427
    Total Energy =                       -456.3255761343742734
 Dipole X            :         24.4781659          -24.2970800            0.1810860
 Dipole Y            :        -38.4899319           37.9631711           -0.5267608
 Dipole Z            :        -15.7383018           17.0140906            1.2757888
 Magnitude           :                                                    1.3920870
  Basis Set: (AUG-CC-PVTZ AUX)
    Blend: AUG-CC-PVTZ-RI
	 Reference Energy          =    -456.3255761343742734 [Eh]
	 Singles Energy            =      -0.0000000000000000 [Eh]
	 Same-Spin Energy          =      -0.4162892308495319 [Eh]
	 Opposite-Spin Energy      =      -1.3072822232545969 [Eh]
	 Correlation Energy        =      -1.7235714541041287 [Eh]
	 Total Energy              =    -458.0491475884783767 [Eh]
	 SCS Total Energy          =    -458.0330778792296087 [Eh]
                               Psi4 1.9 release
    Molecular point group: c1
  Multiplicity = 1
  Basis Set: AUG-CC-PVTZ
    Blend: AUG-CC-PVTZ
  Basis Set: (AUG-CC-PVTZ AUX)
    Blend: AUG-CC-PVTZ-JKFIT
  @DF-RHF Final Energy:   -99.45115882809858
    Total Energy =                        -99.4511588280985706
  Basis Set: (AUG-CC-PVTZ AUX)
	 Singles Energy            =      -0.0000000000000000 [Eh]
	 Same-Spin Energy          =      -0.0820941336995052 [Eh]
	 Opposite-Spin Energy      =      -0.2306399520787892 [Eh]
	 Correlation Energy        =      -0.3127340857782944 [Eh]
	 Total Energy              =     -99.7638929138768731 [Eh]
	 SCS Total Energy          =     -99.7552914818263048 [Eh]
                               Psi4 1.9 release
    Molecular point group: c1

    Geometry (in Bohr), charge = -1, multiplicity = 1:

       Center              X                  Y                   Z               Mass
    ------------   -----------------  -----------------  -----------------  -----------------
         F            0.000000000000     0.000000000000     0.000000000000    18.998403162730
         O           -0.751445814336    -1.720440679687     4.955171816035    15.994914619570
         H           -0.526173452646    -0.629171085388     3.488619620755     1.007825032230
         H           -1.792182242314    -3.078645427563     4.232780540878     1.007825032230
         O            0.750245838246     4.609591930294     3.581263444056    15.994914619570
         H            1.621207381387     3.063763834326     3.149995816882     1.007825032230
         H           -0.596257725461     4.098199915401     4.797742511975     1.007825032230
         O            2.703336370417    -4.163263185901    -0.706886072298    15.994914619570
         H            1.516996544473    -2.769123406023    -0.207093196363     1.007825032230
         H            4.088165469675    -4.395599343847     0.436411461687     1.007825032230
         O           -3.983314015604    -2.031570858161    -2.684830282470    15.994914619570
         H           -2.775750675544    -0.988523295131    -1.826828481098     1.007825032230
         H           -5.554651524540    -1.866367220821    -1.651180327463     1.007825032230
         O            2.209645420141     3.628419669791    -3.885830603696    15.994914619570
         H            1.396186353272     2.560977632208    -2.607659536685     1.007825032230
         H            3.294707264118     2.463137062062    -4.687539353517     1.007825032230
         O           -3.413623949741     3.651784243606     0.090585911550    15.994914619570
         H           -2.074896609039     2.421156796185     0.245670065488     1.007825032230
         H           -3.013181535125     5.287196696278     0.847377761095     1.007825032230

  Charge       = -1
  Multiplicity = 1
  Basis Set: AUG-CC-PVTZ
    Blend: AUG-CC-PVTZ
  Basis Set: (AUG-CC-PVTZ AUX)
    Blend: AUG-CC-PVTZ-JKFIT

    Orbital Energies [Eh]
    ---------------------

    Doubly Occupied:

       1A    -26.017172     2A    -20.444945     3A    -20.427757
       4A    -20.412021     5A    -20.402128     6A    -20.393721
       7A    -20.389509     8A     -1.289464     9A     -1.218511
      10A     -1.204477    11A     -1.198777    12A     -1.177686
      13A     -1.171139    14A     -1.168310    15A     -0.585177
      16A     -0.573533    17A     -0.565187    18A     -0.556710
      19A     -0.555727    20A     -0.543621    21A     -0.459462
      22A     -0.457715    23A     -0.440652    24A     -0.429479
      25A     -0.425266    26A     -0.407017    27A     -0.377819
      28A     -0.376406    29A     -0.372167    30A     -0.367962
      31A     -0.357437    32A     -0.355275    33A     -0.342453
      34A     -0.337173    35A     -0.335963

  @DF-RHF Final Energy:  -555.91943442347917

   => Energetics <=

    Nuclear Repulsion Energy =            355.8128539147094784
    One-Electron Energy =               -1491.1889334962140765
    Two-Electron Energy =                 579.4566451580254807
    Total Energy =                       -555.9194344234791743
 Dipole X            :         24.7317432          -24.2970800            0.4346632
 Dipole Y            :        -38.4919140           37.9631711           -0.5287429
 Dipole Z            :        -15.8298079           17.0140906            1.1842827
 Magnitude           :                                                    1.3678548
  Basis Set: (AUG-CC-PVTZ AUX)
    Blend: AUG-CC-PVTZ-RI
	 Reference Energy          =    -555.9194344234791743 [Eh]
	 Singles Energy            =      -0.0000000000000000 [Eh]
	 Same-Spin Energy          =      -0.5042474847581333 [Eh]
	 Opposite-Spin Energy      =      -1.5365277933667478 [Eh]
	 Correlation Energy        =      -2.0407752781248814 [Eh]
	 Total Energy              =    -557.9602097016040716 [Eh]

	 ================> DF-SCS-MP2 Energies <==================
	-----------------------------------------------------------
	 SCS Same-Spin Scale       =       0.3333333333333333 [-]
	 SCS Opposite-Spin Scale   =       1.2000000000000000 [-]
	 SCS Same-Spin Energy      =      -0.1680824949193778 [Eh]
	 SCS Opposite-Spin Energy  =      -1.8438333520400974 [Eh]
	 SCS Correlation Energy    =      -2.0119158469594751 [Eh]
	 SCS Total Energy          =    -557.9313502704386565 [Eh]
	-----------------------------------------------------------

*** Psi4 exiting successfully. Buy a developer a beer!
