                               Psi4 1.9 release

  ==> Input File <==

--------------------------------------------------------------------------
MEMORY 60 GB

molecule dimer {
-1 1
F      0.000000     0.000000     0.000000
--
0 1
O     -2.498532    -0.881431    -0.464596
H     -3.244844    -0.373050    -0.742977
H     -1.787443    -0.231783    -0.439473
O      0.821961    -0.941013    -2.487806
H      0.553219    -0.751966    -1.546993
H      0.984333    -1.880222    -2.681248
O      2.741876     1.268113     0.623068
H      1.805546     0.967787     0.731277
H      2.912001     1.778305     1.404663
O      0.039880    -2.040644     1.862439
H     -0.844297    -2.487575     1.683009
H      0.092425    -1.237739     1.280131
O     -0.422554     1.200836     2.437095
H     -0.724798     2.111332     2.489843
H     -0.282246     0.936943     1.519701

units ang
no_reorient
no_com
symmetry c1
}

set {
basis        aug-cc-pVTZ
scf_type     df
}

energy("mp2", bsse_type="cp")
--------------------------------------------------------------------------

                               Psi4 1.9 release
    Molecular point group: c1
  Charge       = 0
  Multiplicity = 1
  Basis Set: AUG-CC-PVTZ
    Blend: AUG-CC-PVTZ
  Basis Set: (AUG-CC-PVTZ AUX)
    Blend: AUG-CC-PVTZ-JKFIT
  @DF-RHF Final Energy:  -380.27447263067268
    Total Energy =                       -380.2744726306726761
 Dipole X            :        -10.6191637            9.3067953           -1.3123683
 Dipole Y            :         24.3013683          -23.2834668            1.0179015
 Dipole Z            :        -36.8355219           36.7731879           -0.0623340
 Magnitude           :                                                    1.6620228
  Basis Set: (AUG-CC-PVTZ AUX)
    Blend: AUG-CC-PVTZ-RI
	 Reference Energy          =    -380.2744726306726761 [Eh]
	 Singles Energy            =      -0.0000000000000000 [Eh]
	 Same-Spin Energy          =      -0.3451739909157310 [Eh]
	 Opposite-Spin Energy      =      -1.0860553814883191 [Eh]
	 Correlation Energy        =      -1.4312293724040501 [Eh]
	 Total Energy              =    -381.7057020030767376 [Eh]
	 SCS Total Energy          =    -381.6927970854305840 [Eh]
                               Psi4 1.9 release
    Molecular point group: c1
  Multiplicity = 1
  Basis Set: AUG-CC-PVTZ
    Blend: AUG-CC-PVTZ
  Basis Set: (AUG-CC-PVTZ AUX)
    Blend: AUG-CC-PVTZ-JKFIT
  @DF-RHF Final Energy:   -99.45110812327884
    Total Energy =                        -99.4511081232788570
  Basis Set: (AUG-CC-PVTZ AUX)
	 Singles Energy            =      -0.0000000000000000 [Eh]
	 Same-Spin Energy          =      -0.0820507809001932 [Eh]
	 Opposite-Spin Energy      =      -0.2301253817158728 [Eh]
	 Correlation Energy        =      -0.3121761626160660 [Eh]
	 Total Energy              =     -99.7632842858949118 [Eh]
	 SCS Total Energy          =     -99.7546088416379604 [Eh]
                               Psi4 1.9 release
    Molecular point group: c1

    Geometry (in Bohr), charge = -1, multiplicity = 1:

       Center              X                  Y                   Z               Mass
    ------------   -----------------  -----------------  -----------------  -----------------
         F            0.000000000000     0.000000000000     0.000000000000    18.998403162730
         O           -4.721541195692    -1.665663188488    -0.877959198983    15.994914619570
         H           -6.131866479835    -0.704962331102    -1.404023047514     1.007825032230
         H           -3.377777734867    -0.438006390537    -0.830483609533     1.007825032230
         O            1.553281175807    -1.778256850495    -4.701271993271    15.994914619570
         H            1.045432397400    -1.421009795656    -2.923393088000     1.007825032230
         H            1.860119786250    -3.553104635061    -5.066824394432     1.007825032230
         O            5.181394709966     2.396386266133     1.177427877537    15.994914619570
         H            3.411987446916     1.828852377778     1.381913251846     1.007825032230
         H            5.502884367059     3.360509417532     2.654428368564     1.007825032230
         O            0.075362277883    -3.856258279559     3.519499635372    15.994914619570
         H           -1.595490098546    -4.700835466536     3.180426076681     1.007825032230
         H            0.174657937145    -2.338987724798     2.419096994708     1.007825032230
         O           -0.798511333217     2.269251161590     4.605442091723    15.994914619570
         H           -1.369669716280     3.989839239915     4.705121365388     1.007825032230
         H           -0.533367640006     1.770565665165     2.871818682584     1.007825032230

  Charge       = -1
  Multiplicity = 1
  Basis Set: AUG-CC-PVTZ
    Blend: AUG-CC-PVTZ
  Basis Set: (AUG-CC-PVTZ AUX)
    Blend: AUG-CC-PVTZ-JKFIT

    Orbital Energies [Eh]
    ---------------------

    Doubly Occupied:

       1A    -25.988755     2A    -20.414475     3A    -20.406236
       4A    -20.405834     5A    -20.388668     6A    -20.381934
       7A     -1.256328     8A     -1.197526     9A     -1.195088
      10A     -1.190699    11A     -1.158901    12A     -1.144364
      13A     -0.577755    14A     -0.562617    15A     -0.556219
      16A     -0.548374    17A     -0.519921    18A     -0.436414
      19A     -0.433936    20A     -0.422601    21A     -0.399529
      22A     -0.395218    23A     -0.357506    24A     -0.357213
      25A     -0.353854    26A     -0.346240    27A     -0.341279
      28A     -0.337731    29A     -0.329796    30A     -0.319573

  @DF-RHF Final Energy:  -479.84900715455888

   => Energetics <=

    Nuclear Repulsion Energy =            261.0545287234093053
    One-Electron Energy =               -1196.3578974605152325
    Two-Electron Energy =                 455.4543615825471079
    Total Energy =                       -479.8490071545588762
 Dipole X            :        -10.5334709            9.3067953           -1.2266755
 Dipole Y            :         24.5739336          -23.2834668            1.2904669
 Dipole Z            :        -37.1283447           36.7731879           -0.3551568
 Magnitude           :                                                    1.8155368
  Basis Set: (AUG-CC-PVTZ AUX)
    Blend: AUG-CC-PVTZ-RI
	 Reference Energy          =    -479.8490071545588762 [Eh]
	 Singles Energy            =      -0.0000000000000000 [Eh]
	 Same-Spin Energy          =      -0.4330309802242983 [Eh]
	 Opposite-Spin Energy      =      -1.3163596790952252 [Eh]
	 Correlation Energy        =      -1.7493906593195234 [Eh]
	 Total Energy              =    -481.5983978138784209 [Eh]

	 ================> DF-SCS-MP2 Energies <==================
	-----------------------------------------------------------
	 SCS Same-Spin Scale       =       0.3333333333333333 [-]
	 SCS Opposite-Spin Scale   =       1.2000000000000000 [-]
	 SCS Same-Spin Energy      =      -0.1443436600747661 [Eh]
	 SCS Opposite-Spin Energy  =      -1.5796316149142702 [Eh]
	 SCS Correlation Energy    =      -1.7239752749890362 [Eh]
	 SCS Total Energy          =    -481.5729824295478920 [Eh]
	-----------------------------------------------------------

*** Psi4 exiting successfully. Buy a developer a beer!
