                               Psi4 1.8.2 release

  ==> Input File <==

--------------------------------------------------------------------------
MEMORY 60 GB

molecule dimer {
0 1
Gh(F)      0.000000     0.000000     0.000000
Gh(O)     -0.952365     1.069811     2.420031
Gh(H)     -1.809142     1.433385     2.206942
Gh(H)     -0.677213     0.589182     1.599917
O         -2.646160    -0.758425    -0.155469
H         -1.673478    -0.567133     0.114755
H         -2.882933    -1.589745     0.287001
Gh(O)     -0.629425     1.382429    -2.327001
Gh(H)     -0.579909     1.003938    -1.422959
Gh(H)     -1.177112     2.140621    -2.269006
Gh(O)      2.229730     1.512680     0.749307
Gh(H)      1.907904     1.873311     1.582375
Gh(H)      1.496351     0.913088     0.515515
Gh(O)      0.351042    -2.383392     1.594232
Gh(H)     -0.034028    -1.661486     0.966528
Gh(H)      1.180438    -2.089714     1.976787

units ang
no_reorient
no_com
symmetry c1
}

set {
basis        aug-cc-pVTZ
scf_type     df
}

energy("mp2")
--------------------------------------------------------------------------

    Molecular point group: c1

    Geometry (in Angstrom), charge = 0, multiplicity = 1:

       Center              X                  Y                   Z               Mass
    ------------   -----------------  -----------------  -----------------  -----------------
      Gh(F)           0.000000000000     0.000000000000     0.000000000000    18.998403162730
      Gh(O)          -0.952365000000     1.069811000000     2.420031000000    15.994914619570
      Gh(H)          -1.809142000000     1.433385000000     2.206942000000     1.007825032230
      Gh(H)          -0.677213000000     0.589182000000     1.599917000000     1.007825032230
         O           -2.646160000000    -0.758425000000    -0.155469000000    15.994914619570
         H           -1.673478000000    -0.567133000000     0.114755000000     1.007825032230
         H           -2.882933000000    -1.589745000000     0.287001000000     1.007825032230
      Gh(O)          -0.629425000000     1.382429000000    -2.327001000000    15.994914619570
      Gh(H)          -0.579909000000     1.003938000000    -1.422959000000     1.007825032230
      Gh(H)          -1.177112000000     2.140621000000    -2.269006000000     1.007825032230
      Gh(O)           2.229730000000     1.512680000000     0.749307000000    15.994914619570
      Gh(H)           1.907904000000     1.873311000000     1.582375000000     1.007825032230
      Gh(H)           1.496351000000     0.913088000000     0.515515000000     1.007825032230
      Gh(O)           0.351042000000    -2.383392000000     1.594232000000    15.994914619570
      Gh(H)          -0.034028000000    -1.661486000000     0.966528000000     1.007825032230
      Gh(H)           1.180438000000    -2.089714000000     1.976787000000     1.007825032230

  Charge       = 0
  Multiplicity = 1
  Basis Set: AUG-CC-PVTZ
    Blend: AUG-CC-PVTZ
  Basis Set: (AUG-CC-PVTZ AUX)
    Blend: AUG-CC-PVTZ-JKFIT

    Orbital Energies [Eh]
    ---------------------

    Doubly Occupied:

       1A    -20.573582     2A     -1.332805     3A     -0.697740
       4A     -0.574255     5A     -0.506739

  @DF-RHF Final Energy:   -76.05352861961347

   => Energetics <=

    Nuclear Repulsion Energy =              8.8119698211995257
    One-Electron Energy =                -122.3607487063369774
    Two-Electron Energy =                  37.4952502655239712
    Total Energy =                        -76.0535286196134734
 Dipole X            :         49.0866211          -48.6145104            0.4721108
 Dipole Y            :         15.1193102          -15.5416330           -0.4223228
 Dipole Z            :          2.0558281           -1.5911418            0.4646863
 Magnitude           :                                                    0.7856070
  Basis Set: (AUG-CC-PVTZ AUX)
    Blend: AUG-CC-PVTZ-RI
	 Reference Energy          =     -76.0535286196134734 [Eh]
	 Singles Energy            =      -0.0000000000000000 [Eh]
	 Same-Spin Energy          =      -0.0691166692139525 [Eh]
	 Opposite-Spin Energy      =      -0.2183418067724840 [Eh]
	 Correlation Energy        =      -0.2874584759864365 [Eh]
	 Total Energy              =     -76.3409870955999139 [Eh]

	 ================> DF-SCS-MP2 Energies <==================
	-----------------------------------------------------------
	 SCS Same-Spin Scale       =       0.3333333333333333 [-]
	 SCS Opposite-Spin Scale   =       1.2000000000000000 [-]
	 SCS Same-Spin Energy      =      -0.0230388897379842 [Eh]
	 SCS Opposite-Spin Energy  =      -0.2620101681269809 [Eh]
	 SCS Correlation Energy    =      -0.2850490578649650 [Eh]
	 SCS Total Energy          =     -76.3385776774784404 [Eh]
	-----------------------------------------------------------

*** Psi4 exiting successfully. Buy a developer a beer!
