                               Psi4 1.8.2 release

  ==> Input File <==

--------------------------------------------------------------------------
MEMORY 60 GB

molecule dimer {
0 1
Gh(F)      0.000000     0.000000     0.000000
Gh(O)     -1.321441     0.970764    -2.225812
Gh(H)     -0.992916     0.400039    -2.920581
Gh(H)     -0.802183     0.568251    -1.489213
Gh(O)      2.432565     0.546593    -1.243689
Gh(H)      1.612306     0.359837    -0.841379
Gh(H)      3.048573     0.013676    -0.665711
Gh(O)      1.240147    -0.379821     2.518952
Gh(H)      0.671240    -0.081223     1.806606
Gh(H)      1.223288     0.336111     3.147064
O         -2.197900     1.504597     0.957569
H         -1.493668     1.001179     0.522195
H         -2.471022     2.300322     0.431031
Gh(O)      0.087719    -2.460204    -1.250966
Gh(H)      0.036346    -1.654206    -0.668350
Gh(H)      0.899697    -2.835357    -1.025072

units ang
no_reorient
no_com
symmetry c1
}

set {
basis        aug-cc-pVTZ
scf_type     df
}

energy("mp2")
--------------------------------------------------------------------------

    Molecular point group: c1

    Geometry (in Angstrom), charge = 0, multiplicity = 1:

       Center              X                  Y                   Z               Mass
    ------------   -----------------  -----------------  -----------------  -----------------
      Gh(F)           0.000000000000     0.000000000000     0.000000000000    18.998403162730
      Gh(O)          -1.321441000000     0.970764000000    -2.225812000000    15.994914619570
      Gh(H)          -0.992916000000     0.400039000000    -2.920581000000     1.007825032230
      Gh(H)          -0.802183000000     0.568251000000    -1.489213000000     1.007825032230
      Gh(O)           2.432565000000     0.546593000000    -1.243689000000    15.994914619570
      Gh(H)           1.612306000000     0.359837000000    -0.841379000000     1.007825032230
      Gh(H)           3.048573000000     0.013676000000    -0.665711000000     1.007825032230
      Gh(O)           1.240147000000    -0.379821000000     2.518952000000    15.994914619570
      Gh(H)           0.671240000000    -0.081223000000     1.806606000000     1.007825032230
      Gh(H)           1.223288000000     0.336111000000     3.147064000000     1.007825032230
         O           -2.197900000000     1.504597000000     0.957569000000    15.994914619570
         H           -1.493668000000     1.001179000000     0.522195000000     1.007825032230
         H           -2.471022000000     2.300322000000     0.431031000000     1.007825032230
      Gh(O)           0.087719000000    -2.460204000000    -1.250966000000    15.994914619570
      Gh(H)           0.036346000000    -1.654206000000    -0.668350000000     1.007825032230
      Gh(H)           0.899697000000    -2.835357000000    -1.025072000000     1.007825032230

  Charge       = 0
  Multiplicity = 1
  Basis Set: AUG-CC-PVTZ
    Blend: AUG-CC-PVTZ
  Basis Set: (AUG-CC-PVTZ AUX)
    Blend: AUG-CC-PVTZ-JKFIT

    Orbital Energies [Eh]
    ---------------------

    Doubly Occupied:

       1A    -20.567458     2A     -1.336724     3A     -0.718609
       4A     -0.565614     5A     -0.505997

  @DF-RHF Final Energy:   -76.05655483995240

   => Energetics <=

    Nuclear Repulsion Energy =              8.9594267519069124
    One-Electron Energy =                -122.6431546331565556
    Two-Electron Energy =                  37.6271730412972403
    Total Energy =                        -76.0565548399523976
 Dipole X            :         41.0110352          -40.7196107            0.2914245
 Dipole Y            :        -28.7915425           28.9851428            0.1936003
 Dipole Z            :        -16.9237136           16.2776813           -0.6460322
 Magnitude           :                                                    0.7346883
  Basis Set: (AUG-CC-PVTZ AUX)
    Blend: AUG-CC-PVTZ-RI
	 Reference Energy          =     -76.0565548399523976 [Eh]
	 Singles Energy            =      -0.0000000000000000 [Eh]
	 Same-Spin Energy          =      -0.0687264496975481 [Eh]
	 Opposite-Spin Energy      =      -0.2170080506617628 [Eh]
	 Correlation Energy        =      -0.2857345003593109 [Eh]
	 Total Energy              =     -76.3422893403117087 [Eh]

	 ================> DF-SCS-MP2 Energies <==================
	-----------------------------------------------------------
	 SCS Same-Spin Scale       =       0.3333333333333333 [-]
	 SCS Opposite-Spin Scale   =       1.2000000000000000 [-]
	 SCS Same-Spin Energy      =      -0.0229088165658494 [Eh]
	 SCS Opposite-Spin Energy  =      -0.2604096607941154 [Eh]
	 SCS Correlation Energy    =      -0.2833184773599647 [Eh]
	 SCS Total Energy          =     -76.3398733173123674 [Eh]
	-----------------------------------------------------------

*** Psi4 exiting successfully. Buy a developer a beer!
