                               Psi4 1.9 release

  ==> Input File <==

--------------------------------------------------------------------------
MEMORY 60 GB

molecule dimer {
-1 1
F      0.000000     0.000000     0.000000
--
0 1
O     -0.457010    -0.913459     2.874606
H     -0.306480    -0.682030     1.919254
H      0.333257    -0.768961     3.330802
O     -1.736364     1.604014    -1.591024
H     -1.392750     1.031544    -0.917866
H     -2.603083     1.329404    -1.841321
O      0.819239     2.289400     1.312707
H      0.597058     2.285995     2.245025
H      0.522724     1.425126     0.938345
O      2.214721     0.612757    -1.586063
H      1.959488     0.830819    -2.501662
H      1.438663     0.411088    -1.114963
O     -1.059183    -2.036592    -1.488676
H     -0.695984    -1.884564    -2.350649
H     -0.551134    -1.260861    -1.152770

units ang
no_reorient
no_com
symmetry c1
}

set {
basis        aug-cc-pVTZ
scf_type     df
}

energy("mp2", bsse_type="cp")
--------------------------------------------------------------------------

                               Psi4 1.9 release
    Molecular point group: c1
  Charge       = 0
  Multiplicity = 1
  Basis Set: AUG-CC-PVTZ
    Blend: AUG-CC-PVTZ
  Basis Set: (AUG-CC-PVTZ AUX)
    Blend: AUG-CC-PVTZ-JKFIT
  @DF-RHF Final Energy:  -380.27565902998020
    Total Energy =                       -380.2756590299802042
 Dipole X            :          4.4115898           -4.6241920           -0.2126022
 Dipole Y            :        -28.8931641           28.6605691           -0.2325951
 Dipole Z            :          9.6520426           -9.9652912           -0.3132486
 Magnitude           :                                                    0.4443252
  Basis Set: (AUG-CC-PVTZ AUX)
    Blend: AUG-CC-PVTZ-RI
	 Reference Energy          =    -380.2756590299802042 [Eh]
	 Singles Energy            =      -0.0000000000000000 [Eh]
	 Same-Spin Energy          =      -0.3442341241808852 [Eh]
	 Opposite-Spin Energy      =      -1.0835565797587288 [Eh]
	 Correlation Energy        =      -1.4277907039396140 [Eh]
	 Total Energy              =    -381.7034497339197969 [Eh]
	 SCS Total Energy          =    -381.6906716337509806 [Eh]
                               Psi4 1.9 release
    Molecular point group: c1
  Multiplicity = 1
  Basis Set: AUG-CC-PVTZ
    Blend: AUG-CC-PVTZ
  Basis Set: (AUG-CC-PVTZ AUX)
    Blend: AUG-CC-PVTZ-JKFIT
  @DF-RHF Final Energy:   -99.45110863627539
    Total Energy =                        -99.4511086362753929
  Basis Set: (AUG-CC-PVTZ AUX)
	 Singles Energy            =      -0.0000000000000000 [Eh]
	 Same-Spin Energy          =      -0.0820480194280316 [Eh]
	 Opposite-Spin Energy      =      -0.2300490701337611 [Eh]
	 Correlation Energy        =      -0.3120970895617928 [Eh]
	 Total Energy              =     -99.7632057258371816 [Eh]
	 SCS Total Energy          =     -99.7545168602452463 [Eh]
                               Psi4 1.9 release
    Molecular point group: c1

    Geometry (in Bohr), charge = -1, multiplicity = 1:

       Center              X                  Y                   Z               Mass
    ------------   -----------------  -----------------  -----------------  -----------------
         F            0.000000000000     0.000000000000     0.000000000000    18.998403162730
         O           -0.863623736595    -1.726187336835     5.432218058598    15.994914619570
         H           -0.579163262930    -1.288849909346     3.626864425189     1.007825032230
         H            0.629764459392    -1.453125691158     6.294303558127     1.007825032230
         O           -3.281252414104     3.031147161400    -3.006599619030    15.994914619570
         H           -2.631916061231     1.949335646359    -1.734515359869     1.007825032230
         H           -4.919113951835     2.512209470088    -3.479592399054     1.007825032230
         O            1.548137341294     4.326338991623     2.480656712971    15.994914619570
         H            1.128276101014     4.319904474166     4.242482394806     1.007825032230
         H            0.987805199204     2.693097834269     1.773215061193     1.007825032230
         O            4.185216134300     1.157942911457    -2.997224687722    15.994914619570
         H            3.702895666121     1.570020369827    -4.727456038465     1.007825032230
         H            2.718679056830     0.776843733462    -2.106974710019     1.007825032230
         O           -2.001565786741    -3.848601109298    -2.813189929542    15.994914619570
         H           -1.315219147701    -3.561309825897    -4.442082827081     1.007825032230
         H           -1.041492318428    -2.382681972271    -2.178419585644     1.007825032230

  Charge       = -1
  Multiplicity = 1
  Basis Set: AUG-CC-PVTZ
    Blend: AUG-CC-PVTZ
  Basis Set: (AUG-CC-PVTZ AUX)
    Blend: AUG-CC-PVTZ-JKFIT

    Orbital Energies [Eh]
    ---------------------

    Doubly Occupied:

       1A    -25.992815     2A    -20.416060     3A    -20.406163
       4A    -20.405261     5A    -20.398264     6A    -20.393123
       7A     -1.259252     8A     -1.204751     9A     -1.201049
      10A     -1.195773    11A     -1.189413    12A     -1.172727
      13A     -0.582602    14A     -0.577390    15A     -0.566203
      16A     -0.548748    17A     -0.520684    18A     -0.457780
      19A     -0.437249    20A     -0.427184    21A     -0.421846
      22A     -0.413696    23A     -0.363773    24A     -0.361469
      25A     -0.354774    26A     -0.350203    27A     -0.347103
      28A     -0.346657    29A     -0.340428    30A     -0.335159

  @DF-RHF Final Energy:  -479.85626437992192

   => Energetics <=

    Nuclear Repulsion Energy =            258.8797768174825364
    One-Electron Energy =               -1191.4968788577066334
    Two-Electron Energy =                 452.7608376603022293
    Total Energy =                       -479.8562643799219245
 Dipole X            :          4.4245827           -4.6241920           -0.1996093
 Dipole Y            :        -29.1155805           28.6605691           -0.4550114
 Dipole Z            :          9.7823519           -9.9652912           -0.1829393
 Magnitude           :                                                    0.5294772
  Basis Set: (AUG-CC-PVTZ AUX)
    Blend: AUG-CC-PVTZ-RI
	 Reference Energy          =    -479.8562643799219245 [Eh]
	 Singles Energy            =      -0.0000000000000000 [Eh]
	 Same-Spin Energy          =      -0.4315522237032432 [Eh]
	 Opposite-Spin Energy      =      -1.3129701414253006 [Eh]
	 Correlation Energy        =      -1.7445223651285438 [Eh]
	 Total Energy              =    -481.6007867450504705 [Eh]

	 ================> DF-SCS-MP2 Energies <==================
	-----------------------------------------------------------
	 SCS Same-Spin Scale       =       0.3333333333333333 [-]
	 SCS Opposite-Spin Scale   =       1.2000000000000000 [-]
	 SCS Same-Spin Energy      =      -0.1438507412344144 [Eh]
	 SCS Opposite-Spin Energy  =      -1.5755641697103606 [Eh]
	 SCS Correlation Energy    =      -1.7194149109447749 [Eh]
	 SCS Total Energy          =    -481.5756792908666739 [Eh]
	-----------------------------------------------------------

*** Psi4 exiting successfully. Buy a developer a beer!
