                               Psi4 1.8.2 release

  ==> Input File <==

--------------------------------------------------------------------------
MEMORY 60 GB

molecule dimer {
-1 1
F          0.000000     0.000000     0.000000
O         -1.757669     1.731762    -1.188806
H         -1.054100     1.222666    -0.807146
H         -2.431703     1.051578    -1.257114
O         -0.820887    -1.641481    -2.008204
H         -0.237360    -2.357330    -2.347688
H         -0.248955    -1.123146    -1.330694
O         -0.048245    -2.492875     1.400940
H         -0.330918    -3.382914     1.097712
H         -0.433577    -1.797270     0.832638
O         -0.132776     0.799660     2.598069
H          0.795625     0.856029     2.802210
H         -0.046890     0.411235     1.712879
O          1.613949     1.493049    -1.711417
H          1.268428     1.014021    -0.937188
H          2.504434     1.668752    -1.471379

units ang
no_reorient
no_com
symmetry c1
}

set {
basis        aug-cc-pVTZ
scf_type     df
}

energy("mp2")
--------------------------------------------------------------------------

    Molecular point group: c1

    Geometry (in Angstrom), charge = -1, multiplicity = 1:

       Center              X                  Y                   Z               Mass
    ------------   -----------------  -----------------  -----------------  -----------------
         F            0.000000000000     0.000000000000     0.000000000000    18.998403162730
         O           -1.757669000000     1.731762000000    -1.188806000000    15.994914619570
         H           -1.054100000000     1.222666000000    -0.807146000000     1.007825032230
         H           -2.431703000000     1.051578000000    -1.257114000000     1.007825032230
         O           -0.820887000000    -1.641481000000    -2.008204000000    15.994914619570
         H           -0.237360000000    -2.357330000000    -2.347688000000     1.007825032230
         H           -0.248955000000    -1.123146000000    -1.330694000000     1.007825032230
         O           -0.048245000000    -2.492875000000     1.400940000000    15.994914619570
         H           -0.330918000000    -3.382914000000     1.097712000000     1.007825032230
         H           -0.433577000000    -1.797270000000     0.832638000000     1.007825032230
         O           -0.132776000000     0.799660000000     2.598069000000    15.994914619570
         H            0.795625000000     0.856029000000     2.802210000000     1.007825032230
         H           -0.046890000000     0.411235000000     1.712879000000     1.007825032230
         O            1.613949000000     1.493049000000    -1.711417000000    15.994914619570
         H            1.268428000000     1.014021000000    -0.937188000000     1.007825032230
         H            2.504434000000     1.668752000000    -1.471379000000     1.007825032230

  Charge       = -1
  Multiplicity = 1
  Basis Set: AUG-CC-PVTZ
    Blend: AUG-CC-PVTZ
  Basis Set: (AUG-CC-PVTZ AUX)
    Blend: AUG-CC-PVTZ-JKFIT

    Orbital Energies [Eh]
    ---------------------

    Doubly Occupied:

       1A    -25.995368     2A    -20.416883     3A    -20.408483
       4A    -20.404408     5A    -20.389704     6A    -20.376703
       7A     -1.265144     8A     -1.195570     9A     -1.188803
      10A     -1.180126    11A     -1.170277    12A     -1.168989
      13A     -0.570791    14A     -0.559187    15A     -0.542665
      16A     -0.527805    17A     -0.526556    18A     -0.434688
      19A     -0.433475    20A     -0.426132    21A     -0.421034
      22A     -0.416248    23A     -0.361903    24A     -0.356696
      25A     -0.353759    26A     -0.346845    27A     -0.344810
      28A     -0.343553    29A     -0.333602    30A     -0.324061

  @DF-RHF Final Energy:  -479.85095092619338

   => Energetics <=

    Nuclear Repulsion Energy =            264.2257959592735688
    One-Electron Energy =               -1202.5849493371977132
    Two-Electron Energy =                 458.5082024517307673
    Total Energy =                       -479.8509509261933772
 Dipole X            :         19.1851006          -17.7257066            1.4593939
 Dipole Y            :          4.8701293           -6.2653095           -1.3951802
 Dipole Z            :         17.1492839          -16.9718458            0.1774382
 Magnitude           :                                                    2.0267814
  Basis Set: (AUG-CC-PVTZ AUX)
    Blend: AUG-CC-PVTZ-RI
	 Reference Energy          =    -479.8509509261933772 [Eh]
	 Singles Energy            =      -0.0000000000000000 [Eh]
	 Same-Spin Energy          =      -0.4335430528736472 [Eh]
	 Opposite-Spin Energy      =      -1.3167783770459767 [Eh]
	 Correlation Energy        =      -1.7503214299196239 [Eh]
	 Total Energy              =    -481.6012723561129860 [Eh]

	 ================> DF-SCS-MP2 Energies <==================
	-----------------------------------------------------------
	 SCS Same-Spin Scale       =       0.3333333333333333 [-]
	 SCS Opposite-Spin Scale   =       1.2000000000000000 [-]
	 SCS Same-Spin Energy      =      -0.1445143509578824 [Eh]
	 SCS Opposite-Spin Energy  =      -1.5801340524551719 [Eh]
	 SCS Correlation Energy    =      -1.7246484034130543 [Eh]
	 SCS Total Energy          =    -481.5755993296064048 [Eh]
	-----------------------------------------------------------

*** Psi4 exiting successfully. Buy a developer a beer!
