                               Psi4 1.9 release

  ==> Input File <==

--------------------------------------------------------------------------
MEMORY 60 GB

molecule dimer {
-1 1
F      0.000000     0.000000     0.000000
--
0 1
O      1.971504     0.778934    -2.233992
H      1.421744     0.533620    -1.441250
H      1.572619     1.611941    -2.531674
O     -1.476799    -0.971779     2.173047
H     -0.763475    -0.799020     1.503018
H     -2.272405    -1.219825     1.750427
O      0.333062    -2.976735    -0.174837
H     -0.098199    -2.079413    -0.145803
H      0.476164    -3.295494    -1.075675
O     -1.184434    -0.992125    -2.284703
H     -0.442796    -1.357866    -2.756262
H     -0.749991    -0.519603    -1.515135
O     -1.475690     2.261424    -0.261281
H     -0.726698     1.695967    -0.017738
H     -1.859554     2.591371     0.552832

units ang
no_reorient
no_com
symmetry c1
}

set {
basis        aug-cc-pVTZ
scf_type     df
}

energy("mp2", bsse_type="cp")
--------------------------------------------------------------------------

                               Psi4 1.9 release
    Molecular point group: c1
  Charge       = 0
  Multiplicity = 1
  Basis Set: AUG-CC-PVTZ
    Blend: AUG-CC-PVTZ
  Basis Set: (AUG-CC-PVTZ AUX)
    Blend: AUG-CC-PVTZ-JKFIT
  @DF-RHF Final Energy:  -380.27492838154473
    Total Energy =                       -380.2749283815447257
 Dipole X            :         34.2428468          -34.2067773            0.0360695
 Dipole Y            :         34.7100325          -34.0917364            0.6182960
 Dipole Z            :         52.6001351          -52.7826736           -0.1825386
 Magnitude           :                                                    0.6456867
  Basis Set: (AUG-CC-PVTZ AUX)
    Blend: AUG-CC-PVTZ-RI
	 Reference Energy          =    -380.2749283815447257 [Eh]
	 Singles Energy            =      -0.0000000000000000 [Eh]
	 Same-Spin Energy          =      -0.3456359140496923 [Eh]
	 Opposite-Spin Energy      =      -1.0866300149404540 [Eh]
	 Correlation Energy        =      -1.4322659289901463 [Eh]
	 Total Energy              =    -381.7071943105348737 [Eh]
	 SCS Total Energy          =    -381.6940963708231607 [Eh]
                               Psi4 1.9 release
    Molecular point group: c1
  Multiplicity = 1
  Basis Set: AUG-CC-PVTZ
    Blend: AUG-CC-PVTZ
  Basis Set: (AUG-CC-PVTZ AUX)
    Blend: AUG-CC-PVTZ-JKFIT
  @DF-RHF Final Energy:   -99.45109802161900
    Total Energy =                        -99.4510980216190035
  Basis Set: (AUG-CC-PVTZ AUX)
	 Singles Energy            =      -0.0000000000000000 [Eh]
	 Same-Spin Energy          =      -0.0820119763408291 [Eh]
	 Opposite-Spin Energy      =      -0.2297017707778915 [Eh]
	 Correlation Energy        =      -0.3117137471187207 [Eh]
	 Total Energy              =     -99.7628117687377198 [Eh]
	 SCS Total Energy          =     -99.7540774719994232 [Eh]
                               Psi4 1.9 release
    Molecular point group: c1

    Geometry (in Bohr), charge = -1, multiplicity = 1:

       Center              X                  Y                   Z               Mass
    ------------   -----------------  -----------------  -----------------  -----------------
         F            0.000000000000     0.000000000000     0.000000000000    18.998403162730
         O            3.725602615245     1.471971929807    -4.221633046464    15.994914619570
         H            2.686706780513     1.008395655067    -2.723567778316     1.007825032230
         H            2.971819209691     3.046127020397    -4.784170498942     1.007825032230
         O           -2.790745652350    -1.836396164471     4.106463687748    15.994914619570
         H           -1.442758653634    -1.509928968763     2.840292381633     1.007825032230
         H           -4.294223096121    -2.305135170987     3.307827632607     1.007825032230
         O            0.629395962797    -5.625213898065    -0.330394046597    15.994914619570
         H           -0.185569215794    -3.929521071717    -0.275527738270     1.007825032230
         H            0.899819550803    -6.227581108090    -2.032731150002     1.007825032230
         O           -2.238255873681    -1.874844532220    -4.317462948012    15.994914619570
         H           -0.836763169448    -2.565994855071    -5.208580310007     1.007825032230
         H           -1.417277586558    -0.981907363966    -2.863190193096     1.007825032230
         O           -2.788649946077     4.273472013537    -0.493749531786    15.994914619570
         H           -1.373260195918     3.204913147814    -0.033519962013     1.007825032230
         H           -3.514047775500     4.896981479454     1.044701073389     1.007825032230

  Charge       = -1
  Multiplicity = 1
  Basis Set: AUG-CC-PVTZ
    Blend: AUG-CC-PVTZ
  Basis Set: (AUG-CC-PVTZ AUX)
    Blend: AUG-CC-PVTZ-JKFIT

    Orbital Energies [Eh]
    ---------------------

    Doubly Occupied:

       1A    -25.990172     2A    -20.424553     3A    -20.410953
       4A    -20.402033     5A    -20.398045     6A    -20.395378
       7A     -1.254832     8A     -1.196978     9A     -1.186329
      10A     -1.183423    11A     -1.180998    12A     -1.177391
      13A     -0.571481    14A     -0.561930    15A     -0.560858
      16A     -0.557210    17A     -0.541228    18A     -0.444375
      19A     -0.433395    20A     -0.423509    21A     -0.418382
      22A     -0.411594    23A     -0.365664    24A     -0.360167
      25A     -0.353812    26A     -0.346918    27A     -0.346239
      28A     -0.338398    29A     -0.337384    30A     -0.334134

  @DF-RHF Final Energy:  -479.85237873597674

   => Energetics <=

    Nuclear Repulsion Energy =            261.7060804898398487
    One-Electron Energy =               -1197.3013823240862621
    Two-Electron Energy =                 455.7429230982696140
    Total Energy =                       -479.8523787359767425
 Dipole X            :         34.6278013          -34.2067773            0.4210240
 Dipole Y            :         34.9175461          -34.0917364            0.8258096
 Dipole Z            :         53.0159491          -52.7826736            0.2332755
 Magnitude           :                                                    0.9558453
  Basis Set: (AUG-CC-PVTZ AUX)
    Blend: AUG-CC-PVTZ-RI
	 Reference Energy          =    -479.8523787359767425 [Eh]
	 Singles Energy            =      -0.0000000000000000 [Eh]
	 Same-Spin Energy          =      -0.4326692755902339 [Eh]
	 Opposite-Spin Energy      =      -1.3152872777630622 [Eh]
	 Correlation Energy        =      -1.7479565533532961 [Eh]
	 Total Energy              =    -481.6003352893300189 [Eh]

	 ================> DF-SCS-MP2 Energies <==================
	-----------------------------------------------------------
	 SCS Same-Spin Scale       =       0.3333333333333333 [-]
	 SCS Opposite-Spin Scale   =       1.2000000000000000 [-]
	 SCS Same-Spin Energy      =      -0.1442230918634113 [Eh]
	 SCS Opposite-Spin Energy  =      -1.5783447333156746 [Eh]
	 SCS Correlation Energy    =      -1.7225678251790859 [Eh]
	 SCS Total Energy          =    -481.5749465611558549 [Eh]
	-----------------------------------------------------------

*** Psi4 exiting successfully. Buy a developer a beer!
