                               Psi4 1.8.2 release

  ==> Input File <==

--------------------------------------------------------------------------
MEMORY 60 GB

molecule dimer {
0 1
Gh(F)      0.000000     0.000000     0.000000
Gh(O)     -1.634092    -2.280820    -0.139745
Gh(H)     -2.469094    -2.598153    -0.454292
Gh(H)     -1.459954    -1.358967    -0.387524
Gh(O)      2.308208    -1.014352     1.406738
Gh(H)      2.138362    -1.947872     1.369305
Gh(H)      1.553052    -0.587244     0.905967
Gh(O)     -0.221383     0.329741     2.737359
Gh(H)     -0.415990     0.182845     1.824673
Gh(H)      0.050573     1.283931     2.640379
O          1.357013    -0.222007    -2.440875
H          1.051868    -0.181679    -1.581215
H          0.660440    -0.731668    -2.801612
Gh(O)     -1.883257     1.778764    -0.837831
Gh(H)     -1.474462     2.655647    -0.726004
Gh(H)     -1.106142     1.188873    -0.668005

units ang
no_reorient
no_com
symmetry c1
}

set {
basis        aug-cc-pVTZ
scf_type     df
}

energy("mp2")
--------------------------------------------------------------------------

    Molecular point group: c1

    Geometry (in Angstrom), charge = 0, multiplicity = 1:

       Center              X                  Y                   Z               Mass
    ------------   -----------------  -----------------  -----------------  -----------------
      Gh(F)           0.000000000000     0.000000000000     0.000000000000    18.998403162730
      Gh(O)          -1.634092000000    -2.280820000000    -0.139745000000    15.994914619570
      Gh(H)          -2.469094000000    -2.598153000000    -0.454292000000     1.007825032230
      Gh(H)          -1.459954000000    -1.358967000000    -0.387524000000     1.007825032230
      Gh(O)           2.308208000000    -1.014352000000     1.406738000000    15.994914619570
      Gh(H)           2.138362000000    -1.947872000000     1.369305000000     1.007825032230
      Gh(H)           1.553052000000    -0.587244000000     0.905967000000     1.007825032230
      Gh(O)          -0.221383000000     0.329741000000     2.737359000000    15.994914619570
      Gh(H)          -0.415990000000     0.182845000000     1.824673000000     1.007825032230
      Gh(H)           0.050573000000     1.283931000000     2.640379000000     1.007825032230
         O            1.357013000000    -0.222007000000    -2.440875000000    15.994914619570
         H            1.051868000000    -0.181679000000    -1.581215000000     1.007825032230
         H            0.660440000000    -0.731668000000    -2.801612000000     1.007825032230
      Gh(O)          -1.883257000000     1.778764000000    -0.837831000000    15.994914619570
      Gh(H)          -1.474462000000     2.655647000000    -0.726004000000     1.007825032230
      Gh(H)          -1.106142000000     1.188873000000    -0.668005000000     1.007825032230

  Charge       = 0
  Multiplicity = 1
  Basis Set: AUG-CC-PVTZ
    Blend: AUG-CC-PVTZ
  Basis Set: (AUG-CC-PVTZ AUX)
    Blend: AUG-CC-PVTZ-JKFIT

    Orbital Energies [Eh]
    ---------------------

    Doubly Occupied:

       1A    -20.563637     2A     -1.376823     3A     -0.722090
       4A     -0.604368     5A     -0.514986

  @DF-RHF Final Energy:   -76.05810869689078

   => Energetics <=

    Nuclear Repulsion Energy =              9.5411915463233576
    One-Electron Energy =                -123.6347877733615661
    Two-Electron Energy =                  38.0354875301474209
    Total Energy =                        -76.0581086968907840
 Dipole X            :        -24.4175433           23.7508565           -0.6666868
 Dipole Y            :          4.7712997           -5.0822351           -0.3109354
 Dipole Z            :         45.5200683          -45.1830247            0.3370435
 Magnitude           :                                                    0.8091665
  Basis Set: (AUG-CC-PVTZ AUX)
    Blend: AUG-CC-PVTZ-RI
	 Reference Energy          =     -76.0581086968907840 [Eh]
	 Singles Energy            =      -0.0000000000000000 [Eh]
	 Same-Spin Energy          =      -0.0679952557921786 [Eh]
	 Opposite-Spin Energy      =      -0.2148215486533539 [Eh]
	 Correlation Energy        =      -0.2828168044455325 [Eh]
	 Total Energy              =     -76.3409255013363151 [Eh]

	 ================> DF-SCS-MP2 Energies <==================
	-----------------------------------------------------------
	 SCS Same-Spin Scale       =       0.3333333333333333 [-]
	 SCS Opposite-Spin Scale   =       1.2000000000000000 [-]
	 SCS Same-Spin Energy      =      -0.0226650852640595 [Eh]
	 SCS Opposite-Spin Energy  =      -0.2577858583840247 [Eh]
	 SCS Correlation Energy    =      -0.2804509436480842 [Eh]
	 SCS Total Energy          =     -76.3385596405388753 [Eh]
	-----------------------------------------------------------

*** Psi4 exiting successfully. Buy a developer a beer!
