                               Psi4 1.8.2 release

  ==> Input File <==

--------------------------------------------------------------------------
MEMORY 60 GB

molecule dimer {
0 1
Gh(F)      0.000000     0.000000     0.000000
Gh(O)      0.201552     2.379442     1.269283
Gh(H)      1.013565     2.687047     0.939558
Gh(H)      0.155342     1.525594     0.845189
Gh(O)      0.236368    -1.899810    -2.155158
Gh(H)      0.057747    -2.671067    -1.620418
Gh(H)      0.039340    -1.225771    -1.496507
Gh(O)     -1.902528    -1.173327     1.751797
Gh(H)     -2.408246    -0.467276     2.231861
Gh(H)     -1.241179    -0.782759     1.178792
Gh(O)     -2.154508     1.404000    -1.305374
Gh(H)     -1.492883     0.912606    -0.734862
Gh(H)     -1.805542     2.277133    -1.424237
O          1.499428    -1.231164     1.872563
H          0.915236    -1.644768     2.531361
H          1.009227    -0.739951     1.204952

units ang
no_reorient
no_com
symmetry c1
}

set {
basis        aug-cc-pVTZ
scf_type     df
}

energy("mp2")
--------------------------------------------------------------------------

    Molecular point group: c1

    Geometry (in Angstrom), charge = 0, multiplicity = 1:

       Center              X                  Y                   Z               Mass
    ------------   -----------------  -----------------  -----------------  -----------------
      Gh(F)           0.000000000000     0.000000000000     0.000000000000    18.998403162730
      Gh(O)           0.201552000000     2.379442000000     1.269283000000    15.994914619570
      Gh(H)           1.013565000000     2.687047000000     0.939558000000     1.007825032230
      Gh(H)           0.155342000000     1.525594000000     0.845189000000     1.007825032230
      Gh(O)           0.236368000000    -1.899810000000    -2.155158000000    15.994914619570
      Gh(H)           0.057747000000    -2.671067000000    -1.620418000000     1.007825032230
      Gh(H)           0.039340000000    -1.225771000000    -1.496507000000     1.007825032230
      Gh(O)          -1.902528000000    -1.173327000000     1.751797000000    15.994914619570
      Gh(H)          -2.408246000000    -0.467276000000     2.231861000000     1.007825032230
      Gh(H)          -1.241179000000    -0.782759000000     1.178792000000     1.007825032230
      Gh(O)          -2.154508000000     1.404000000000    -1.305374000000    15.994914619570
      Gh(H)          -1.492883000000     0.912606000000    -0.734862000000     1.007825032230
      Gh(H)          -1.805542000000     2.277133000000    -1.424237000000     1.007825032230
         O            1.499428000000    -1.231164000000     1.872563000000    15.994914619570
         H            0.915236000000    -1.644768000000     2.531361000000     1.007825032230
         H            1.009227000000    -0.739951000000     1.204952000000     1.007825032230

  Charge       = 0
  Multiplicity = 1
  Basis Set: AUG-CC-PVTZ
    Blend: AUG-CC-PVTZ
  Basis Set: (AUG-CC-PVTZ AUX)
    Blend: AUG-CC-PVTZ-JKFIT

    Orbital Energies [Eh]
    ---------------------

    Doubly Occupied:

       1A    -20.565251     2A     -1.342742     3A     -0.726093
       4A     -0.567697     5A     -0.507012

  @DF-RHF Final Energy:   -76.05853698025567

   => Energetics <=

    Nuclear Repulsion Energy =              9.0770001985719748
    One-Electron Energy =                -122.8534803267427264
    Two-Electron Energy =                  37.7179431479150651
    Total Energy =                        -76.0585369802556812
 Dipole X            :        -27.0325093           26.3047741           -0.7277352
 Dipole Y            :         23.1725649          -23.1189680            0.0535969
 Dipole Z            :        -35.3769999           35.3696581           -0.0073418
 Magnitude           :                                                    0.7297431
  Basis Set: (AUG-CC-PVTZ AUX)
    Blend: AUG-CC-PVTZ-RI
	 Reference Energy          =     -76.0585369802556670 [Eh]
	 Singles Energy            =      -0.0000000000000000 [Eh]
	 Same-Spin Energy          =      -0.0685177555746695 [Eh]
	 Opposite-Spin Energy      =      -0.2164708532932413 [Eh]
	 Correlation Energy        =      -0.2849886088679108 [Eh]
	 Total Energy              =     -76.3435255891235727 [Eh]

	 ================> DF-SCS-MP2 Energies <==================
	-----------------------------------------------------------
	 SCS Same-Spin Scale       =       0.3333333333333333 [-]
	 SCS Opposite-Spin Scale   =       1.2000000000000000 [-]
	 SCS Same-Spin Energy      =      -0.0228392518582232 [Eh]
	 SCS Opposite-Spin Energy  =      -0.2597650239518896 [Eh]
	 SCS Correlation Energy    =      -0.2826042758101127 [Eh]
	 SCS Total Energy          =     -76.3411412560657823 [Eh]
	-----------------------------------------------------------

*** Psi4 exiting successfully. Buy a developer a beer!
