                               Psi4 1.8.2 release

  ==> Input File <==

--------------------------------------------------------------------------
MEMORY 60 GB

molecule dimer {
-1 1
F          0.000000     0.000000     0.000000
O         -0.594284    -0.634372    -2.562911
H         -0.497083    -0.431183    -1.650200
H         -1.006656    -1.548570    -2.604579
O         -1.938246     2.105808    -0.043070
H         -1.889287     2.428560    -0.934253
H         -1.298126     1.315153    -0.005089
O          2.410889    -1.157179    -0.315817
H          2.529967    -1.073339    -1.271904
H          1.596731    -0.690599    -0.141440
O         -2.082039    -1.493757     1.208536
H         -1.903126    -2.455205     1.406995
H         -1.292528    -1.067209     0.789863

units ang
no_reorient
no_com
symmetry c1
}

set {
basis        aug-cc-pVTZ
scf_type     df
}

energy("mp2")
--------------------------------------------------------------------------

    Molecular point group: c1

    Geometry (in Angstrom), charge = -1, multiplicity = 1:

       Center              X                  Y                   Z               Mass
    ------------   -----------------  -----------------  -----------------  -----------------
         F            0.000000000000     0.000000000000     0.000000000000    18.998403162730
         O           -0.594284000000    -0.634372000000    -2.562911000000    15.994914619570
         H           -0.497083000000    -0.431183000000    -1.650200000000     1.007825032230
         H           -1.006656000000    -1.548570000000    -2.604579000000     1.007825032230
         O           -1.938246000000     2.105808000000    -0.043070000000    15.994914619570
         H           -1.889287000000     2.428560000000    -0.934253000000     1.007825032230
         H           -1.298126000000     1.315153000000    -0.005089000000     1.007825032230
         O            2.410889000000    -1.157179000000    -0.315817000000    15.994914619570
         H            2.529967000000    -1.073339000000    -1.271904000000     1.007825032230
         H            1.596731000000    -0.690599000000    -0.141440000000     1.007825032230
         O           -2.082039000000    -1.493757000000     1.208536000000    15.994914619570
         H           -1.903126000000    -2.455205000000     1.406995000000     1.007825032230
         H           -1.292528000000    -1.067209000000     0.789863000000     1.007825032230

  Charge       = -1
  Multiplicity = 1
  Basis Set: AUG-CC-PVTZ
    Blend: AUG-CC-PVTZ
  Basis Set: (AUG-CC-PVTZ AUX)
    Blend: AUG-CC-PVTZ-JKFIT

    Orbital Energies [Eh]
    ---------------------

    Doubly Occupied:

       1A    -25.979235     2A    -20.402749     3A    -20.401037
       4A    -20.390035     5A    -20.386690     6A     -1.245844
       7A     -1.180690     8A     -1.174462     9A     -1.166693
      10A     -1.164539    11A     -0.554010    12A     -0.549929
      13A     -0.542807    14A     -0.531099    15A     -0.423666
      16A     -0.422660    17A     -0.410518    18A     -0.406967
      19A     -0.348436    20A     -0.344842    21A     -0.340983
      22A     -0.334004    23A     -0.333045    24A     -0.329327
      25A     -0.326009

  @DF-RHF Final Energy:  -403.78775381971002

   => Energetics <=

    Nuclear Repulsion Energy =            184.4575881724580881
    One-Electron Energy =                -937.1101273908665235
    Two-Electron Energy =                 348.8647853986984728
    Total Energy =                       -403.7877538197100193
 Dipole X            :         41.0940789          -40.4203877            0.6736913
 Dipole Y            :         23.9736608          -24.4878119           -0.5141512
 Dipole Z            :         33.9055168          -34.2356070           -0.3300902
 Magnitude           :                                                    0.9094893
  Basis Set: (AUG-CC-PVTZ AUX)
    Blend: AUG-CC-PVTZ-RI
	 Reference Energy          =    -403.7877538197100193 [Eh]
	 Singles Energy            =      -0.0000000000000000 [Eh]
	 Same-Spin Energy          =      -0.3627291380080655 [Eh]
	 Opposite-Spin Energy      =      -1.0985849350151400 [Eh]
	 Correlation Energy        =      -1.4613140730232055 [Eh]
	 Total Energy              =    -405.2490678927332510 [Eh]

	 ================> DF-SCS-MP2 Energies <==================
	-----------------------------------------------------------
	 SCS Same-Spin Scale       =       0.3333333333333333 [-]
	 SCS Opposite-Spin Scale   =       1.2000000000000000 [-]
	 SCS Same-Spin Energy      =      -0.1209097126693552 [Eh]
	 SCS Opposite-Spin Energy  =      -1.3183019220181680 [Eh]
	 SCS Correlation Energy    =      -1.4392116346875232 [Eh]
	 SCS Total Energy          =    -405.2269654543975435 [Eh]
	-----------------------------------------------------------

*** Psi4 exiting successfully. Buy a developer a beer!
