                               Psi4 1.9 release

  ==> Input File <==

--------------------------------------------------------------------------
MEMORY 60 GB

molecule dimer {
-1 1
F      0.000000     0.000000     0.000000
--
0 1
O     -1.256991    -2.655153     0.558376
H     -0.644672    -1.885729     0.567536
H     -1.338472    -2.882476    -0.385089
O     -1.305576     1.251295     2.202499
H     -0.711750     0.974728     1.504356
H     -0.952684     2.111079     2.505476
O     -1.829428    -0.415971    -2.107193
H     -1.246037    -0.200344    -1.362479
H     -2.146589     0.442551    -2.466447
O      2.666227     0.699907     0.336488
H      3.306908     0.099210    -0.077513
H      1.734687     0.339624     0.260511
O      1.906743    -2.341252    -0.205944
H      2.501677    -2.614324    -0.890521
H      1.283532    -1.646288    -0.583459
O      0.176288     2.561885    -1.340247
H      0.256168     1.819622    -0.726477
H     -0.688746     2.476205    -1.766219

units ang
no_reorient
no_com
symmetry c1
}

set {
basis        aug-cc-pVTZ
scf_type     df
}

energy("mp2", bsse_type="cp")
--------------------------------------------------------------------------

                               Psi4 1.9 release
    Molecular point group: c1
  Charge       = 0
  Multiplicity = 1
  Basis Set: AUG-CC-PVTZ
    Blend: AUG-CC-PVTZ
  Basis Set: (AUG-CC-PVTZ AUX)
    Blend: AUG-CC-PVTZ-JKFIT
  @DF-RHF Final Energy:  -456.32503972851180
    Total Energy =                       -456.3250397285117970
 Dipole X            :         -7.4698169            7.9597645            0.4899476
 Dipole Y            :         15.8680675          -15.4210231            0.4470444
 Dipole Z            :         13.3809041          -14.8692968           -1.4883927
 Magnitude           :                                                    1.6294816
  Basis Set: (AUG-CC-PVTZ AUX)
    Blend: AUG-CC-PVTZ-RI
	 Reference Energy          =    -456.3250397285117970 [Eh]
	 Singles Energy            =      -0.0000000000000000 [Eh]
	 Same-Spin Energy          =      -0.4154977779705799 [Eh]
	 Opposite-Spin Energy      =      -1.3059179890746182 [Eh]
	 Correlation Energy        =      -1.7214157670451979 [Eh]
	 Total Energy              =    -458.0464554955569838 [Eh]
	 SCS Total Energy          =    -458.0306405747248846 [Eh]
                               Psi4 1.9 release
    Molecular point group: c1
  Multiplicity = 1
  Basis Set: AUG-CC-PVTZ
    Blend: AUG-CC-PVTZ
  Basis Set: (AUG-CC-PVTZ AUX)
    Blend: AUG-CC-PVTZ-JKFIT
  @DF-RHF Final Energy:   -99.45114155890980
    Total Energy =                        -99.4511415589097965
  Basis Set: (AUG-CC-PVTZ AUX)
	 Singles Energy            =      -0.0000000000000000 [Eh]
	 Same-Spin Energy          =      -0.0820618146868716 [Eh]
	 Opposite-Spin Energy      =      -0.2301357039885238 [Eh]
	 Correlation Energy        =      -0.3121975186753955 [Eh]
	 Total Energy              =     -99.7633390775851865 [Eh]
	 SCS Total Energy          =     -99.7546583419249799 [Eh]
                               Psi4 1.9 release
    Molecular point group: c1

    Geometry (in Bohr), charge = -1, multiplicity = 1:

       Center              X                  Y                   Z               Mass
    ------------   -----------------  -----------------  -----------------  -----------------
         F            0.000000000000     0.000000000000     0.000000000000    18.998403162730
         O           -2.375368732165    -5.017511991188     1.055177715029    15.994914619570
         H           -1.218253520751    -3.563511356833     1.072487606338     1.007825032230
         H           -2.529345506594    -5.447090203205    -0.727712743926     1.007825032230
         O           -2.467181075971     2.364604852155     4.162119901595    15.994914619570
         H           -1.345012569795     1.841968966815     2.842820835189     1.007825032230
         H           -1.800311844106     3.989361139205     4.734663453908     1.007825032230
         O           -3.457117886244    -0.786071266133    -3.982017663482    15.994914619570
         H           -2.354668672187    -0.378595290879    -2.574712161688     1.007825032230
         H           -4.056465313920     0.836300186547    -4.660909332957     1.007825032230
         O            5.038438818301     1.322632543291     0.635870164503    15.994914619570
         H            6.249150442085     0.187479728907    -0.146478341163     1.007825032230
         H            3.278083343392     0.641796345632     0.492294442669     1.007825032230
         O            3.603222061634    -4.424325070680    -0.389177757181    15.994914619570
         H            4.727484384357    -4.940356363211    -1.682840798969     1.007825032230
         H            2.425523953261    -3.111033443628    -1.102577715433     1.007825032230
         O            0.333136039205     4.841261014919    -2.532699770466    15.994914619570
         H            0.484087362106     3.438587231858    -1.372842566444     1.007825032230
         H           -1.301541310005     4.679349280489    -3.337670187580     1.007825032230

  Charge       = -1
  Multiplicity = 1
  Basis Set: AUG-CC-PVTZ
    Blend: AUG-CC-PVTZ
  Basis Set: (AUG-CC-PVTZ AUX)
    Blend: AUG-CC-PVTZ-JKFIT

    Orbital Energies [Eh]
    ---------------------

    Doubly Occupied:

       1A    -26.010006     2A    -20.436787     3A    -20.421804
       4A    -20.418572     5A    -20.410896     6A    -20.403618
       7A    -20.400638     8A     -1.275342     9A     -1.213345
      10A     -1.200268    11A     -1.197897    12A     -1.192335
      13A     -1.178673    14A     -1.172030    15A     -0.588325
      16A     -0.573625    17A     -0.571123    18A     -0.559884
      19A     -0.553573    20A     -0.542235    21A     -0.449929
      22A     -0.446295    23A     -0.435690    24A     -0.431073
      25A     -0.425669    26A     -0.417081    27A     -0.378451
      28A     -0.372114    29A     -0.365364    30A     -0.362301
      31A     -0.361961    32A     -0.358613    33A     -0.352895
      34A     -0.343781    35A     -0.340884

  @DF-RHF Final Energy:  -555.92037660985204

   => Energetics <=

    Nuclear Repulsion Energy =            347.6871749269598695
    One-Electron Energy =               -1474.8889393777387795
    Two-Electron Energy =                 571.2813878409268682
    Total Energy =                       -555.9203766098520418
 Dipole X            :         -7.5715894            7.9597645            0.3881751
 Dipole Y            :         15.8267257          -15.4210231            0.4057026
 Dipole Z            :         13.5501367          -14.8692968           -1.3191601
 Magnitude           :                                                    1.4336868
  Basis Set: (AUG-CC-PVTZ AUX)
    Blend: AUG-CC-PVTZ-RI
	 Reference Energy          =    -555.9203766098520418 [Eh]
	 Singles Energy            =      -0.0000000000000000 [Eh]
	 Same-Spin Energy          =      -0.5030186356593094 [Eh]
	 Opposite-Spin Energy      =      -1.5350935598533080 [Eh]
	 Correlation Energy        =      -2.0381121955126176 [Eh]
	 Total Energy              =    -557.9584888053647092 [Eh]

	 ================> DF-SCS-MP2 Energies <==================
	-----------------------------------------------------------
	 SCS Same-Spin Scale       =       0.3333333333333333 [-]
	 SCS Opposite-Spin Scale   =       1.2000000000000000 [-]
	 SCS Same-Spin Energy      =      -0.1676728785531031 [Eh]
	 SCS Opposite-Spin Energy  =      -1.8421122718239695 [Eh]
	 SCS Correlation Energy    =      -2.0097851503770725 [Eh]
	 SCS Total Energy          =    -557.9301617602291117 [Eh]
	-----------------------------------------------------------

*** Psi4 exiting successfully. Buy a developer a beer!
