                               Psi4 1.8.2 release

  ==> Input File <==

--------------------------------------------------------------------------
MEMORY 60 GB

molecule dimer {
0 1
Gh(F)      0.000000     0.000000     0.000000
Gh(O)     -1.757669     1.731762    -1.188806
Gh(H)     -1.054100     1.222666    -0.807146
Gh(H)     -2.431703     1.051578    -1.257114
Gh(O)     -0.820887    -1.641481    -2.008204
Gh(H)     -0.237360    -2.357330    -2.347688
Gh(H)     -0.248955    -1.123146    -1.330694
O         -0.048245    -2.492875     1.400940
H         -0.330918    -3.382914     1.097712
H         -0.433577    -1.797270     0.832638
Gh(O)     -0.132776     0.799660     2.598069
Gh(H)      0.795625     0.856029     2.802210
Gh(H)     -0.046890     0.411235     1.712879
Gh(O)      1.613949     1.493049    -1.711417
Gh(H)      1.268428     1.014021    -0.937188
Gh(H)      2.504434     1.668752    -1.471379

units ang
no_reorient
no_com
symmetry c1
}

set {
basis        aug-cc-pVTZ
scf_type     df
}

energy("mp2")
--------------------------------------------------------------------------

    Molecular point group: c1

    Geometry (in Angstrom), charge = 0, multiplicity = 1:

       Center              X                  Y                   Z               Mass
    ------------   -----------------  -----------------  -----------------  -----------------
      Gh(F)           0.000000000000     0.000000000000     0.000000000000    18.998403162730
      Gh(O)          -1.757669000000     1.731762000000    -1.188806000000    15.994914619570
      Gh(H)          -1.054100000000     1.222666000000    -0.807146000000     1.007825032230
      Gh(H)          -2.431703000000     1.051578000000    -1.257114000000     1.007825032230
      Gh(O)          -0.820887000000    -1.641481000000    -2.008204000000    15.994914619570
      Gh(H)          -0.237360000000    -2.357330000000    -2.347688000000     1.007825032230
      Gh(H)          -0.248955000000    -1.123146000000    -1.330694000000     1.007825032230
         O           -0.048245000000    -2.492875000000     1.400940000000    15.994914619570
         H           -0.330918000000    -3.382914000000     1.097712000000     1.007825032230
         H           -0.433577000000    -1.797270000000     0.832638000000     1.007825032230
      Gh(O)          -0.132776000000     0.799660000000     2.598069000000    15.994914619570
      Gh(H)           0.795625000000     0.856029000000     2.802210000000     1.007825032230
      Gh(H)          -0.046890000000     0.411235000000     1.712879000000     1.007825032230
      Gh(O)           1.613949000000     1.493049000000    -1.711417000000    15.994914619570
      Gh(H)           1.268428000000     1.014021000000    -0.937188000000     1.007825032230
      Gh(H)           2.504434000000     1.668752000000    -1.471379000000     1.007825032230

  Charge       = 0
  Multiplicity = 1
  Basis Set: AUG-CC-PVTZ
    Blend: AUG-CC-PVTZ
  Basis Set: (AUG-CC-PVTZ AUX)
    Blend: AUG-CC-PVTZ-JKFIT

    Orbital Energies [Eh]
    ---------------------

    Doubly Occupied:

       1A    -20.568073     2A     -1.338169     3A     -0.716502
       4A     -0.568874     5A     -0.506612

  @DF-RHF Final Energy:   -76.05747711689673

   => Energetics <=

    Nuclear Repulsion Energy =              8.9714848372132003
    One-Electron Energy =                -122.6614586660332549
    Two-Electron Energy =                  37.6324967119233307
    Total Energy =                        -76.0574771168967345
 Dipole X            :          1.7269442           -2.1740449           -0.4471006
 Dipole Y            :         47.3469137          -47.4759372           -0.1290234
 Dipole Z            :        -25.4096769           24.8269762           -0.5827007
 Magnitude           :                                                    0.7457118
  Basis Set: (AUG-CC-PVTZ AUX)
    Blend: AUG-CC-PVTZ-RI
	 Reference Energy          =     -76.0574771168967345 [Eh]
	 Singles Energy            =      -0.0000000000000000 [Eh]
	 Same-Spin Energy          =      -0.0687083152615591 [Eh]
	 Opposite-Spin Energy      =      -0.2166766249406991 [Eh]
	 Correlation Energy        =      -0.2853849402022581 [Eh]
	 Total Energy              =     -76.3428620570989978 [Eh]

	 ================> DF-SCS-MP2 Energies <==================
	-----------------------------------------------------------
	 SCS Same-Spin Scale       =       0.3333333333333333 [-]
	 SCS Opposite-Spin Scale   =       1.2000000000000000 [-]
	 SCS Same-Spin Energy      =      -0.0229027717538530 [Eh]
	 SCS Opposite-Spin Energy  =      -0.2600119499288389 [Eh]
	 SCS Correlation Energy    =      -0.2829147216826919 [Eh]
	 SCS Total Energy          =     -76.3403918385794213 [Eh]
	-----------------------------------------------------------

*** Psi4 exiting successfully. Buy a developer a beer!
