                               Psi4 1.9 release

  ==> Input File <==

--------------------------------------------------------------------------
MEMORY 60 GB

molecule dimer {
-1 1
F      0.000000     0.000000     0.000000
--
0 1
O      1.590084    -1.184330    -2.003102
H      1.148328    -0.682878    -1.303231
H      0.913372    -1.486227    -2.592972
O     -2.579713     0.695595     0.903205
H     -1.766790     0.373051     0.472017
H     -2.556590     0.408652     1.799991
O      0.006302    -2.680277     0.762718
H     -0.174598    -1.785268     0.559851
H      0.461896    -3.084610     0.019470
O     -1.603595     0.178698    -2.497753
H     -1.541862     0.933686    -3.056288
H     -0.984133     0.301020    -1.747949
O      0.426525     1.345587     2.362969
H     -0.180704     2.043739     2.250203
H      0.386881     0.812199     1.526283

units ang
no_reorient
no_com
symmetry c1
}

set {
basis        aug-cc-pVTZ
scf_type     df
}

energy("mp2", bsse_type="cp")
--------------------------------------------------------------------------

                               Psi4 1.9 release
    Molecular point group: c1
  Charge       = 0
  Multiplicity = 1
  Basis Set: AUG-CC-PVTZ
    Blend: AUG-CC-PVTZ
  Basis Set: (AUG-CC-PVTZ AUX)
    Blend: AUG-CC-PVTZ-JKFIT
  @DF-RHF Final Energy:  -380.28596729704708
    Total Energy =                       -380.2859672970470797
 Dipole X            :         40.7037094          -40.7753311           -0.0716217
 Dipole Y            :         29.6987470          -28.9590173            0.7397297
 Dipole Z            :         10.2517527          -11.0517401           -0.7999874
 Magnitude           :                                                    1.0919293
  Basis Set: (AUG-CC-PVTZ AUX)
    Blend: AUG-CC-PVTZ-RI
	 Reference Energy          =    -380.2859672970470797 [Eh]
	 Singles Energy            =      -0.0000000000000000 [Eh]
	 Same-Spin Energy          =      -0.3440518581975052 [Eh]
	 Opposite-Spin Energy      =      -1.0825235731160125 [Eh]
	 Correlation Energy        =      -1.4265754313135177 [Eh]
	 Total Energy              =    -381.7125427283605745 [Eh]
	 SCS Total Energy          =    -381.6996795375188185 [Eh]
                               Psi4 1.9 release
    Molecular point group: c1
  Multiplicity = 1
  Basis Set: AUG-CC-PVTZ
    Blend: AUG-CC-PVTZ
  Basis Set: (AUG-CC-PVTZ AUX)
    Blend: AUG-CC-PVTZ-JKFIT
  @DF-RHF Final Energy:   -99.45110520343626
    Total Energy =                        -99.4511052034362706
  Basis Set: (AUG-CC-PVTZ AUX)
	 Singles Energy            =      -0.0000000000000000 [Eh]
	 Same-Spin Energy          =      -0.0820452101045520 [Eh]
	 Opposite-Spin Energy      =      -0.2299849102851356 [Eh]
	 Correlation Energy        =      -0.3120301203896876 [Eh]
	 Total Energy              =     -99.7631353238259493 [Eh]
	 SCS Total Energy          =     -99.7544354991466093 [Eh]
                               Psi4 1.9 release
    Molecular point group: c1

    Geometry (in Bohr), charge = -1, multiplicity = 1:

       Center              X                  Y                   Z               Mass
    ------------   -----------------  -----------------  -----------------  -----------------
         F            0.000000000000     0.000000000000     0.000000000000    18.998403162730
         O            3.004823276472    -2.238059342163    -3.785314181357    15.994914619570
         H            2.170025422195    -1.290452397100    -2.462749668207     1.007825032230
         H            1.726022930662    -2.808561990261    -4.900006930981     1.007825032230
         O           -4.874951052283     1.314484044238     1.706810085144    15.994914619570
         H           -3.338749221198     0.704964220828     0.891982856560     1.007825032230
         H           -4.831254915084     0.772240360621     3.401490018289     1.007825032230
         O            0.011909054043    -5.064989470364     1.441328130957    15.994914619570
         H           -0.329942402053    -3.373667580544     1.057965061064     1.007825032230
         H            0.872856938444    -5.829068103848     0.036792967663     1.007825032230
         O           -3.030355366154     0.337690279167    -4.720069099041    15.994914619570
         H           -2.913696903251     1.764410827174    -5.775547280523     1.007825032230
         H           -1.859741841025     0.568845358285    -3.303144891268     1.007825032230
         O            0.806015435661     2.542790907976     4.465364252947    15.994914619570
         H           -0.341481069775     3.862106981917     4.252267396684     1.007825032230
         H            0.731099133143     1.534833669371     2.884256859942     1.007825032230

  Charge       = -1
  Multiplicity = 1
  Basis Set: AUG-CC-PVTZ
    Blend: AUG-CC-PVTZ
  Basis Set: (AUG-CC-PVTZ AUX)
    Blend: AUG-CC-PVTZ-JKFIT

    Orbital Energies [Eh]
    ---------------------

    Doubly Occupied:

       1A    -26.000043     2A    -20.422965     3A    -20.406057
       4A    -20.400468     5A    -20.393934     6A    -20.392294
       7A     -1.266643     8A     -1.209286     9A     -1.195897
      10A     -1.189683    11A     -1.188164    12A     -1.180853
      13A     -0.585162    14A     -0.570900    15A     -0.568470
      16A     -0.562435    17A     -0.552143    18A     -0.442906
      19A     -0.439304    20A     -0.426794    21A     -0.423391
      22A     -0.419115    23A     -0.369809    24A     -0.360330
      25A     -0.356073    26A     -0.353572    27A     -0.352367
      28A     -0.345616    29A     -0.342188    30A     -0.337897

  @DF-RHF Final Energy:  -479.87281305852520

   => Energetics <=

    Nuclear Repulsion Energy =            263.3392905465915419
    One-Electron Energy =               -1200.3146860072267827
    Two-Electron Energy =                 457.1025824021100448
    Total Energy =                       -479.8728130585251961
 Dipole X            :         40.9966096          -40.7753311            0.2212784
 Dipole Y            :         29.8643109          -28.9590173            0.9052936
 Dipole Z            :         10.2394779          -11.0517401           -0.8122622
 Magnitude           :                                                    1.2362405
  Basis Set: (AUG-CC-PVTZ AUX)
    Blend: AUG-CC-PVTZ-RI
	 Reference Energy          =    -479.8728130585251961 [Eh]
	 Singles Energy            =      -0.0000000000000000 [Eh]
	 Same-Spin Energy          =      -0.4311079354072583 [Eh]
	 Opposite-Spin Energy      =      -1.3111594278405405 [Eh]
	 Correlation Energy        =      -1.7422673632477987 [Eh]
	 Total Energy              =    -481.6150804217729728 [Eh]

	 ================> DF-SCS-MP2 Energies <==================
	-----------------------------------------------------------
	 SCS Same-Spin Scale       =       0.3333333333333333 [-]
	 SCS Opposite-Spin Scale   =       1.2000000000000000 [-]
	 SCS Same-Spin Energy      =      -0.1437026451357528 [Eh]
	 SCS Opposite-Spin Energy  =      -1.5733913134086486 [Eh]
	 SCS Correlation Energy    =      -1.7170939585444014 [Eh]
	 SCS Total Energy          =    -481.5899070170696064 [Eh]
	-----------------------------------------------------------

*** Psi4 exiting successfully. Buy a developer a beer!
