                               Psi4 1.8.2 release

  ==> Input File <==

--------------------------------------------------------------------------
MEMORY 60 GB

molecule dimer {
0 1
Gh(F)      0.000000     0.000000     0.000000
Gh(O)      2.575075     1.073331     0.885547
Gh(H)      2.106665     1.918583     0.702596
Gh(H)      2.020041     0.521984     0.325554
O          0.883125    -2.526453     0.876729
H          0.128634    -3.022285     1.173703
H          0.480571    -1.707949     0.521989
Gh(O)     -1.584240    -0.527688    -2.161408
Gh(H)     -1.072012    -0.480481    -1.337240
Gh(H)     -1.395342    -1.397524    -2.511963
Gh(O)     -2.043312     1.766266     0.317173
Gh(H)     -2.873447     1.429607    -0.044182
Gh(H)     -1.403098     0.963197     0.113049
Gh(O)     -0.453685     0.678264     2.814720
Gh(H)      0.049164     0.242469     2.102026
Gh(H)     -1.380466     0.343591     2.776247

units ang
no_reorient
no_com
symmetry c1
}

set {
basis        aug-cc-pVTZ
scf_type     df
}

energy("mp2")
--------------------------------------------------------------------------

    Molecular point group: c1

    Geometry (in Angstrom), charge = 0, multiplicity = 1:

       Center              X                  Y                   Z               Mass
    ------------   -----------------  -----------------  -----------------  -----------------
      Gh(F)           0.000000000000     0.000000000000     0.000000000000    18.998403162730
      Gh(O)           2.575075000000     1.073331000000     0.885547000000    15.994914619570
      Gh(H)           2.106665000000     1.918583000000     0.702596000000     1.007825032230
      Gh(H)           2.020041000000     0.521984000000     0.325554000000     1.007825032230
         O            0.883125000000    -2.526453000000     0.876729000000    15.994914619570
         H            0.128634000000    -3.022285000000     1.173703000000     1.007825032230
         H            0.480571000000    -1.707949000000     0.521989000000     1.007825032230
      Gh(O)          -1.584240000000    -0.527688000000    -2.161408000000    15.994914619570
      Gh(H)          -1.072012000000    -0.480481000000    -1.337240000000     1.007825032230
      Gh(H)          -1.395342000000    -1.397524000000    -2.511963000000     1.007825032230
      Gh(O)          -2.043312000000     1.766266000000     0.317173000000    15.994914619570
      Gh(H)          -2.873447000000     1.429607000000    -0.044182000000     1.007825032230
      Gh(H)          -1.403098000000     0.963197000000     0.113049000000     1.007825032230
      Gh(O)          -0.453685000000     0.678264000000     2.814720000000    15.994914619570
      Gh(H)           0.049164000000     0.242469000000     2.102026000000     1.007825032230
      Gh(H)          -1.380466000000     0.343591000000     2.776247000000     1.007825032230

  Charge       = 0
  Multiplicity = 1
  Basis Set: AUG-CC-PVTZ
    Blend: AUG-CC-PVTZ
  Basis Set: (AUG-CC-PVTZ AUX)
    Blend: AUG-CC-PVTZ-JKFIT

    Orbital Energies [Eh]
    ---------------------

    Doubly Occupied:

       1A    -20.569066     2A     -1.351129     3A     -0.710697
       4A     -0.586577     5A     -0.510230

  @DF-RHF Final Energy:   -76.05957685734856

   => Energetics <=

    Nuclear Repulsion Energy =              9.1306001277622144
    One-Electron Energy =                -122.9249533910582954
    Two-Electron Energy =                  37.7347764059475210
    Total Energy =                        -76.0595768573485600
 Dipole X            :        -15.2661784           14.5021457           -0.7640327
 Dipole Y            :         47.3417661          -47.1332807            0.2084854
 Dipole Z            :        -16.4949234           16.4586150           -0.0363084
 Magnitude           :                                                    0.7927991
  Basis Set: (AUG-CC-PVTZ AUX)
    Blend: AUG-CC-PVTZ-RI
	 Reference Energy          =     -76.0595768573485600 [Eh]
	 Singles Energy            =      -0.0000000000000000 [Eh]
	 Same-Spin Energy          =      -0.0685658516336753 [Eh]
	 Opposite-Spin Energy      =      -0.2165482576100883 [Eh]
	 Correlation Energy        =      -0.2851141092437636 [Eh]
	 Total Energy              =     -76.3446909665923243 [Eh]

	 ================> DF-SCS-MP2 Energies <==================
	-----------------------------------------------------------
	 SCS Same-Spin Scale       =       0.3333333333333333 [-]
	 SCS Opposite-Spin Scale   =       1.2000000000000000 [-]
	 SCS Same-Spin Energy      =      -0.0228552838778918 [Eh]
	 SCS Opposite-Spin Energy  =      -0.2598579091321059 [Eh]
	 SCS Correlation Energy    =      -0.2827131930099977 [Eh]
	 SCS Total Energy          =     -76.3422900503585566 [Eh]
	-----------------------------------------------------------

*** Psi4 exiting successfully. Buy a developer a beer!
