                               Psi4 1.8.2 release

  ==> Input File <==

--------------------------------------------------------------------------
MEMORY 60 GB

molecule dimer {
0 1
Gh(F)      0.000000     0.000000     0.000000
O          1.793472    -2.266511    -0.092888
H          1.763845    -2.397327     0.845606
H          0.978558    -1.723771    -0.253568
Gh(O)      0.660188     0.993220     2.493564
Gh(H)     -0.122404     1.069889     3.027976
Gh(H)      0.503953     0.186710     1.959817
Gh(O)     -0.690392    -1.471906    -2.361938
Gh(H)     -0.556917    -1.124097    -1.508427
Gh(H)     -0.721481    -2.433572    -2.323726
Gh(O)      1.530549     1.044253    -2.077763
Gh(H)      1.110398     1.449909    -2.804950
Gh(H)      0.839571     0.812979    -1.396290
Gh(O)     -2.357393     1.196648    -0.494342
Gh(H)     -2.542465     1.666648     0.313393
Gh(H)     -1.569354     0.722806    -0.305017

units ang
no_reorient
no_com
symmetry c1
}

set {
basis        aug-cc-pVTZ
scf_type     df
}

energy("mp2")
--------------------------------------------------------------------------

    Molecular point group: c1

    Geometry (in Angstrom), charge = 0, multiplicity = 1:

       Center              X                  Y                   Z               Mass
    ------------   -----------------  -----------------  -----------------  -----------------
      Gh(F)           0.000000000000     0.000000000000     0.000000000000    18.998403162730
         O            1.793472000000    -2.266511000000    -0.092888000000    15.994914619570
         H            1.763845000000    -2.397327000000     0.845606000000     1.007825032230
         H            0.978558000000    -1.723771000000    -0.253568000000     1.007825032230
      Gh(O)           0.660188000000     0.993220000000     2.493564000000    15.994914619570
      Gh(H)          -0.122404000000     1.069889000000     3.027976000000     1.007825032230
      Gh(H)           0.503953000000     0.186710000000     1.959817000000     1.007825032230
      Gh(O)          -0.690392000000    -1.471906000000    -2.361938000000    15.994914619570
      Gh(H)          -0.556917000000    -1.124097000000    -1.508427000000     1.007825032230
      Gh(H)          -0.721481000000    -2.433572000000    -2.323726000000     1.007825032230
      Gh(O)           1.530549000000     1.044253000000    -2.077763000000    15.994914619570
      Gh(H)           1.110398000000     1.449909000000    -2.804950000000     1.007825032230
      Gh(H)           0.839571000000     0.812979000000    -1.396290000000     1.007825032230
      Gh(O)          -2.357393000000     1.196648000000    -0.494342000000    15.994914619570
      Gh(H)          -2.542465000000     1.666648000000     0.313393000000     1.007825032230
      Gh(H)          -1.569354000000     0.722806000000    -0.305017000000     1.007825032230

  Charge       = 0
  Multiplicity = 1
  Basis Set: AUG-CC-PVTZ
    Blend: AUG-CC-PVTZ
  Basis Set: (AUG-CC-PVTZ AUX)
    Blend: AUG-CC-PVTZ-JKFIT

    Orbital Energies [Eh]
    ---------------------

    Doubly Occupied:

       1A    -20.570288     2A     -1.349104     3A     -0.706353
       4A     -0.586845     5A     -0.510039

  @DF-RHF Final Energy:   -76.05839494297211

   => Energetics <=

    Nuclear Repulsion Energy =              9.0827350628637671
    One-Electron Energy =                -122.8369964932276872
    Two-Electron Energy =                  37.6958664873918110
    Total Energy =                        -76.0583949429721144
 Dipole X            :        -32.8456580           32.2957577           -0.5499003
 Dipole Y            :         42.3187946          -42.0524270            0.2663677
 Dipole Z            :          0.8012300           -0.2854734            0.5157567
 Magnitude           :                                                    0.7995917
  Basis Set: (AUG-CC-PVTZ AUX)
    Blend: AUG-CC-PVTZ-RI
	 Reference Energy          =     -76.0583949429721144 [Eh]
	 Singles Energy            =      -0.0000000000000000 [Eh]
	 Same-Spin Energy          =      -0.0686773523595648 [Eh]
	 Opposite-Spin Energy      =      -0.2167101308705393 [Eh]
	 Correlation Energy        =      -0.2853874832301042 [Eh]
	 Total Energy              =     -76.3437824262022247 [Eh]

	 ================> DF-SCS-MP2 Energies <==================
	-----------------------------------------------------------
	 SCS Same-Spin Scale       =       0.3333333333333333 [-]
	 SCS Opposite-Spin Scale   =       1.2000000000000000 [-]
	 SCS Same-Spin Energy      =      -0.0228924507865216 [Eh]
	 SCS Opposite-Spin Energy  =      -0.2600521570446472 [Eh]
	 SCS Correlation Energy    =      -0.2829446078311688 [Eh]
	 SCS Total Energy          =     -76.3413395508032835 [Eh]
	-----------------------------------------------------------

*** Psi4 exiting successfully. Buy a developer a beer!
