                               Psi4 1.8.2 release

  ==> Input File <==

--------------------------------------------------------------------------
MEMORY 60 GB

molecule dimer {
-1 1
F          0.000000     0.000000     0.000000
Gh(O)     -2.418799     1.224952     0.138152
Gh(H)     -2.380526     2.080135     0.563174
Gh(H)     -1.516178     0.901788     0.092656
Gh(O)      3.034813     0.347968     0.575749
Gh(H)      3.211453     0.285459     1.525305
Gh(H)      2.055606     0.112398     0.351073
Gh(O)     -0.259645    -2.392526    -1.185459
Gh(H)     -0.386119    -2.819401    -0.326599
Gh(H)     -0.049678    -1.447133    -1.040451
Gh(O)      1.007946    -1.594929     2.050955
Gh(H)      0.819578    -2.573084     2.042697
Gh(H)      0.499845    -1.168256     1.317571
Gh(O)      0.179580     0.924429    -2.718430
Gh(H)      0.785527     0.233681    -3.049861
Gh(H)      0.103012     0.856389    -1.777860

units ang
no_reorient
no_com
symmetry c1
}

set {
basis        aug-cc-pVTZ
scf_type     df
}

energy("mp2")
--------------------------------------------------------------------------

    Molecular point group: c1

    Geometry (in Angstrom), charge = -1, multiplicity = 1:

       Center              X                  Y                   Z               Mass
    ------------   -----------------  -----------------  -----------------  -----------------
         F            0.000000000000     0.000000000000     0.000000000000    18.998403162730
      Gh(O)          -2.418799000000     1.224952000000     0.138152000000    15.994914619570
      Gh(H)          -2.380526000000     2.080135000000     0.563174000000     1.007825032230
      Gh(H)          -1.516178000000     0.901788000000     0.092656000000     1.007825032230
      Gh(O)           3.034813000000     0.347968000000     0.575749000000    15.994914619570
      Gh(H)           3.211453000000     0.285459000000     1.525305000000     1.007825032230
      Gh(H)           2.055606000000     0.112398000000     0.351073000000     1.007825032230
      Gh(O)          -0.259645000000    -2.392526000000    -1.185459000000    15.994914619570
      Gh(H)          -0.386119000000    -2.819401000000    -0.326599000000     1.007825032230
      Gh(H)          -0.049678000000    -1.447133000000    -1.040451000000     1.007825032230
      Gh(O)           1.007946000000    -1.594929000000     2.050955000000    15.994914619570
      Gh(H)           0.819578000000    -2.573084000000     2.042697000000     1.007825032230
      Gh(H)           0.499845000000    -1.168256000000     1.317571000000     1.007825032230
      Gh(O)           0.179580000000     0.924429000000    -2.718430000000    15.994914619570
      Gh(H)           0.785527000000     0.233681000000    -3.049861000000     1.007825032230
      Gh(H)           0.103012000000     0.856389000000    -1.777860000000     1.007825032230

  Charge       = -1
  Multiplicity = 1
  Basis Set: AUG-CC-PVTZ
    Blend: AUG-CC-PVTZ
  Basis Set: (AUG-CC-PVTZ AUX)
    Blend: AUG-CC-PVTZ-JKFIT

    Orbital Energies [Eh]
    ---------------------

    Doubly Occupied:

       1A    -25.833579     2A     -1.075893     3A     -0.180936
       4A     -0.180903     5A     -0.180888

  @DF-RHF Final Energy:   -99.45110705643874

   => Energetics <=

    Nuclear Repulsion Energy =              0.0000000000000000
    One-Electron Energy =                -143.9978088173877495
    Two-Electron Energy =                  44.5467017609490057
    Total Energy =                        -99.4511070564387438
 Dipole X            :          0.0000169            0.0000000            0.0000169
 Dipole Y            :         -0.0000957            0.0000000           -0.0000957
 Dipole Z            :         -0.0001990            0.0000000           -0.0001990
 Magnitude           :                                                    0.0002215
  Basis Set: (AUG-CC-PVTZ AUX)
    Blend: AUG-CC-PVTZ-RI
	 Reference Energy          =     -99.4511070564387438 [Eh]
	 Singles Energy            =      -0.0000000000000000 [Eh]
	 Same-Spin Energy          =      -0.0820449651203407 [Eh]
	 Opposite-Spin Energy      =      -0.2300562132660706 [Eh]
	 Correlation Energy        =      -0.3121011783864113 [Eh]
	 Total Energy              =     -99.7632082348251572 [Eh]

	 ================> DF-SCS-MP2 Energies <==================
	-----------------------------------------------------------
	 SCS Same-Spin Scale       =       0.3333333333333333 [-]
	 SCS Opposite-Spin Scale   =       1.2000000000000000 [-]
	 SCS Same-Spin Energy      =      -0.0273483217067802 [Eh]
	 SCS Opposite-Spin Energy  =      -0.2760674559192847 [Eh]
	 SCS Correlation Energy    =      -0.3034157776260650 [Eh]
	 SCS Total Energy          =     -99.7545228340648151 [Eh]
	-----------------------------------------------------------

*** Psi4 exiting successfully. Buy a developer a beer!
