                               Psi4 1.8.2 release

  ==> Input File <==

--------------------------------------------------------------------------
MEMORY 60 GB

molecule dimer {
0 1
Gh(F)      0.000000     0.000000     0.000000
Gh(O)     -1.256991    -2.655153     0.558376
Gh(H)     -0.644672    -1.885729     0.567536
Gh(H)     -1.338472    -2.882476    -0.385089
Gh(O)     -1.305576     1.251295     2.202499
Gh(H)     -0.711750     0.974728     1.504356
Gh(H)     -0.952684     2.111079     2.505476
Gh(O)     -1.829428    -0.415971    -2.107193
Gh(H)     -1.246037    -0.200344    -1.362479
Gh(H)     -2.146589     0.442551    -2.466447
Gh(O)      2.666227     0.699907     0.336488
Gh(H)      3.306908     0.099210    -0.077513
Gh(H)      1.734687     0.339624     0.260511
Gh(O)      1.906743    -2.341252    -0.205944
Gh(H)      2.501677    -2.614324    -0.890521
Gh(H)      1.283532    -1.646288    -0.583459
O          0.176288     2.561885    -1.340247
H          0.256168     1.819622    -0.726477
H         -0.688746     2.476205    -1.766219

units ang
no_reorient
no_com
symmetry c1
}

set {
basis        aug-cc-pVTZ
scf_type     df
}

energy("mp2")
--------------------------------------------------------------------------

    Molecular point group: c1

    Geometry (in Angstrom), charge = 0, multiplicity = 1:

       Center              X                  Y                   Z               Mass
    ------------   -----------------  -----------------  -----------------  -----------------
      Gh(F)           0.000000000000     0.000000000000     0.000000000000    18.998403162730
      Gh(O)          -1.256991000000    -2.655153000000     0.558376000000    15.994914619570
      Gh(H)          -0.644672000000    -1.885729000000     0.567536000000     1.007825032230
      Gh(H)          -1.338472000000    -2.882476000000    -0.385089000000     1.007825032230
      Gh(O)          -1.305576000000     1.251295000000     2.202499000000    15.994914619570
      Gh(H)          -0.711750000000     0.974728000000     1.504356000000     1.007825032230
      Gh(H)          -0.952684000000     2.111079000000     2.505476000000     1.007825032230
      Gh(O)          -1.829428000000    -0.415971000000    -2.107193000000    15.994914619570
      Gh(H)          -1.246037000000    -0.200344000000    -1.362479000000     1.007825032230
      Gh(H)          -2.146589000000     0.442551000000    -2.466447000000     1.007825032230
      Gh(O)           2.666227000000     0.699907000000     0.336488000000    15.994914619570
      Gh(H)           3.306908000000     0.099210000000    -0.077513000000     1.007825032230
      Gh(H)           1.734687000000     0.339624000000     0.260511000000     1.007825032230
      Gh(O)           1.906743000000    -2.341252000000    -0.205944000000    15.994914619570
      Gh(H)           2.501677000000    -2.614324000000    -0.890521000000     1.007825032230
      Gh(H)           1.283532000000    -1.646288000000    -0.583459000000     1.007825032230
         O            0.176288000000     2.561885000000    -1.340247000000    15.994914619570
         H            0.256168000000     1.819622000000    -0.726477000000     1.007825032230
         H           -0.688746000000     2.476205000000    -1.766219000000     1.007825032230

  Charge       = 0
  Multiplicity = 1
  Basis Set: AUG-CC-PVTZ
    Blend: AUG-CC-PVTZ
  Basis Set: (AUG-CC-PVTZ AUX)
    Blend: AUG-CC-PVTZ-JKFIT

    Orbital Energies [Eh]
    ---------------------

    Doubly Occupied:

       1A    -20.567906     2A     -1.346942     3A     -0.716169
       4A     -0.578922     5A     -0.508884

  @DF-RHF Final Energy:   -76.05984664170714

   => Energetics <=

    Nuclear Repulsion Energy =              9.0947919164791955
    One-Electron Energy =                -122.8716273056752044
    Two-Electron Energy =                  37.7169887474888696
    Total Energy =                        -76.0598466417071393
 Dipole X            :         -2.3696794            1.8476344           -0.5220451
 Dipole Y            :        -47.3989935           46.8480246           -0.5509689
 Dipole Z            :         25.0975289          -24.9721109            0.1254180
 Magnitude           :                                                    0.7693032
  Basis Set: (AUG-CC-PVTZ AUX)
    Blend: AUG-CC-PVTZ-RI
	 Reference Energy          =     -76.0598466417071393 [Eh]
	 Singles Energy            =      -0.0000000000000000 [Eh]
	 Same-Spin Energy          =      -0.0685489191539784 [Eh]
	 Opposite-Spin Energy      =      -0.2165169360668364 [Eh]
	 Correlation Energy        =      -0.2850658552208147 [Eh]
	 Total Energy              =     -76.3449124969279609 [Eh]

	 ================> DF-SCS-MP2 Energies <==================
	-----------------------------------------------------------
	 SCS Same-Spin Scale       =       0.3333333333333333 [-]
	 SCS Opposite-Spin Scale   =       1.2000000000000000 [-]
	 SCS Same-Spin Energy      =      -0.0228496397179928 [Eh]
	 SCS Opposite-Spin Energy  =      -0.2598203232802036 [Eh]
	 SCS Correlation Energy    =      -0.2826699629981964 [Eh]
	 SCS Total Energy          =     -76.3425166047053381 [Eh]
	-----------------------------------------------------------

*** Psi4 exiting successfully. Buy a developer a beer!
