                               Psi4 1.8.2 release

  ==> Input File <==

--------------------------------------------------------------------------
MEMORY 60 GB

molecule dimer {
0 1
Gh(F)      0.000000     0.000000     0.000000
Gh(O)     -1.757669     1.731762    -1.188806
Gh(H)     -1.054100     1.222666    -0.807146
Gh(H)     -2.431703     1.051578    -1.257114
Gh(O)     -0.820887    -1.641481    -2.008204
Gh(H)     -0.237360    -2.357330    -2.347688
Gh(H)     -0.248955    -1.123146    -1.330694
Gh(O)     -0.048245    -2.492875     1.400940
Gh(H)     -0.330918    -3.382914     1.097712
Gh(H)     -0.433577    -1.797270     0.832638
O         -0.132776     0.799660     2.598069
H          0.795625     0.856029     2.802210
H         -0.046890     0.411235     1.712879
Gh(O)      1.613949     1.493049    -1.711417
Gh(H)      1.268428     1.014021    -0.937188
Gh(H)      2.504434     1.668752    -1.471379

units ang
no_reorient
no_com
symmetry c1
}

set {
basis        aug-cc-pVTZ
scf_type     df
}

energy("mp2")
--------------------------------------------------------------------------

    Molecular point group: c1

    Geometry (in Angstrom), charge = 0, multiplicity = 1:

       Center              X                  Y                   Z               Mass
    ------------   -----------------  -----------------  -----------------  -----------------
      Gh(F)           0.000000000000     0.000000000000     0.000000000000    18.998403162730
      Gh(O)          -1.757669000000     1.731762000000    -1.188806000000    15.994914619570
      Gh(H)          -1.054100000000     1.222666000000    -0.807146000000     1.007825032230
      Gh(H)          -2.431703000000     1.051578000000    -1.257114000000     1.007825032230
      Gh(O)          -0.820887000000    -1.641481000000    -2.008204000000    15.994914619570
      Gh(H)          -0.237360000000    -2.357330000000    -2.347688000000     1.007825032230
      Gh(H)          -0.248955000000    -1.123146000000    -1.330694000000     1.007825032230
      Gh(O)          -0.048245000000    -2.492875000000     1.400940000000    15.994914619570
      Gh(H)          -0.330918000000    -3.382914000000     1.097712000000     1.007825032230
      Gh(H)          -0.433577000000    -1.797270000000     0.832638000000     1.007825032230
         O           -0.132776000000     0.799660000000     2.598069000000    15.994914619570
         H            0.795625000000     0.856029000000     2.802210000000     1.007825032230
         H           -0.046890000000     0.411235000000     1.712879000000     1.007825032230
      Gh(O)           1.613949000000     1.493049000000    -1.711417000000    15.994914619570
      Gh(H)           1.268428000000     1.014021000000    -0.937188000000     1.007825032230
      Gh(H)           2.504434000000     1.668752000000    -1.471379000000     1.007825032230

  Charge       = 0
  Multiplicity = 1
  Basis Set: AUG-CC-PVTZ
    Blend: AUG-CC-PVTZ
  Basis Set: (AUG-CC-PVTZ AUX)
    Blend: AUG-CC-PVTZ-JKFIT

    Orbital Energies [Eh]
    ---------------------

    Doubly Occupied:

       1A    -20.570682     2A     -1.356590     3A     -0.701677
       4A     -0.597619     5A     -0.511973

  @DF-RHF Final Energy:   -76.05854505369027

   => Energetics <=

    Nuclear Repulsion Energy =              9.1735987997807662
    One-Electron Energy =                -122.9872026697487257
    Two-Electron Energy =                  37.7550588162776961
    Total Energy =                        -76.0585450536902670
 Dipole X            :          1.2548410           -0.5923781            0.6624629
 Dipole Y            :        -14.6990662           14.4838890           -0.2151772
 Dipole Z            :        -48.2503437           47.8093926           -0.4409511
 Magnitude           :                                                    0.8243762
  Basis Set: (AUG-CC-PVTZ AUX)
    Blend: AUG-CC-PVTZ-RI
	 Reference Energy          =     -76.0585450536902670 [Eh]
	 Singles Energy            =      -0.0000000000000000 [Eh]
	 Same-Spin Energy          =      -0.0686713317520700 [Eh]
	 Opposite-Spin Energy      =      -0.2168017917936412 [Eh]
	 Correlation Energy        =      -0.2854731235457112 [Eh]
	 Total Energy              =     -76.3440181772359807 [Eh]

	 ================> DF-SCS-MP2 Energies <==================
	-----------------------------------------------------------
	 SCS Same-Spin Scale       =       0.3333333333333333 [-]
	 SCS Opposite-Spin Scale   =       1.2000000000000000 [-]
	 SCS Same-Spin Energy      =      -0.0228904439173567 [Eh]
	 SCS Opposite-Spin Energy  =      -0.2601621501523694 [Eh]
	 SCS Correlation Energy    =      -0.2830525940697261 [Eh]
	 SCS Total Energy          =     -76.3415976477599969 [Eh]
	-----------------------------------------------------------

*** Psi4 exiting successfully. Buy a developer a beer!
