                               Psi4 1.9 release

  ==> Input File <==

--------------------------------------------------------------------------
MEMORY 60 GB

molecule dimer {
-1 1
F      0.000000     0.000000     0.000000
--
0 1
O      1.599440     1.216847     1.915026
H      1.076424     0.939159     1.131161
H      2.405637     0.730202     1.630886
O     -1.950120     1.489343     1.254761
H     -2.210763     2.196777     0.595546
H     -1.188356     1.080520     0.800691
O      2.106700    -1.786745     0.194161
H      1.282870    -1.276896     0.082122
H      2.847852    -1.236742     0.198292
O     -1.971584    -2.024256    -0.027666
H     -2.186941    -2.154435     0.910808
H     -1.329755    -1.251018    -0.064590
O      0.901895     0.402744    -2.703264
H      0.603349     0.310057    -1.796013
H      1.403576     1.255826    -2.725926

units ang
no_reorient
no_com
symmetry c1
}

set {
basis        aug-cc-pVTZ
scf_type     df
}

energy("mp2", bsse_type="cp")
--------------------------------------------------------------------------

                               Psi4 1.9 release
    Molecular point group: c1
  Charge       = 0
  Multiplicity = 1
  Basis Set: AUG-CC-PVTZ
    Blend: AUG-CC-PVTZ
  Basis Set: (AUG-CC-PVTZ AUX)
    Blend: AUG-CC-PVTZ-JKFIT
  @DF-RHF Final Energy:  -380.26416312262592
    Total Energy =                       -380.2641631226259165
 Dipole X            :        -14.6598342           15.4854382            0.8256041
 Dipole Y            :         10.7741786           -9.4922568            1.2819218
 Dipole Z            :        -11.2559950           11.0116628           -0.2443322
 Magnitude           :                                                    1.5442291
  Basis Set: (AUG-CC-PVTZ AUX)
    Blend: AUG-CC-PVTZ-RI
	 Reference Energy          =    -380.2641631226259165 [Eh]
	 Singles Energy            =      -0.0000000000000000 [Eh]
	 Same-Spin Energy          =      -0.3462205501695514 [Eh]
	 Opposite-Spin Energy      =      -1.0897323418188278 [Eh]
	 Correlation Energy        =      -1.4359528919883793 [Eh]
	 Total Energy              =    -381.7001160146143093 [Eh]
	 SCS Total Energy          =    -381.6872487828650264 [Eh]
                               Psi4 1.9 release
    Molecular point group: c1
  Multiplicity = 1
  Basis Set: AUG-CC-PVTZ
    Blend: AUG-CC-PVTZ
  Basis Set: (AUG-CC-PVTZ AUX)
    Blend: AUG-CC-PVTZ-JKFIT
  @DF-RHF Final Energy:   -99.45111317791036
    Total Energy =                        -99.4511131779103721
  Basis Set: (AUG-CC-PVTZ AUX)
	 Singles Energy            =      -0.0000000000000000 [Eh]
	 Same-Spin Energy          =      -0.0820671305525423 [Eh]
	 Opposite-Spin Energy      =      -0.2302296300613749 [Eh]
	 Correlation Energy        =      -0.3122967606139172 [Eh]
	 Total Energy              =     -99.7634099385242763 [Eh]
	 SCS Total Energy          =     -99.7547444441681819 [Eh]
                               Psi4 1.9 release
    Molecular point group: c1

    Geometry (in Bohr), charge = -1, multiplicity = 1:

       Center              X                  Y                   Z               Mass
    ------------   -----------------  -----------------  -----------------  -----------------
         F            0.000000000000     0.000000000000     0.000000000000    18.998403162730
         O            3.022503554102     2.299507566585     3.618874663131    15.994914619570
         H            2.034146554870     1.774753298259     2.137584493799     1.007825032230
         H            4.545995087268     1.379881796262     3.081927881843     1.007825032230
         O           -3.685192711778     2.814450376868     2.371154642906    15.994914619570
         H           -4.177736598296     4.151306888705     1.125418835112     1.007825032230
         H           -2.245667379545     2.041886873080     1.513086701119     1.007825032230
         O            3.981086028502    -3.376458706031     0.366911114245    15.994914619570
         H            2.424272954566    -2.412983730693     0.155188088875     1.007825032230
         H            5.381660325837    -2.337103667851     0.374717572869     1.007825032230
         O           -3.725753793335    -3.825289447815    -0.052281162987    15.994914619570
         H           -4.132719542535    -4.071292105101     1.721177672876     1.007825032230
         H           -2.512872763958    -2.364081398018    -0.122057410443     1.007825032230
         O            1.704334543920     0.761075858671    -5.108428604810    15.994914619570
         H            1.140164368069     0.585922813281    -3.393972687762     1.007825032230
         H            2.652374236266     2.373167201229    -5.151253578265     1.007825032230

  Charge       = -1
  Multiplicity = 1
  Basis Set: AUG-CC-PVTZ
    Blend: AUG-CC-PVTZ
  Basis Set: (AUG-CC-PVTZ AUX)
    Blend: AUG-CC-PVTZ-JKFIT

    Orbital Energies [Eh]
    ---------------------

    Doubly Occupied:

       1A    -26.010305     2A    -20.419621     3A    -20.413846
       4A    -20.407943     5A    -20.401049     6A    -20.396712
       7A     -1.278997     8A     -1.196913     9A     -1.196530
      10A     -1.190236    11A     -1.177918    12A     -1.166582
      13A     -0.582651    14A     -0.565149    15A     -0.541582
      16A     -0.539914    17A     -0.526708    18A     -0.456210
      19A     -0.440091    20A     -0.435994    21A     -0.421566
      22A     -0.417058    23A     -0.371077    24A     -0.364610
      25A     -0.360408    26A     -0.358256    27A     -0.352274
      28A     -0.349666    29A     -0.346492    30A     -0.336279

  @DF-RHF Final Energy:  -479.85616784988792

   => Energetics <=

    Nuclear Repulsion Energy =            261.2369182898401618
    One-Electron Energy =               -1196.1408896454829573
    Two-Electron Energy =                 455.0478035057549278
    Total Energy =                       -479.8561678498879246
 Dipole X            :        -14.7951860           15.4854382            0.6902522
 Dipole Y            :         10.8109614           -9.4922568            1.3187045
 Dipole Z            :        -11.4065896           11.0116628           -0.3949268
 Magnitude           :                                                    1.5399341
  Basis Set: (AUG-CC-PVTZ AUX)
    Blend: AUG-CC-PVTZ-RI
	 Reference Energy          =    -479.8561678498879246 [Eh]
	 Singles Energy            =      -0.0000000000000000 [Eh]
	 Same-Spin Energy          =      -0.4336126834639605 [Eh]
	 Opposite-Spin Energy      =      -1.3182421105703506 [Eh]
	 Correlation Energy        =      -1.7518547940343110 [Eh]
	 Total Energy              =    -481.6080226439222542 [Eh]

	 ================> DF-SCS-MP2 Energies <==================
	-----------------------------------------------------------
	 SCS Same-Spin Scale       =       0.3333333333333333 [-]
	 SCS Opposite-Spin Scale   =       1.2000000000000000 [-]
	 SCS Same-Spin Energy      =      -0.1445375611546535 [Eh]
	 SCS Opposite-Spin Energy  =      -1.5818905326844206 [Eh]
	 SCS Correlation Energy    =      -1.7264280938390741 [Eh]
	 SCS Total Energy          =    -481.5825959437269717 [Eh]
	-----------------------------------------------------------

*** Psi4 exiting successfully. Buy a developer a beer!
