                               Psi4 1.8.2 release

  ==> Input File <==

--------------------------------------------------------------------------
MEMORY 60 GB

molecule dimer {
-1 1
F          0.000000     0.000000     0.000000
O         -1.944527     0.667499    -2.037884
H         -1.368387     0.229404    -1.388126
H         -1.725369     0.146857    -2.796287
O          2.643442     0.923070     0.544992
H          1.757284     0.494516     0.594070
H          2.927492     0.930628     1.470439
O         -0.089574    -2.415065     1.212511
H         -0.321483    -1.491225     0.904779
H          0.328480    -2.335764     2.040561
O          1.394067     1.308528    -2.063548
H          1.073967     0.850781    -1.278231
H          0.906903     2.092693    -2.265606
O         -2.338432     0.730854     1.212540
H         -2.409960     1.553376     1.716659
H         -1.476015     0.775888     0.745875

units ang
no_reorient
no_com
symmetry c1
}

set {
basis        aug-cc-pVTZ
scf_type     df
}

energy("mp2")
--------------------------------------------------------------------------

    Molecular point group: c1

    Geometry (in Angstrom), charge = -1, multiplicity = 1:

       Center              X                  Y                   Z               Mass
    ------------   -----------------  -----------------  -----------------  -----------------
         F            0.000000000000     0.000000000000     0.000000000000    18.998403162730
         O           -1.944527000000     0.667499000000    -2.037884000000    15.994914619570
         H           -1.368387000000     0.229404000000    -1.388126000000     1.007825032230
         H           -1.725369000000     0.146857000000    -2.796287000000     1.007825032230
         O            2.643442000000     0.923070000000     0.544992000000    15.994914619570
         H            1.757284000000     0.494516000000     0.594070000000     1.007825032230
         H            2.927492000000     0.930628000000     1.470439000000     1.007825032230
         O           -0.089574000000    -2.415065000000     1.212511000000    15.994914619570
         H           -0.321483000000    -1.491225000000     0.904779000000     1.007825032230
         H            0.328480000000    -2.335764000000     2.040561000000     1.007825032230
         O            1.394067000000     1.308528000000    -2.063548000000    15.994914619570
         H            1.073967000000     0.850781000000    -1.278231000000     1.007825032230
         H            0.906903000000     2.092693000000    -2.265606000000     1.007825032230
         O           -2.338432000000     0.730854000000     1.212540000000    15.994914619570
         H           -2.409960000000     1.553376000000     1.716659000000     1.007825032230
         H           -1.476015000000     0.775888000000     0.745875000000     1.007825032230

  Charge       = -1
  Multiplicity = 1
  Basis Set: AUG-CC-PVTZ
    Blend: AUG-CC-PVTZ
  Basis Set: (AUG-CC-PVTZ AUX)
    Blend: AUG-CC-PVTZ-JKFIT

    Orbital Energies [Eh]
    ---------------------

    Doubly Occupied:

       1A    -25.990887     2A    -20.411306     3A    -20.402754
       4A    -20.401892     5A    -20.389436     6A    -20.379662
       7A     -1.258314     8A     -1.192534     9A     -1.189205
      10A     -1.180885    11A     -1.175596    12A     -1.169771
      13A     -0.570727    14A     -0.556612    15A     -0.550356
      16A     -0.543296    17A     -0.537918    18A     -0.438826
      19A     -0.432672    20A     -0.422977    21A     -0.418661
      22A     -0.398287    23A     -0.358304    24A     -0.353650
      25A     -0.350100    26A     -0.347740    27A     -0.345053
      28A     -0.338211    29A     -0.329507    30A     -0.325833

  @DF-RHF Final Energy:  -479.84950448916123

   => Energetics <=

    Nuclear Repulsion Energy =            263.8588032980915159
    One-Electron Energy =               -1201.8946638764091404
    Two-Electron Energy =                 458.1863560891563907
    Total Energy =                       -479.8495044891612338
 Dipole X            :          5.9122076           -5.6451411            0.2670665
 Dipole Y            :        -24.0350522           24.5026463            0.4675940
 Dipole Z            :         18.8898214          -17.5876414            1.3021801
 Magnitude           :                                                    1.4091280
  Basis Set: (AUG-CC-PVTZ AUX)
    Blend: AUG-CC-PVTZ-RI
	 Reference Energy          =    -479.8495044891612338 [Eh]
	 Singles Energy            =      -0.0000000000000000 [Eh]
	 Same-Spin Energy          =      -0.4330292924808508 [Eh]
	 Opposite-Spin Energy      =      -1.3150878137917854 [Eh]
	 Correlation Energy        =      -1.7481171062726362 [Eh]
	 Total Energy              =    -481.5976215954338500 [Eh]

	 ================> DF-SCS-MP2 Energies <==================
	-----------------------------------------------------------
	 SCS Same-Spin Scale       =       0.3333333333333333 [-]
	 SCS Opposite-Spin Scale   =       1.2000000000000000 [-]
	 SCS Same-Spin Energy      =      -0.1443430974936169 [Eh]
	 SCS Opposite-Spin Energy  =      -1.5781053765501425 [Eh]
	 SCS Correlation Energy    =      -1.7224484740437593 [Eh]
	 SCS Total Energy          =    -481.5719529632049785 [Eh]
	-----------------------------------------------------------

*** Psi4 exiting successfully. Buy a developer a beer!
