                               Psi4 1.8.2 release

  ==> Input File <==

--------------------------------------------------------------------------
MEMORY 60 GB

molecule dimer {
-1 1
F          0.000000     0.000000     0.000000
O         -2.535941    -0.518749    -0.841397
H         -2.920259     0.371723    -0.962405
H         -1.599270    -0.369082    -0.662928
O          1.559802     1.999498     1.426683
H          1.052305     1.577903     0.700547
H          2.485581     1.914871     1.234694
O          1.354501    -1.676034    -1.827240
H          2.081264    -1.020441    -1.804735
H          0.735366    -1.229436    -1.225870
O          2.371662    -0.821742     1.847114
H          1.868561    -0.165946     1.393601
H          2.048718    -0.788545     2.707674
O         -0.396813    -1.938838     2.239603
H         -0.284999    -1.373573     1.502641
H         -1.382193    -1.991135     2.209240
O         -2.085558     1.288771     1.727221
H         -1.503937     2.039451     1.584522
H         -1.562251     0.562158     1.399159
O         -0.164884     1.767301    -2.325383
H         -0.793236     1.519173    -3.058380
H         -0.020245     1.007979    -1.706815

units ang
no_reorient
no_com
symmetry c1
}

set {
basis        aug-cc-pVTZ
scf_type     df
}

energy("mp2")
--------------------------------------------------------------------------

    Molecular point group: c1

    Geometry (in Angstrom), charge = -1, multiplicity = 1:

       Center              X                  Y                   Z               Mass
    ------------   -----------------  -----------------  -----------------  -----------------
         F            0.000000000000     0.000000000000     0.000000000000    18.998403162730
         O           -2.535941000000    -0.518749000000    -0.841397000000    15.994914619570
         H           -2.920259000000     0.371723000000    -0.962405000000     1.007825032230
         H           -1.599270000000    -0.369082000000    -0.662928000000     1.007825032230
         O            1.559802000000     1.999498000000     1.426683000000    15.994914619570
         H            1.052305000000     1.577903000000     0.700547000000     1.007825032230
         H            2.485581000000     1.914871000000     1.234694000000     1.007825032230
         O            1.354501000000    -1.676034000000    -1.827240000000    15.994914619570
         H            2.081264000000    -1.020441000000    -1.804735000000     1.007825032230
         H            0.735366000000    -1.229436000000    -1.225870000000     1.007825032230
         O            2.371662000000    -0.821742000000     1.847114000000    15.994914619570
         H            1.868561000000    -0.165946000000     1.393601000000     1.007825032230
         H            2.048718000000    -0.788545000000     2.707674000000     1.007825032230
         O           -0.396813000000    -1.938838000000     2.239603000000    15.994914619570
         H           -0.284999000000    -1.373573000000     1.502641000000     1.007825032230
         H           -1.382193000000    -1.991135000000     2.209240000000     1.007825032230
         O           -2.085558000000     1.288771000000     1.727221000000    15.994914619570
         H           -1.503937000000     2.039451000000     1.584522000000     1.007825032230
         H           -1.562251000000     0.562158000000     1.399159000000     1.007825032230
         O           -0.164884000000     1.767301000000    -2.325383000000    15.994914619570
         H           -0.793236000000     1.519173000000    -3.058380000000     1.007825032230
         H           -0.020245000000     1.007979000000    -1.706815000000     1.007825032230

  Charge       = -1
  Multiplicity = 1
  Basis Set: AUG-CC-PVTZ
    Blend: AUG-CC-PVTZ
  Basis Set: (AUG-CC-PVTZ AUX)
    Blend: AUG-CC-PVTZ-JKFIT

    Orbital Energies [Eh]
    ---------------------

    Doubly Occupied:

       1A    -26.025145     2A    -20.439701     3A    -20.435948
       4A    -20.423683     5A    -20.422598     6A    -20.415218
       7A    -20.412182     8A    -20.411437     9A     -1.291729
      10A     -1.228567    11A     -1.218312    12A     -1.213788
      13A     -1.210623    14A     -1.200235    15A     -1.194750
      16A     -1.193680    17A     -0.600708    18A     -0.586754
      19A     -0.581818    20A     -0.575126    21A     -0.565195
      22A     -0.558071    23A     -0.547097    24A     -0.462616
      25A     -0.459316    26A     -0.456379    27A     -0.450155
      28A     -0.447922    29A     -0.445000    30A     -0.434643
      31A     -0.389052    32A     -0.384515    33A     -0.379483
      34A     -0.378642    35A     -0.374566    36A     -0.372582
      37A     -0.365367    38A     -0.358805    39A     -0.356634
      40A     -0.353400

  @DF-RHF Final Energy:  -631.99255481045032

   => Energetics <=

    Nuclear Repulsion Energy =            454.4835765528119396
    One-Electron Energy =               -1793.7093731223781106
    Two-Electron Energy =                 707.2332417591159128
    Total Energy =                       -631.9925548104503150
 Dipole X            :         -1.8497439            1.9418013            0.0920574
 Dipole Y            :         -4.2268367            5.3984864            1.1716497
 Dipole Z            :        -40.9182381           40.2204641           -0.6977740
 Magnitude           :                                                    1.3667941
  Basis Set: (AUG-CC-PVTZ AUX)
    Blend: AUG-CC-PVTZ-RI
	 Reference Energy          =    -631.9925548104503150 [Eh]
	 Singles Energy            =      -0.0000000000000000 [Eh]
	 Same-Spin Energy          =      -0.5728166361050130 [Eh]
	 Opposite-Spin Energy      =      -1.7516717205547452 [Eh]
	 Correlation Energy        =      -2.3244883566597583 [Eh]
	 Total Energy              =    -634.3170431671101142 [Eh]

	 ================> DF-SCS-MP2 Energies <==================
	-----------------------------------------------------------
	 SCS Same-Spin Scale       =       0.3333333333333333 [-]
	 SCS Opposite-Spin Scale   =       1.2000000000000000 [-]
	 SCS Same-Spin Energy      =      -0.1909388787016710 [Eh]
	 SCS Opposite-Spin Energy  =      -2.1020060646656940 [Eh]
	 SCS Correlation Energy    =      -2.2929449433673650 [Eh]
	 SCS Total Energy          =    -634.2854997538177031 [Eh]
	-----------------------------------------------------------

*** Psi4 exiting successfully. Buy a developer a beer!
