                               Psi4 1.9 release

  ==> Input File <==

--------------------------------------------------------------------------
MEMORY 60 GB

molecule dimer {
-1 1
F      0.000000     0.000000     0.000000
--
0 1
O      0.165293     0.083255    -2.915176
H      0.664980    -0.212970    -2.135442
H      0.048059     1.049442    -2.946154
O      2.475389    -0.135408     1.309999
H      1.638586    -0.214168     0.812850
H      2.520190    -0.810723     1.984287
O     -0.309101    -2.782394     0.154485
H     -0.245961    -1.824650     0.054161
H     -1.220250    -2.823525     0.267269
O     -0.285980     0.810005     2.492737
H     -0.177233     0.310410     1.663910
H      0.145263     0.356847     3.231122
O     -2.747590     0.888238    -0.575196
H     -1.860637     0.738560    -0.236004
H     -3.372019     0.406963     0.065585
O      0.830527     2.959937    -0.256319
H      0.269201     2.193067    -0.063366
H      1.737656     2.830104     0.006673

units ang
no_reorient
no_com
symmetry c1
}

set {
basis        aug-cc-pVTZ
scf_type     df
}

energy("mp2", bsse_type="cp")
--------------------------------------------------------------------------

                               Psi4 1.9 release
    Molecular point group: c1
  Charge       = 0
  Multiplicity = 1
  Basis Set: AUG-CC-PVTZ
    Blend: AUG-CC-PVTZ
  Basis Set: (AUG-CC-PVTZ AUX)
    Blend: AUG-CC-PVTZ-JKFIT
  @DF-RHF Final Energy:  -456.32927031824136
    Total Energy =                       -456.3292703182413561
 Dipole X            :         -2.2574197            2.2225806           -0.0348391
 Dipole Y            :        -32.4020317           31.3475725           -1.0544592
 Dipole Z            :         -6.6982280            8.2942555            1.5960275
 Magnitude           :                                                    1.9132177
  Basis Set: (AUG-CC-PVTZ AUX)
    Blend: AUG-CC-PVTZ-RI
	 Reference Energy          =    -456.3292703182413561 [Eh]
	 Singles Energy            =      -0.0000000000000000 [Eh]
	 Same-Spin Energy          =      -0.4142194515642162 [Eh]
	 Opposite-Spin Energy      =      -1.3024235440996585 [Eh]
	 Correlation Energy        =      -1.7166429956638747 [Eh]
	 Total Energy              =    -458.0459133139052028 [Eh]
	 SCS Total Energy          =    -458.0302517216823617 [Eh]
                               Psi4 1.9 release
    Molecular point group: c1
  Multiplicity = 1
  Basis Set: AUG-CC-PVTZ
    Blend: AUG-CC-PVTZ
  Basis Set: (AUG-CC-PVTZ AUX)
    Blend: AUG-CC-PVTZ-JKFIT
  @DF-RHF Final Energy:   -99.45114335373253
    Total Energy =                        -99.4511433537325331
  Basis Set: (AUG-CC-PVTZ AUX)
	 Singles Energy            =      -0.0000000000000000 [Eh]
	 Same-Spin Energy          =      -0.0820553579940390 [Eh]
	 Opposite-Spin Energy      =      -0.2302251321008965 [Eh]
	 Correlation Energy        =      -0.3122804900949355 [Eh]
	 Total Energy              =     -99.7634238438274679 [Eh]
	 SCS Total Energy          =     -99.7547652982516269 [Eh]
                               Psi4 1.9 release
    Molecular point group: c1

    Geometry (in Bohr), charge = -1, multiplicity = 1:

       Center              X                  Y                   Z               Mass
    ------------   -----------------  -----------------  -----------------  -----------------
         F            0.000000000000     0.000000000000     0.000000000000    18.998403162730
         O            0.312358500455     0.157329148575    -5.508884247508    15.994914619570
         H            1.256630078907    -0.402454972939    -4.035400536800     1.007825032230
         H            0.090818347863     1.983157964553    -5.567424183422     1.007825032230
         O            4.677807263971    -0.255884035196     2.475539334624    15.994914619570
         H            3.096478773009    -0.404718864837     1.536063881078     1.007825032230
         H            4.762468884118    -1.532044433610     3.749758984306     1.007825032230
         O           -0.584116235105    -5.257962633117     0.291934340491    15.994914619570
         H           -0.464798927544    -3.448088774817     0.102349456681     1.007825032230
         H           -2.305938304590    -5.335688958383     0.505065211825     1.007825032230
         O           -0.540423877358     1.530687610251     4.710590232795    15.994914619570
         H           -0.334921830393     0.586589886603     3.144334197411     1.007825032230
         H            0.274507286162     0.674343098691     6.105935657942     1.007825032230
         O           -5.192192605047     1.678526554224    -1.086962908459    15.994914619570
         H           -3.516094348893     1.395676127218    -0.445982924513     1.007825032230
         H           -6.372192399840     0.769048613195     0.123937687938     1.007825032230
         O            1.569468569798     5.593470278609    -0.484372710751    15.994914619570
         H            0.508716162699     4.144296004779    -0.119744385666     1.007825032230
         H            3.283693940259     5.348121466563     0.012610142435     1.007825032230

  Charge       = -1
  Multiplicity = 1
  Basis Set: AUG-CC-PVTZ
    Blend: AUG-CC-PVTZ
  Basis Set: (AUG-CC-PVTZ AUX)
    Blend: AUG-CC-PVTZ-JKFIT

    Orbital Energies [Eh]
    ---------------------

    Doubly Occupied:

       1A    -26.006710     2A    -20.420402     3A    -20.413119
       4A    -20.411830     5A    -20.410094     6A    -20.408376
       7A    -20.401403     8A     -1.275018     9A     -1.216334
      10A     -1.197095    11A     -1.193410    12A     -1.187992
      13A     -1.183864    14A     -1.182201    15A     -0.581350
      16A     -0.580349    17A     -0.571123    18A     -0.566519
      19A     -0.562924    20A     -0.555469    21A     -0.460657
      22A     -0.439492    23A     -0.431479    24A     -0.422044
      25A     -0.420034    26A     -0.413268    27A     -0.369769
      28A     -0.368496    29A     -0.363840    30A     -0.361992
      31A     -0.360814    32A     -0.355904    33A     -0.354209
      34A     -0.344023    35A     -0.341562

  @DF-RHF Final Energy:  -555.91964887366123

   => Energetics <=

    Nuclear Repulsion Energy =            349.6588350467782789
    One-Electron Energy =               -1478.8906288936198052
    Two-Electron Energy =                 573.3121449731803523
    Total Energy =                       -555.9196488736612309
 Dipole X            :         -2.2903348            2.2225806           -0.0677542
 Dipole Y            :        -32.4415173           31.3475725           -1.0939448
 Dipole Z            :         -7.0994199            8.2942555            1.1948356
 Magnitude           :                                                    1.6214000
  Basis Set: (AUG-CC-PVTZ AUX)
    Blend: AUG-CC-PVTZ-RI
	 Reference Energy          =    -555.9196488736612309 [Eh]
	 Singles Energy            =      -0.0000000000000000 [Eh]
	 Same-Spin Energy          =      -0.5017177991972773 [Eh]
	 Opposite-Spin Energy      =      -1.5316727727489436 [Eh]
	 Correlation Energy        =      -2.0333905719462209 [Eh]
	 Total Energy              =    -557.9530394456074873 [Eh]

	 ================> DF-SCS-MP2 Energies <==================
	-----------------------------------------------------------
	 SCS Same-Spin Scale       =       0.3333333333333333 [-]
	 SCS Opposite-Spin Scale   =       1.2000000000000000 [-]
	 SCS Same-Spin Energy      =      -0.1672392663990924 [Eh]
	 SCS Opposite-Spin Energy  =      -1.8380073272987323 [Eh]
	 SCS Correlation Energy    =      -2.0052465936978248 [Eh]
	 SCS Total Energy          =    -557.9248954673590788 [Eh]
	-----------------------------------------------------------

*** Psi4 exiting successfully. Buy a developer a beer!
