                               Psi4 1.9 release

  ==> Input File <==

--------------------------------------------------------------------------
MEMORY 60 GB

molecule dimer {
-1 1
F      0.000000     0.000000     0.000000
--
0 1
O     -1.944527     0.667499    -2.037884
H     -1.368387     0.229404    -1.388126
H     -1.725369     0.146857    -2.796287
O      2.643442     0.923070     0.544992
H      1.757284     0.494516     0.594070
H      2.927492     0.930628     1.470439
O     -0.089574    -2.415065     1.212511
H     -0.321483    -1.491225     0.904779
H      0.328480    -2.335764     2.040561
O      1.394067     1.308528    -2.063548
H      1.073967     0.850781    -1.278231
H      0.906903     2.092693    -2.265606
O     -2.338432     0.730854     1.212540
H     -2.409960     1.553376     1.716659
H     -1.476015     0.775888     0.745875

units ang
no_reorient
no_com
symmetry c1
}

set {
basis        aug-cc-pVTZ
scf_type     df
}

energy("mp2", bsse_type="cp")
--------------------------------------------------------------------------

                               Psi4 1.9 release
    Molecular point group: c1
  Charge       = 0
  Multiplicity = 1
  Basis Set: AUG-CC-PVTZ
    Blend: AUG-CC-PVTZ
  Basis Set: (AUG-CC-PVTZ AUX)
    Blend: AUG-CC-PVTZ-JKFIT
  @DF-RHF Final Energy:  -380.27369543398959
    Total Energy =                       -380.2736954339895874
 Dipole X            :          5.8553183           -5.6451411            0.2101772
 Dipole Y            :        -23.8914556           24.5026463            0.6111906
 Dipole Z            :         18.8910129          -17.5876414            1.3033715
 Magnitude           :                                                    1.4548216
  Basis Set: (AUG-CC-PVTZ AUX)
    Blend: AUG-CC-PVTZ-RI
	 Reference Energy          =    -380.2736954339895874 [Eh]
	 Singles Energy            =      -0.0000000000000000 [Eh]
	 Same-Spin Energy          =      -0.3453536224872446 [Eh]
	 Opposite-Spin Energy      =      -1.0854502266987820 [Eh]
	 Correlation Energy        =      -1.4308038491860267 [Eh]
	 Total Energy              =    -381.7044992831756076 [Eh]
	 SCS Total Energy          =    -381.6913535801905368 [Eh]
                               Psi4 1.9 release
    Molecular point group: c1
  Multiplicity = 1
  Basis Set: AUG-CC-PVTZ
    Blend: AUG-CC-PVTZ
  Basis Set: (AUG-CC-PVTZ AUX)
    Blend: AUG-CC-PVTZ-JKFIT
  @DF-RHF Final Energy:   -99.45110306359335
    Total Energy =                        -99.4511030635933508
  Basis Set: (AUG-CC-PVTZ AUX)
	 Singles Energy            =      -0.0000000000000000 [Eh]
	 Same-Spin Energy          =      -0.0820522153161247 [Eh]
	 Opposite-Spin Energy      =      -0.2300500712677034 [Eh]
	 Correlation Energy        =      -0.3121022865838282 [Eh]
	 Total Energy              =     -99.7632053501771736 [Eh]
	 SCS Total Energy          =     -99.7545138875533013 [Eh]
                               Psi4 1.9 release
    Molecular point group: c1

    Geometry (in Bohr), charge = -1, multiplicity = 1:

       Center              X                  Y                   Z               Mass
    ------------   -----------------  -----------------  -----------------  -----------------
         F            0.000000000000     0.000000000000     0.000000000000    18.998403162730
         O           -3.674623473558     1.261390299017    -3.851042635453    15.994914619570
         H           -2.585876663637     0.433510732085    -2.623177967627     1.007825032230
         H           -3.260474875355     0.277519509606    -5.284216598178     1.007825032230
         O            4.995381408532     1.744349494626     1.029885620566    15.994914619570
         H            3.320785484649     0.934499804657     1.122629599351     1.007825032230
         H            5.532158114469     1.758632044683     2.778726994192     1.007825032230
         O           -0.169270327962    -4.563811425179     2.291313714105    15.994914619570
         H           -0.607514823991    -2.818006841436     1.709784514066     1.007825032230
         H            0.620737237690    -4.413954253704     3.856101432290     1.007825032230
         O            2.634404830539     2.472759547493    -3.899540566736    15.994914619570
         H            2.029503497780     1.607743082743    -2.415506515070     1.007825032230
         H            1.713798292356     3.954616634663    -4.281374848194     1.007825032230
         O           -4.418996043007     1.381113897695     2.291368516163    15.994914619570
         H           -4.554164373308     2.935455209859     3.244015360802     1.007825032230
         H           -2.789264107068     1.466215824029     1.409499473826     1.007825032230

  Charge       = -1
  Multiplicity = 1
  Basis Set: AUG-CC-PVTZ
    Blend: AUG-CC-PVTZ
  Basis Set: (AUG-CC-PVTZ AUX)
    Blend: AUG-CC-PVTZ-JKFIT

    Orbital Energies [Eh]
    ---------------------

    Doubly Occupied:

       1A    -25.990887     2A    -20.411306     3A    -20.402754
       4A    -20.401892     5A    -20.389436     6A    -20.379662
       7A     -1.258314     8A     -1.192534     9A     -1.189205
      10A     -1.180885    11A     -1.175596    12A     -1.169771
      13A     -0.570727    14A     -0.556612    15A     -0.550356
      16A     -0.543296    17A     -0.537918    18A     -0.438826
      19A     -0.432672    20A     -0.422977    21A     -0.418661
      22A     -0.398287    23A     -0.358304    24A     -0.353650
      25A     -0.350100    26A     -0.347740    27A     -0.345053
      28A     -0.338211    29A     -0.329507    30A     -0.325833

  @DF-RHF Final Energy:  -479.84950448899224

   => Energetics <=

    Nuclear Repulsion Energy =            263.8588032980915159
    One-Electron Energy =               -1201.8946638764002728
    Two-Electron Energy =                 458.1863560893165186
    Total Energy =                       -479.8495044889922383
 Dipole X            :          5.9122076           -5.6451411            0.2670665
 Dipole Y            :        -24.0350522           24.5026463            0.4675940
 Dipole Z            :         18.8898214          -17.5876414            1.3021801
 Magnitude           :                                                    1.4091280
  Basis Set: (AUG-CC-PVTZ AUX)
    Blend: AUG-CC-PVTZ-RI
	 Reference Energy          =    -479.8495044889922383 [Eh]
	 Singles Energy            =      -0.0000000000000000 [Eh]
	 Same-Spin Energy          =      -0.4330292924809322 [Eh]
	 Opposite-Spin Energy      =      -1.3150878137908406 [Eh]
	 Correlation Energy        =      -1.7481171062717729 [Eh]
	 Total Energy              =    -481.5976215952640018 [Eh]

	 ================> DF-SCS-MP2 Energies <==================
	-----------------------------------------------------------
	 SCS Same-Spin Scale       =       0.3333333333333333 [-]
	 SCS Opposite-Spin Scale   =       1.2000000000000000 [-]
	 SCS Same-Spin Energy      =      -0.1443430974936441 [Eh]
	 SCS Opposite-Spin Energy  =      -1.5781053765490087 [Eh]
	 SCS Correlation Energy    =      -1.7224484740426529 [Eh]
	 SCS Total Energy          =    -481.5719529630349030 [Eh]
	-----------------------------------------------------------

*** Psi4 exiting successfully. Buy a developer a beer!
