                               Psi4 1.9 release

  ==> Input File <==

--------------------------------------------------------------------------
MEMORY 60 GB

molecule dimer {
-1 1
F      0.000000     0.000000     0.000000
--
0 1
O     -0.952365     1.069811     2.420031
H     -1.809142     1.433385     2.206942
H     -0.677213     0.589182     1.599917
O     -2.646160    -0.758425    -0.155469
H     -1.673478    -0.567133     0.114755
H     -2.882933    -1.589745     0.287001
O     -0.629425     1.382429    -2.327001
H     -0.579909     1.003938    -1.422959
H     -1.177112     2.140621    -2.269006
O      2.229730     1.512680     0.749307
H      1.907904     1.873311     1.582375
H      1.496351     0.913088     0.515515
O      0.351042    -2.383392     1.594232
H     -0.034028    -1.661486     0.966528
H      1.180438    -2.089714     1.976787

units ang
no_reorient
no_com
symmetry c1
}

set {
basis        aug-cc-pVTZ
scf_type     df
}

energy("mp2", bsse_type="cp")
--------------------------------------------------------------------------

                               Psi4 1.9 release
    Molecular point group: c1
  Charge       = 0
  Multiplicity = 1
  Basis Set: AUG-CC-PVTZ
    Blend: AUG-CC-PVTZ
  Basis Set: (AUG-CC-PVTZ AUX)
    Blend: AUG-CC-PVTZ-JKFIT
  @DF-RHF Final Energy:  -380.26635297716541
    Total Energy =                       -380.2663529771654112
 Dipole X            :         32.1853644          -32.9313993           -0.7460348
 Dipole Y            :        -16.0567190           16.3088486            0.2521295
 Dipole Z            :        -44.2529520           44.9880579            0.7351059
 Magnitude           :                                                    1.0772734
  Basis Set: (AUG-CC-PVTZ AUX)
    Blend: AUG-CC-PVTZ-RI
	 Reference Energy          =    -380.2663529771654112 [Eh]
	 Singles Energy            =      -0.0000000000000000 [Eh]
	 Same-Spin Energy          =      -0.3461923971300696 [Eh]
	 Opposite-Spin Energy      =      -1.0893471567589408 [Eh]
	 Correlation Energy        =      -1.4355395538890103 [Eh]
	 Total Energy              =    -381.7018925310543978 [Eh]
	 SCS Total Energy          =    -381.6889670309861913 [Eh]
                               Psi4 1.9 release
    Molecular point group: c1
  Multiplicity = 1
  Basis Set: AUG-CC-PVTZ
    Blend: AUG-CC-PVTZ
  Basis Set: (AUG-CC-PVTZ AUX)
    Blend: AUG-CC-PVTZ-JKFIT
  @DF-RHF Final Energy:   -99.45111273647601
    Total Energy =                        -99.4511127364760057
  Basis Set: (AUG-CC-PVTZ AUX)
	 Singles Energy            =      -0.0000000000000000 [Eh]
	 Same-Spin Energy          =      -0.0820685545523649 [Eh]
	 Opposite-Spin Energy      =      -0.2301895526208569 [Eh]
	 Correlation Energy        =      -0.3122581071732219 [Eh]
	 Total Energy              =     -99.7633708436492270 [Eh]
	 SCS Total Energy          =     -99.7546963844718277 [Eh]
                               Psi4 1.9 release
    Molecular point group: c1

    Geometry (in Bohr), charge = -1, multiplicity = 1:

       Center              X                  Y                   Z               Mass
    ------------   -----------------  -----------------  -----------------  -----------------
         F            0.000000000000     0.000000000000     0.000000000000    18.998403162730
         O           -1.799709021472     2.021649796002     4.573195805118    15.994914619570
         H           -3.418782902063     2.708705082339     4.170515954770     1.007825032230
         H           -1.279747098600     1.113392618049     3.023404953464     1.007825032230
         O           -5.000517684141    -1.433215536700    -0.293793830999    15.994914619570
         H           -3.162415096979    -1.071726046709     0.216855521527     1.007825032230
         H           -5.447953808045    -3.004182659316     0.542353287733     1.007825032230
         O           -1.189440866516     2.612412197891    -4.397394583666    15.994914619570
         H           -1.095869187688     1.897167866940    -2.689002797755     1.007825032230
         H           -2.224419298990     4.045187428404    -4.287799917021     1.007825032230
         O            4.213579033717     2.858550915458     1.415985013888    15.994914619570
         H            3.605416033665     3.540044737808     2.990255377771     1.007825032230
         H            2.827693577555     1.725486248442     0.974182163565     1.007825032230
         O            0.663373238533    -4.503958129607     3.012661860441    15.994914619570
         H           -0.064303600597    -3.139753501282     1.826473212587     1.007825032230
         H            2.230704528083    -3.948987140535     3.735586038365     1.007825032230

  Charge       = -1
  Multiplicity = 1
  Basis Set: AUG-CC-PVTZ
    Blend: AUG-CC-PVTZ
  Basis Set: (AUG-CC-PVTZ AUX)
    Blend: AUG-CC-PVTZ-JKFIT

    Orbital Energies [Eh]
    ---------------------

    Doubly Occupied:

       1A    -26.009152     2A    -20.415159     3A    -20.414266
       4A    -20.413511     5A    -20.399633     6A    -20.395287
       7A     -1.276924     8A     -1.196485     9A     -1.184070
      10A     -1.182888    11A     -1.179543    12A     -1.179013
      13A     -0.567770    14A     -0.560034    15A     -0.558012
      16A     -0.549481    17A     -0.538678    18A     -0.444268
      19A     -0.437420    20A     -0.430940    21A     -0.424270
      22A     -0.416772    23A     -0.366311    24A     -0.362760
      25A     -0.359626    26A     -0.358078    27A     -0.351996
      28A     -0.348659    29A     -0.343295    30A     -0.341175

  @DF-RHF Final Energy:  -479.85577711298430

   => Energetics <=

    Nuclear Repulsion Energy =            263.8506937295015859
    One-Electron Energy =               -1201.4019877432665453
    Two-Electron Energy =                 457.6955169007806603
    Total Energy =                       -479.8557771129842990
 Dipole X            :         32.5632445          -32.9313993           -0.3681547
 Dipole Y            :        -16.1829263           16.3088486            0.1259222
 Dipole Z            :        -44.6889144           44.9880579            0.2991436
 Magnitude           :                                                    0.4907965
  Basis Set: (AUG-CC-PVTZ AUX)
    Blend: AUG-CC-PVTZ-RI
	 Reference Energy          =    -479.8557771129842990 [Eh]
	 Singles Energy            =      -0.0000000000000000 [Eh]
	 Same-Spin Energy          =      -0.4342267552491101 [Eh]
	 Opposite-Spin Energy      =      -1.3184762300649473 [Eh]
	 Correlation Energy        =      -1.7527029853140574 [Eh]
	 Total Energy              =    -481.6084800982983438 [Eh]

	 ================> DF-SCS-MP2 Energies <==================
	-----------------------------------------------------------
	 SCS Same-Spin Scale       =       0.3333333333333333 [-]
	 SCS Opposite-Spin Scale   =       1.2000000000000000 [-]
	 SCS Same-Spin Energy      =      -0.1447422517497034 [Eh]
	 SCS Opposite-Spin Energy  =      -1.5821714760779366 [Eh]
	 SCS Correlation Energy    =      -1.7269137278276401 [Eh]
	 SCS Total Energy          =    -481.5826908408119493 [Eh]
	-----------------------------------------------------------

*** Psi4 exiting successfully. Buy a developer a beer!
