                               Psi4 1.8.2 release

  ==> Input File <==

--------------------------------------------------------------------------
MEMORY 60 GB

molecule dimer {
0 1
Gh(F)      0.000000     0.000000     0.000000
Gh(O)     -2.059057     0.556806    -1.512511
Gh(H)     -1.631697     0.750314    -2.355200
Gh(H)     -1.337052     0.357530    -0.924989
O         -1.092632     0.531104     2.514755
H         -0.595685     0.472327     1.701018
H         -0.807881     1.360419     2.908593
Gh(O)      1.853987     2.045109    -0.296217
Gh(H)      1.205149     1.477398     0.090440
Gh(H)      1.333577     2.420067    -1.019413

units ang
no_reorient
no_com
symmetry c1
}

set {
basis        aug-cc-pVTZ
scf_type     df
}

energy("mp2")
--------------------------------------------------------------------------

    Molecular point group: c1

    Geometry (in Angstrom), charge = 0, multiplicity = 1:

       Center              X                  Y                   Z               Mass
    ------------   -----------------  -----------------  -----------------  -----------------
      Gh(F)           0.000000000000     0.000000000000     0.000000000000    18.998403162730
      Gh(O)          -2.059057000000     0.556806000000    -1.512511000000    15.994914619570
      Gh(H)          -1.631697000000     0.750314000000    -2.355200000000     1.007825032230
      Gh(H)          -1.337052000000     0.357530000000    -0.924989000000     1.007825032230
         O           -1.092632000000     0.531104000000     2.514755000000    15.994914619570
         H           -0.595685000000     0.472327000000     1.701018000000     1.007825032230
         H           -0.807881000000     1.360419000000     2.908593000000     1.007825032230
      Gh(O)           1.853987000000     2.045109000000    -0.296217000000    15.994914619570
      Gh(H)           1.205149000000     1.477398000000     0.090440000000     1.007825032230
      Gh(H)           1.333577000000     2.420067000000    -1.019413000000     1.007825032230

  Charge       = 0
  Multiplicity = 1
  Basis Set: AUG-CC-PVTZ
    Blend: AUG-CC-PVTZ
  Basis Set: (AUG-CC-PVTZ AUX)
    Blend: AUG-CC-PVTZ-JKFIT

    Orbital Energies [Eh]
    ---------------------

    Doubly Occupied:

       1A    -20.567417     2A     -1.353159     3A     -0.716951
       4A     -0.585015     5A     -0.510306

  @DF-RHF Final Energy:   -76.06056361278655

   => Energetics <=

    Nuclear Repulsion Energy =              9.1852790202734305
    One-Electron Energy =                -123.0259846661630974
    Two-Electron Energy =                  37.7801420331031181
    Total Energy =                        -76.0605636127865523
 Dipole X            :         19.6907464          -19.1705572            0.5201892
 Dipole Y            :        -10.9809026           11.4925168            0.5116142
 Dipole Z            :        -47.0086687           46.7284881           -0.2801806
 Magnitude           :                                                    0.7815670
  Basis Set: (AUG-CC-PVTZ AUX)
    Blend: AUG-CC-PVTZ-RI
	 Reference Energy          =     -76.0605636127865523 [Eh]
	 Singles Energy            =      -0.0000000000000000 [Eh]
	 Same-Spin Energy          =      -0.0684055964777192 [Eh]
	 Opposite-Spin Energy      =      -0.2159081439987273 [Eh]
	 Correlation Energy        =      -0.2843137404764465 [Eh]
	 Total Energy              =     -76.3448773532630014 [Eh]

	 ================> DF-SCS-MP2 Energies <==================
	-----------------------------------------------------------
	 SCS Same-Spin Scale       =       0.3333333333333333 [-]
	 SCS Opposite-Spin Scale   =       1.2000000000000000 [-]
	 SCS Same-Spin Energy      =      -0.0228018654925731 [Eh]
	 SCS Opposite-Spin Energy  =      -0.2590897727984728 [Eh]
	 SCS Correlation Energy    =      -0.2818916382910459 [Eh]
	 SCS Total Energy          =     -76.3424552510775953 [Eh]
	-----------------------------------------------------------

*** Psi4 exiting successfully. Buy a developer a beer!
