                               Psi4 1.8.2 release

  ==> Input File <==

--------------------------------------------------------------------------
MEMORY 60 GB

molecule dimer {
0 1
Gh(F)      0.000000     0.000000     0.000000
O         -0.457010    -0.913459     2.874606
H         -0.306480    -0.682030     1.919254
H          0.333257    -0.768961     3.330802
Gh(O)     -1.736364     1.604014    -1.591024
Gh(H)     -1.392750     1.031544    -0.917866
Gh(H)     -2.603083     1.329404    -1.841321
Gh(O)      0.819239     2.289400     1.312707
Gh(H)      0.597058     2.285995     2.245025
Gh(H)      0.522724     1.425126     0.938345
Gh(O)      2.214721     0.612757    -1.586063
Gh(H)      1.959488     0.830819    -2.501662
Gh(H)      1.438663     0.411088    -1.114963
Gh(O)     -1.059183    -2.036592    -1.488676
Gh(H)     -0.695984    -1.884564    -2.350649
Gh(H)     -0.551134    -1.260861    -1.152770

units ang
no_reorient
no_com
symmetry c1
}

set {
basis        aug-cc-pVTZ
scf_type     df
}

energy("mp2")
--------------------------------------------------------------------------

    Molecular point group: c1

    Geometry (in Angstrom), charge = 0, multiplicity = 1:

       Center              X                  Y                   Z               Mass
    ------------   -----------------  -----------------  -----------------  -----------------
      Gh(F)           0.000000000000     0.000000000000     0.000000000000    18.998403162730
         O           -0.457010000000    -0.913459000000     2.874606000000    15.994914619570
         H           -0.306480000000    -0.682030000000     1.919254000000     1.007825032230
         H            0.333257000000    -0.768961000000     3.330802000000     1.007825032230
      Gh(O)          -1.736364000000     1.604014000000    -1.591024000000    15.994914619570
      Gh(H)          -1.392750000000     1.031544000000    -0.917866000000     1.007825032230
      Gh(H)          -2.603083000000     1.329404000000    -1.841321000000     1.007825032230
      Gh(O)           0.819239000000     2.289400000000     1.312707000000    15.994914619570
      Gh(H)           0.597058000000     2.285995000000     2.245025000000     1.007825032230
      Gh(H)           0.522724000000     1.425126000000     0.938345000000     1.007825032230
      Gh(O)           2.214721000000     0.612757000000    -1.586063000000    15.994914619570
      Gh(H)           1.959488000000     0.830819000000    -2.501662000000     1.007825032230
      Gh(H)           1.438663000000     0.411088000000    -1.114963000000     1.007825032230
      Gh(O)          -1.059183000000    -2.036592000000    -1.488676000000    15.994914619570
      Gh(H)          -0.695984000000    -1.884564000000    -2.350649000000     1.007825032230
      Gh(H)          -0.551134000000    -1.260861000000    -1.152770000000     1.007825032230

  Charge       = 0
  Multiplicity = 1
  Basis Set: AUG-CC-PVTZ
    Blend: AUG-CC-PVTZ
  Basis Set: (AUG-CC-PVTZ AUX)
    Blend: AUG-CC-PVTZ-JKFIT

    Orbital Energies [Eh]
    ---------------------

    Doubly Occupied:

       1A    -20.565647     2A     -1.351328     3A     -0.723622
       4A     -0.577422     5A     -0.509247

  @DF-RHF Final Energy:   -76.05794536421007

   => Energetics <=

    Nuclear Repulsion Energy =              9.1803168630912424
    One-Electron Energy =                -123.0219886793434796
    Two-Electron Energy =                  37.7837264520421741
    Total Energy =                        -76.0579453642100702
 Dipole X            :          7.4950922           -6.8583887            0.6367035
 Dipole Y            :         16.8033729          -16.5514743            0.2518986
 Dipole Z            :        -53.7046023           53.3789125           -0.3256899
 Magnitude           :                                                    0.7582335
  Basis Set: (AUG-CC-PVTZ AUX)
    Blend: AUG-CC-PVTZ-RI
	 Reference Energy          =     -76.0579453642100702 [Eh]
	 Singles Energy            =      -0.0000000000000000 [Eh]
	 Same-Spin Energy          =      -0.0683560334966056 [Eh]
	 Opposite-Spin Energy      =      -0.2158523815373229 [Eh]
	 Correlation Energy        =      -0.2842084150339285 [Eh]
	 Total Energy              =     -76.3421537792440006 [Eh]

	 ================> DF-SCS-MP2 Energies <==================
	-----------------------------------------------------------
	 SCS Same-Spin Scale       =       0.3333333333333333 [-]
	 SCS Opposite-Spin Scale   =       1.2000000000000000 [-]
	 SCS Same-Spin Energy      =      -0.0227853444988685 [Eh]
	 SCS Opposite-Spin Energy  =      -0.2590228578447874 [Eh]
	 SCS Correlation Energy    =      -0.2818082023436559 [Eh]
	 SCS Total Energy          =     -76.3397535665537248 [Eh]
	-----------------------------------------------------------

*** Psi4 exiting successfully. Buy a developer a beer!
