                               Psi4 1.8.2 release

  ==> Input File <==

--------------------------------------------------------------------------
MEMORY 60 GB

molecule dimer {
0 1
Gh(F)      0.000000     0.000000     0.000000
Gh(O)     -0.331381     0.249282     2.779760
Gh(H)     -0.320730    -0.003331     1.859362
Gh(H)      0.462546    -0.102102     3.256506
Gh(O)     -2.816888     0.081699     0.065921
Gh(H)     -1.864288    -0.047694     0.059424
Gh(H)     -3.167471    -0.299167     0.838096
Gh(O)      0.698056    -1.115714    -2.643289
Gh(H)      0.021217    -0.824182    -3.293089
Gh(H)      0.590159    -0.734498    -1.765903
Gh(O)     -1.216980     2.387973    -1.254426
Gh(H)     -0.806494     1.629908    -0.785597
Gh(H)     -0.745204     3.218407    -0.927778
O          1.187241    -2.160570     1.374618
H          1.300436    -2.883562     0.707615
H          0.669894    -1.398415     0.902330

units ang
no_reorient
no_com
symmetry c1
}

set {
basis        aug-cc-pVTZ
scf_type     df
}

energy("mp2")
--------------------------------------------------------------------------

    Molecular point group: c1

    Geometry (in Angstrom), charge = 0, multiplicity = 1:

       Center              X                  Y                   Z               Mass
    ------------   -----------------  -----------------  -----------------  -----------------
      Gh(F)           0.000000000000     0.000000000000     0.000000000000    18.998403162730
      Gh(O)          -0.331381000000     0.249282000000     2.779760000000    15.994914619570
      Gh(H)          -0.320730000000    -0.003331000000     1.859362000000     1.007825032230
      Gh(H)           0.462546000000    -0.102102000000     3.256506000000     1.007825032230
      Gh(O)          -2.816888000000     0.081699000000     0.065921000000    15.994914619570
      Gh(H)          -1.864288000000    -0.047694000000     0.059424000000     1.007825032230
      Gh(H)          -3.167471000000    -0.299167000000     0.838096000000     1.007825032230
      Gh(O)           0.698056000000    -1.115714000000    -2.643289000000    15.994914619570
      Gh(H)           0.021217000000    -0.824182000000    -3.293089000000     1.007825032230
      Gh(H)           0.590159000000    -0.734498000000    -1.765903000000     1.007825032230
      Gh(O)          -1.216980000000     2.387973000000    -1.254426000000    15.994914619570
      Gh(H)          -0.806494000000     1.629908000000    -0.785597000000     1.007825032230
      Gh(H)          -0.745204000000     3.218407000000    -0.927778000000     1.007825032230
         O            1.187241000000    -2.160570000000     1.374618000000    15.994914619570
         H            1.300436000000    -2.883562000000     0.707615000000     1.007825032230
         H            0.669894000000    -1.398415000000     0.902330000000     1.007825032230

  Charge       = 0
  Multiplicity = 1
  Basis Set: AUG-CC-PVTZ
    Blend: AUG-CC-PVTZ
  Basis Set: (AUG-CC-PVTZ AUX)
    Blend: AUG-CC-PVTZ-JKFIT

    Orbital Energies [Eh]
    ---------------------

    Doubly Occupied:

       1A    -20.575348     2A     -1.325809     3A     -0.692432
       4A     -0.569901     5A     -0.505421

  @DF-RHF Final Energy:   -76.05080299955965

   => Energetics <=

    Nuclear Repulsion Energy =              8.6906616510476500
    One-Electron Energy =                -122.1451015489463003
    Two-Electron Energy =                  37.4036368983390091
    Total Energy =                        -76.0508029995596360
 Dipole X            :        -21.9307930           21.6718668           -0.2589262
 Dipole Y            :         40.7738216          -40.7548484            0.0189732
 Dipole Z            :        -24.5618984           23.8235675           -0.7383309
 Magnitude           :                                                    0.7826463
  Basis Set: (AUG-CC-PVTZ AUX)
    Blend: AUG-CC-PVTZ-RI
	 Reference Energy          =     -76.0508029995596502 [Eh]
	 Singles Energy            =      -0.0000000000000000 [Eh]
	 Same-Spin Energy          =      -0.0693280055264270 [Eh]
	 Opposite-Spin Energy      =      -0.2190023456537442 [Eh]
	 Correlation Energy        =      -0.2883303511801713 [Eh]
	 Total Energy              =     -76.3391333507398144 [Eh]

	 ================> DF-SCS-MP2 Energies <==================
	-----------------------------------------------------------
	 SCS Same-Spin Scale       =       0.3333333333333333 [-]
	 SCS Opposite-Spin Scale   =       1.2000000000000000 [-]
	 SCS Same-Spin Energy      =      -0.0231093351754757 [Eh]
	 SCS Opposite-Spin Energy  =      -0.2628028147844931 [Eh]
	 SCS Correlation Energy    =      -0.2859121499599688 [Eh]
	 SCS Total Energy          =     -76.3367151495196197 [Eh]
	-----------------------------------------------------------

*** Psi4 exiting successfully. Buy a developer a beer!
