                               Psi4 1.8.2 release

  ==> Input File <==

--------------------------------------------------------------------------
MEMORY 60 GB

molecule dimer {
0 1
Gh(F)      0.000000     0.000000     0.000000
Gh(O)     -0.397648    -0.910418     2.622164
Gh(H)     -0.278439    -0.332943     1.846098
Gh(H)     -0.948382    -1.629149     2.239891
O          0.397013     2.439291     1.895123
H          0.857906     1.621274     1.666906
H         -0.315526     2.168674     2.538856
Gh(O)      1.430544    -2.203104    -0.374068
Gh(H)      0.802760    -1.465357    -0.109589
Gh(H)      2.163364    -2.326051     0.230939
Gh(O)     -2.107879    -1.075061    -1.420751
Gh(H)     -1.468864    -0.523104    -0.966716
Gh(H)     -2.939395    -0.987639    -0.873767
Gh(O)      1.169294     1.920077    -2.056293
Gh(H)      0.738830     1.355211    -1.379914
Gh(H)      1.743484     1.303436    -2.480539
Gh(O)     -1.806412     1.932441     0.047936
Gh(H)     -1.097988     1.281221     0.130003
Gh(H)     -1.594507     2.797864     0.448413

units ang
no_reorient
no_com
symmetry c1
}

set {
basis        aug-cc-pVTZ
scf_type     df
}

energy("mp2")
--------------------------------------------------------------------------

    Molecular point group: c1

    Geometry (in Angstrom), charge = 0, multiplicity = 1:

       Center              X                  Y                   Z               Mass
    ------------   -----------------  -----------------  -----------------  -----------------
      Gh(F)           0.000000000000     0.000000000000     0.000000000000    18.998403162730
      Gh(O)          -0.397648000000    -0.910418000000     2.622164000000    15.994914619570
      Gh(H)          -0.278439000000    -0.332943000000     1.846098000000     1.007825032230
      Gh(H)          -0.948382000000    -1.629149000000     2.239891000000     1.007825032230
         O            0.397013000000     2.439291000000     1.895123000000    15.994914619570
         H            0.857906000000     1.621274000000     1.666906000000     1.007825032230
         H           -0.315526000000     2.168674000000     2.538856000000     1.007825032230
      Gh(O)           1.430544000000    -2.203104000000    -0.374068000000    15.994914619570
      Gh(H)           0.802760000000    -1.465357000000    -0.109589000000     1.007825032230
      Gh(H)           2.163364000000    -2.326051000000     0.230939000000     1.007825032230
      Gh(O)          -2.107879000000    -1.075061000000    -1.420751000000    15.994914619570
      Gh(H)          -1.468864000000    -0.523104000000    -0.966716000000     1.007825032230
      Gh(H)          -2.939395000000    -0.987639000000    -0.873767000000     1.007825032230
      Gh(O)           1.169294000000     1.920077000000    -2.056293000000    15.994914619570
      Gh(H)           0.738830000000     1.355211000000    -1.379914000000     1.007825032230
      Gh(H)           1.743484000000     1.303436000000    -2.480539000000     1.007825032230
      Gh(O)          -1.806412000000     1.932441000000     0.047936000000    15.994914619570
      Gh(H)          -1.097988000000     1.281221000000     0.130003000000     1.007825032230
      Gh(H)          -1.594507000000     2.797864000000     0.448413000000     1.007825032230

  Charge       = 0
  Multiplicity = 1
  Basis Set: AUG-CC-PVTZ
    Blend: AUG-CC-PVTZ
  Basis Set: (AUG-CC-PVTZ AUX)
    Blend: AUG-CC-PVTZ-JKFIT

    Orbital Energies [Eh]
    ---------------------

    Doubly Occupied:

       1A    -20.570901     2A     -1.340771     3A     -0.705858
       4A     -0.578525     5A     -0.508137

  @DF-RHF Final Energy:   -76.05756662581815

   => Energetics <=

    Nuclear Repulsion Energy =              8.9635523221983089
    One-Electron Energy =                -122.6338495058348457
    Two-Electron Energy =                  37.6127305578183808
    Total Energy =                        -76.0575666258181542
 Dipole X            :         -7.1879127            7.0269164           -0.1609963
 Dipole Y            :        -44.7552343           44.0386992           -0.7165351
 Dipole Z            :        -36.3280590           36.5978459            0.2697869
 Magnitude           :                                                    0.7823857
  Basis Set: (AUG-CC-PVTZ AUX)
    Blend: AUG-CC-PVTZ-RI
	 Reference Energy          =     -76.0575666258181542 [Eh]
	 Singles Energy            =      -0.0000000000000000 [Eh]
	 Same-Spin Energy          =      -0.0688333683629571 [Eh]
	 Opposite-Spin Energy      =      -0.2172966760162530 [Eh]
	 Correlation Energy        =      -0.2861300443792101 [Eh]
	 Total Energy              =     -76.3436966701973603 [Eh]

	 ================> DF-SCS-MP2 Energies <==================
	-----------------------------------------------------------
	 SCS Same-Spin Scale       =       0.3333333333333333 [-]
	 SCS Opposite-Spin Scale   =       1.2000000000000000 [-]
	 SCS Same-Spin Energy      =      -0.0229444561209857 [Eh]
	 SCS Opposite-Spin Energy  =      -0.2607560112195036 [Eh]
	 SCS Correlation Energy    =      -0.2837004673404893 [Eh]
	 SCS Total Energy          =     -76.3412670931586490 [Eh]
	-----------------------------------------------------------

*** Psi4 exiting successfully. Buy a developer a beer!
