                               Psi4 1.9 release

  ==> Input File <==

--------------------------------------------------------------------------
MEMORY 60 GB

molecule dimer {
-1 1
F      0.000000     0.000000     0.000000
--
0 1
O      0.316579     2.487371    -1.033870
H     -0.299784     2.958747    -1.698141
H      0.068567     1.636716    -0.609642
O     -2.966622    -0.324922    -0.279360
H     -1.997157    -0.168453    -0.193960
H     -3.039299    -1.203601    -0.674475
O      2.620493     0.082477    -0.913598
H      3.090818    -0.144429    -0.074903
H      1.665367     0.173836    -0.709739
O     -1.016627     1.008044     2.356890
H     -0.498021     0.696455     1.582640
H     -1.005983     0.224406     2.964702
O     -0.584061    -0.002881    -2.710546
H      0.203428     0.427802    -3.052160
H     -0.399019    -0.109730    -1.768497

units ang
no_reorient
no_com
symmetry c1
}

set {
basis        aug-cc-pVTZ
scf_type     df
}

energy("mp2", bsse_type="cp")
--------------------------------------------------------------------------

                               Psi4 1.9 release
    Molecular point group: c1
  Charge       = 0
  Multiplicity = 1
  Basis Set: AUG-CC-PVTZ
    Blend: AUG-CC-PVTZ
  Basis Set: (AUG-CC-PVTZ AUX)
    Blend: AUG-CC-PVTZ-JKFIT
  @DF-RHF Final Energy:  -380.25702864557400
    Total Energy =                       -380.2570286455739961
 Dipole X            :         29.4432288          -28.8239680            0.6192608
 Dipole Y            :        -58.7631280           57.6224002           -1.1407279
 Dipole Z            :         47.5258118          -47.0126954            0.5131164
 Magnitude           :                                                    1.3957193
  Basis Set: (AUG-CC-PVTZ AUX)
    Blend: AUG-CC-PVTZ-RI
	 Reference Energy          =    -380.2570286455739961 [Eh]
	 Singles Energy            =      -0.0000000000000000 [Eh]
	 Same-Spin Energy          =      -0.3472955995265588 [Eh]
	 Opposite-Spin Energy      =      -1.0910575868186327 [Eh]
	 Correlation Energy        =      -1.4383531863451915 [Eh]
	 Total Energy              =    -381.6953818319191782 [Eh]
	 SCS Total Energy          =    -381.6820629495985600 [Eh]
                               Psi4 1.9 release
    Molecular point group: c1
  Multiplicity = 1
  Basis Set: AUG-CC-PVTZ
    Blend: AUG-CC-PVTZ
  Basis Set: (AUG-CC-PVTZ AUX)
    Blend: AUG-CC-PVTZ-JKFIT
  @DF-RHF Final Energy:   -99.45112073080972
    Total Energy =                        -99.4511207308097198
  Basis Set: (AUG-CC-PVTZ AUX)
	 Singles Energy            =      -0.0000000000000000 [Eh]
	 Same-Spin Energy          =      -0.0820707747202902 [Eh]
	 Opposite-Spin Energy      =      -0.2302560862551101 [Eh]
	 Correlation Energy        =      -0.3123268609754003 [Eh]
	 Total Energy              =     -99.7634475917851233 [Eh]
	 SCS Total Energy          =     -99.7547849592226186 [Eh]
                               Psi4 1.9 release
    Molecular point group: c1

    Geometry (in Bohr), charge = -1, multiplicity = 1:

       Center              X                  Y                   Z               Mass
    ------------   -----------------  -----------------  -----------------  -----------------
         F            0.000000000000     0.000000000000     0.000000000000    18.998403162730
         O            0.598247607071     4.700449962406    -1.953731149327    15.994914619570
         H           -0.566509656794     5.591221504520    -3.209021412411     1.007825032230
         H            0.129572851244     3.092944985155    -1.152056414576     1.007825032230
         O           -5.606103097758    -0.614013592136    -0.527913890408    15.994914619570
         H           -3.774079759541    -0.318330035012    -0.366531279294     1.007825032230
         H           -5.743442723378    -2.274476254327    -1.274573028468     1.007825032230
         O            4.952014083679     0.155858941649    -1.726450008766    15.994914619570
         H            5.840799523635    -0.272931254574    -0.141546155975     1.007825032230
         H            3.147087528375     0.328502430745    -1.341212330556     1.007825032230
         O           -1.921146601746     1.904927082411     4.453876607830    15.994914619570
         H           -0.941123294727     1.316109208706     2.990756155195     1.007825032230
         H           -1.901032356866     0.424065880909     5.602474823597     1.007825032230
         O           -1.103715330561    -0.005444300967    -5.122189590455    15.994914619570
         H            0.384423206250     0.808428615923    -5.767746491077     1.007825032230
         H           -0.754036628854    -0.207359647746    -3.341974983694     1.007825032230

  Charge       = -1
  Multiplicity = 1
  Basis Set: AUG-CC-PVTZ
    Blend: AUG-CC-PVTZ
  Basis Set: (AUG-CC-PVTZ AUX)
    Blend: AUG-CC-PVTZ-JKFIT

    Orbital Energies [Eh]
    ---------------------

    Doubly Occupied:

       1A    -26.006290     2A    -20.407165     3A    -20.402392
       4A    -20.401431     5A    -20.396028     6A    -20.392281
       7A     -1.275234     8A     -1.184638     9A     -1.183120
      10A     -1.173620    11A     -1.172411    12A     -1.152976
      13A     -0.564519    14A     -0.555659    15A     -0.551021
      16A     -0.545185    17A     -0.535380    18A     -0.435009
      19A     -0.430564    20A     -0.421880    21A     -0.417661
      22A     -0.392467    23A     -0.359342    24A     -0.358280
      25A     -0.355224    26A     -0.349406    27A     -0.346892
      28A     -0.340740    29A     -0.338809    30A     -0.327872

  @DF-RHF Final Energy:  -479.84489487343569

   => Energetics <=

    Nuclear Repulsion Energy =            269.3509983364475602
    One-Electron Energy =               -1212.8447854220560203
    Two-Electron Energy =                 463.6488922121727683
    Total Energy =                       -479.8448948734356918
 Dipole X            :         29.5679695          -28.8239680            0.7440014
 Dipole Y            :        -59.2859776           57.6224002           -1.6635774
 Dipole Z            :         47.8956278          -47.0126954            0.8829324
 Magnitude           :                                                    2.0249932
  Basis Set: (AUG-CC-PVTZ AUX)
    Blend: AUG-CC-PVTZ-RI
	 Reference Energy          =    -479.8448948734356918 [Eh]
	 Singles Energy            =      -0.0000000000000000 [Eh]
	 Same-Spin Energy          =      -0.4347613057419222 [Eh]
	 Opposite-Spin Energy      =      -1.3200163229925779 [Eh]
	 Correlation Energy        =      -1.7547776287345001 [Eh]
	 Total Energy              =    -481.5996725021701650 [Eh]

	 ================> DF-SCS-MP2 Energies <==================
	-----------------------------------------------------------
	 SCS Same-Spin Scale       =       0.3333333333333333 [-]
	 SCS Opposite-Spin Scale   =       1.2000000000000000 [-]
	 SCS Same-Spin Energy      =      -0.1449204352473074 [Eh]
	 SCS Opposite-Spin Energy  =      -1.5840195875910934 [Eh]
	 SCS Correlation Energy    =      -1.7289400228384009 [Eh]
	 SCS Total Energy          =    -481.5738348962740929 [Eh]
	-----------------------------------------------------------

*** Psi4 exiting successfully. Buy a developer a beer!
