                               Psi4 1.8.2 release

  ==> Input File <==

--------------------------------------------------------------------------
MEMORY 60 GB

molecule dimer {
0 1
Gh(F)      0.000000     0.000000     0.000000
Gh(O)      0.316579     2.487371    -1.033870
Gh(H)     -0.299784     2.958747    -1.698141
Gh(H)      0.068567     1.636716    -0.609642
O         -2.966622    -0.324922    -0.279360
H         -1.997157    -0.168453    -0.193960
H         -3.039299    -1.203601    -0.674475
Gh(O)      2.620493     0.082477    -0.913598
Gh(H)      3.090818    -0.144429    -0.074903
Gh(H)      1.665367     0.173836    -0.709739
Gh(O)     -1.016627     1.008044     2.356890
Gh(H)     -0.498021     0.696455     1.582640
Gh(H)     -1.005983     0.224406     2.964702
Gh(O)     -0.584061    -0.002881    -2.710546
Gh(H)      0.203428     0.427802    -3.052160
Gh(H)     -0.399019    -0.109730    -1.768497

units ang
no_reorient
no_com
symmetry c1
}

set {
basis        aug-cc-pVTZ
scf_type     df
}

energy("mp2")
--------------------------------------------------------------------------

    Molecular point group: c1

    Geometry (in Angstrom), charge = 0, multiplicity = 1:

       Center              X                  Y                   Z               Mass
    ------------   -----------------  -----------------  -----------------  -----------------
      Gh(F)           0.000000000000     0.000000000000     0.000000000000    18.998403162730
      Gh(O)           0.316579000000     2.487371000000    -1.033870000000    15.994914619570
      Gh(H)          -0.299784000000     2.958747000000    -1.698141000000     1.007825032230
      Gh(H)           0.068567000000     1.636716000000    -0.609642000000     1.007825032230
         O           -2.966622000000    -0.324922000000    -0.279360000000    15.994914619570
         H           -1.997157000000    -0.168453000000    -0.193960000000     1.007825032230
         H           -3.039299000000    -1.203601000000    -0.674475000000     1.007825032230
      Gh(O)           2.620493000000     0.082477000000    -0.913598000000    15.994914619570
      Gh(H)           3.090818000000    -0.144429000000    -0.074903000000     1.007825032230
      Gh(H)           1.665367000000     0.173836000000    -0.709739000000     1.007825032230
      Gh(O)          -1.016627000000     1.008044000000     2.356890000000    15.994914619570
      Gh(H)          -0.498021000000     0.696455000000     1.582640000000     1.007825032230
      Gh(H)          -1.005983000000     0.224406000000     2.964702000000     1.007825032230
      Gh(O)          -0.584061000000    -0.002881000000    -2.710546000000    15.994914619570
      Gh(H)           0.203428000000     0.427802000000    -3.052160000000     1.007825032230
      Gh(H)          -0.399019000000    -0.109730000000    -1.768497000000     1.007825032230

  Charge       = 0
  Multiplicity = 1
  Basis Set: AUG-CC-PVTZ
    Blend: AUG-CC-PVTZ
  Basis Set: (AUG-CC-PVTZ AUX)
    Blend: AUG-CC-PVTZ-JKFIT

    Orbital Energies [Eh]
    ---------------------

    Doubly Occupied:

       1A    -20.570261     2A     -1.344014     3A     -0.708005
       4A     -0.580872     5A     -0.508775

  @DF-RHF Final Energy:   -76.05865034138023

   => Energetics <=

    Nuclear Repulsion Energy =              9.0188363324972691
    One-Electron Energy =                -122.7311190880792111
    Two-Electron Energy =                  37.6536324142017094
    Total Energy =                        -76.0586503413802291
 Dipole X            :         54.9544850          -54.3663473            0.5881378
 Dipole Y            :          7.0276407           -7.5049150           -0.4772743
 Dipole Z            :          5.6596657           -5.8644154           -0.2047497
 Magnitude           :                                                    0.7846141
  Basis Set: (AUG-CC-PVTZ AUX)
    Blend: AUG-CC-PVTZ-RI
	 Reference Energy          =     -76.0586503413802291 [Eh]
	 Singles Energy            =      -0.0000000000000000 [Eh]
	 Same-Spin Energy          =      -0.0687261961641693 [Eh]
	 Opposite-Spin Energy      =      -0.2170728994167300 [Eh]
	 Correlation Energy        =      -0.2857990955808993 [Eh]
	 Total Energy              =     -76.3444494369611277 [Eh]

	 ================> DF-SCS-MP2 Energies <==================
	-----------------------------------------------------------
	 SCS Same-Spin Scale       =       0.3333333333333333 [-]
	 SCS Opposite-Spin Scale   =       1.2000000000000000 [-]
	 SCS Same-Spin Energy      =      -0.0229087320547231 [Eh]
	 SCS Opposite-Spin Energy  =      -0.2604874793000760 [Eh]
	 SCS Correlation Energy    =      -0.2833962113547991 [Eh]
	 SCS Total Energy          =     -76.3420465527350274 [Eh]
	-----------------------------------------------------------

*** Psi4 exiting successfully. Buy a developer a beer!
