                               Psi4 1.8.2 release

  ==> Input File <==

--------------------------------------------------------------------------
MEMORY 60 GB

molecule dimer {
0 1
Gh(F)      0.000000     0.000000     0.000000
Gh(O)      1.051129     1.096357     2.694346
Gh(H)      0.619287     1.901551     2.882839
Gh(H)      0.909597     0.954000     1.767452
Gh(O)      1.736119     1.777929    -1.101982
Gh(H)      1.243908     1.941691    -1.896130
Gh(H)      1.299520     1.022179    -0.669957
Gh(O)     -0.450907    -2.751484    -0.302061
Gh(H)     -0.441612    -3.080057     0.625078
Gh(H)     -0.079139    -1.885185    -0.236471
Gh(O)     -1.073336    -0.475456    -2.416481
Gh(H)     -1.819131     0.195421    -2.500612
Gh(H)     -0.639424    -0.295340    -1.571394
Gh(O)     -1.530930     2.318994    -0.767106
Gh(H)     -0.855521     1.628887    -0.576701
Gh(H)     -1.755147     2.231506    -1.684517
O         -1.347398    -0.607075     2.261043
H         -0.798765    -0.276198     1.560294
H         -0.935135    -1.323906     2.841048

units ang
no_reorient
no_com
symmetry c1
}

set {
basis        aug-cc-pVTZ
scf_type     df
}

energy("mp2")
--------------------------------------------------------------------------

    Molecular point group: c1

    Geometry (in Angstrom), charge = 0, multiplicity = 1:

       Center              X                  Y                   Z               Mass
    ------------   -----------------  -----------------  -----------------  -----------------
      Gh(F)           0.000000000000     0.000000000000     0.000000000000    18.998403162730
      Gh(O)           1.051129000000     1.096357000000     2.694346000000    15.994914619570
      Gh(H)           0.619287000000     1.901551000000     2.882839000000     1.007825032230
      Gh(H)           0.909597000000     0.954000000000     1.767452000000     1.007825032230
      Gh(O)           1.736119000000     1.777929000000    -1.101982000000    15.994914619570
      Gh(H)           1.243908000000     1.941691000000    -1.896130000000     1.007825032230
      Gh(H)           1.299520000000     1.022179000000    -0.669957000000     1.007825032230
      Gh(O)          -0.450907000000    -2.751484000000    -0.302061000000    15.994914619570
      Gh(H)          -0.441612000000    -3.080057000000     0.625078000000     1.007825032230
      Gh(H)          -0.079139000000    -1.885185000000    -0.236471000000     1.007825032230
      Gh(O)          -1.073336000000    -0.475456000000    -2.416481000000    15.994914619570
      Gh(H)          -1.819131000000     0.195421000000    -2.500612000000     1.007825032230
      Gh(H)          -0.639424000000    -0.295340000000    -1.571394000000     1.007825032230
      Gh(O)          -1.530930000000     2.318994000000    -0.767106000000    15.994914619570
      Gh(H)          -0.855521000000     1.628887000000    -0.576701000000     1.007825032230
      Gh(H)          -1.755147000000     2.231506000000    -1.684517000000     1.007825032230
         O           -1.347398000000    -0.607075000000     2.261043000000    15.994914619570
         H           -0.798765000000    -0.276198000000     1.560294000000     1.007825032230
         H           -0.935135000000    -1.323906000000     2.841048000000     1.007825032230

  Charge       = 0
  Multiplicity = 1
  Basis Set: AUG-CC-PVTZ
    Blend: AUG-CC-PVTZ
  Basis Set: (AUG-CC-PVTZ AUX)
    Blend: AUG-CC-PVTZ-JKFIT

    Orbital Energies [Eh]
    ---------------------

    Doubly Occupied:

       1A    -20.565169     2A     -1.335562     3A     -0.725009
       4A     -0.558864     5A     -0.504918

  @DF-RHF Final Energy:   -76.05384318664015

   => Energetics <=

    Nuclear Repulsion Energy =              8.9686259268829325
    One-Electron Energy =                -122.6658880554620339
    Two-Electron Energy =                  37.6434189419389398
    Total Energy =                        -76.0538431866401652
 Dipole X            :         24.3003647          -23.6463017            0.6540629
 Dipole Y            :         11.9433098          -12.2014022           -0.2580924
 Dipole Z            :        -42.5865182           42.4993472           -0.0871710
 Magnitude           :                                                    0.7085258
  Basis Set: (AUG-CC-PVTZ AUX)
    Blend: AUG-CC-PVTZ-RI
	 Reference Energy          =     -76.0538431866401510 [Eh]
	 Singles Energy            =      -0.0000000000000000 [Eh]
	 Same-Spin Energy          =      -0.0687370184391955 [Eh]
	 Opposite-Spin Energy      =      -0.2171819676196090 [Eh]
	 Correlation Energy        =      -0.2859189860588045 [Eh]
	 Total Energy              =     -76.3397621726989541 [Eh]

	 ================> DF-SCS-MP2 Energies <==================
	-----------------------------------------------------------
	 SCS Same-Spin Scale       =       0.3333333333333333 [-]
	 SCS Opposite-Spin Scale   =       1.2000000000000000 [-]
	 SCS Same-Spin Energy      =      -0.0229123394797318 [Eh]
	 SCS Opposite-Spin Energy  =      -0.2606183611435308 [Eh]
	 SCS Correlation Energy    =      -0.2835307006232626 [Eh]
	 SCS Total Energy          =     -76.3373738872634107 [Eh]
	-----------------------------------------------------------

*** Psi4 exiting successfully. Buy a developer a beer!
