                               Psi4 1.8.2 release

  ==> Input File <==

--------------------------------------------------------------------------
MEMORY 60 GB

molecule dimer {
-1 1
F          0.000000     0.000000     0.000000
O          0.845562    -0.845142    -2.624376
H          0.611386    -0.330636    -3.393450
H          0.621838    -0.297746    -1.856041
O         -1.432887    -0.201644     2.286168
H         -0.868654    -0.102721     1.510265
H         -2.122142     0.377979     2.070333
O          2.434561    -1.422362     0.673959
H          1.818504    -0.731838     0.351774
H          2.614628    -2.112905    -0.060771
O          1.046966     1.802363     1.828080
H          0.810625     1.228982     2.579401
H          0.730030     1.314833     1.056170
O         -1.110680    -2.734785    -0.820393
H         -0.634442    -1.868649    -0.819997
H         -1.235246    -2.898655    -1.759953
O         -1.419169     2.399701    -0.513219
H         -0.863137     1.660037    -0.332687
H         -1.453857     2.952655     0.363362

units ang
no_reorient
no_com
symmetry c1
}

set {
basis        aug-cc-pVTZ
scf_type     df
}

energy("mp2")
--------------------------------------------------------------------------

    Molecular point group: c1

    Geometry (in Angstrom), charge = -1, multiplicity = 1:

       Center              X                  Y                   Z               Mass
    ------------   -----------------  -----------------  -----------------  -----------------
         F            0.000000000000     0.000000000000     0.000000000000    18.998403162730
         O            0.845562000000    -0.845142000000    -2.624376000000    15.994914619570
         H            0.611386000000    -0.330636000000    -3.393450000000     1.007825032230
         H            0.621838000000    -0.297746000000    -1.856041000000     1.007825032230
         O           -1.432887000000    -0.201644000000     2.286168000000    15.994914619570
         H           -0.868654000000    -0.102721000000     1.510265000000     1.007825032230
         H           -2.122142000000     0.377979000000     2.070333000000     1.007825032230
         O            2.434561000000    -1.422362000000     0.673959000000    15.994914619570
         H            1.818504000000    -0.731838000000     0.351774000000     1.007825032230
         H            2.614628000000    -2.112905000000    -0.060771000000     1.007825032230
         O            1.046966000000     1.802363000000     1.828080000000    15.994914619570
         H            0.810625000000     1.228982000000     2.579401000000     1.007825032230
         H            0.730030000000     1.314833000000     1.056170000000     1.007825032230
         O           -1.110680000000    -2.734785000000    -0.820393000000    15.994914619570
         H           -0.634442000000    -1.868649000000    -0.819997000000     1.007825032230
         H           -1.235246000000    -2.898655000000    -1.759953000000     1.007825032230
         O           -1.419169000000     2.399701000000    -0.513219000000    15.994914619570
         H           -0.863137000000     1.660037000000    -0.332687000000     1.007825032230
         H           -1.453857000000     2.952655000000     0.363362000000     1.007825032230

  Charge       = -1
  Multiplicity = 1
  Basis Set: AUG-CC-PVTZ
    Blend: AUG-CC-PVTZ
  Basis Set: (AUG-CC-PVTZ AUX)
    Blend: AUG-CC-PVTZ-JKFIT

    Orbital Energies [Eh]
    ---------------------

    Doubly Occupied:

       1A    -26.013200     2A    -20.435672     3A    -20.424269
       4A    -20.413074     5A    -20.411006     6A    -20.405455
       7A    -20.396421     8A     -1.281579     9A     -1.221748
      10A     -1.198658    11A     -1.193771    12A     -1.190155
      13A     -1.187875    14A     -1.169896    15A     -0.593509
      16A     -0.565631    17A     -0.558280    18A     -0.556210
      19A     -0.548096    20A     -0.547349    21A     -0.458932
      22A     -0.448219    23A     -0.438083    24A     -0.435856
      25A     -0.432947    26A     -0.414164    27A     -0.381252
      28A     -0.371497    29A     -0.369657    30A     -0.363752
      31A     -0.361761    32A     -0.356231    33A     -0.353270
      34A     -0.345574    35A     -0.342541

  @DF-RHF Final Energy:  -555.92117120500438

   => Energetics <=

    Nuclear Repulsion Energy =            352.2476061678549968
    One-Electron Energy =               -1483.9663619625209776
    Two-Electron Energy =                 575.7975845896614828
    Total Energy =                       -555.9211712050043843
 Dipole X            :         -6.0021220            5.5640283           -0.4380937
 Dipole Y            :         17.3829673          -16.6742177            0.7087496
 Dipole Z            :        -13.4762297           12.0000595           -1.4761702
 Magnitude           :                                                    1.6950901
  Basis Set: (AUG-CC-PVTZ AUX)
    Blend: AUG-CC-PVTZ-RI
	 Reference Energy          =    -555.9211712050043843 [Eh]
	 Singles Energy            =      -0.0000000000000000 [Eh]
	 Same-Spin Energy          =      -0.5034516574447885 [Eh]
	 Opposite-Spin Energy      =      -1.5356983665024719 [Eh]
	 Correlation Energy        =      -2.0391500239472604 [Eh]
	 Total Energy              =    -557.9603212289516705 [Eh]

	 ================> DF-SCS-MP2 Energies <==================
	-----------------------------------------------------------
	 SCS Same-Spin Scale       =       0.3333333333333333 [-]
	 SCS Opposite-Spin Scale   =       1.2000000000000000 [-]
	 SCS Same-Spin Energy      =      -0.1678172191482628 [Eh]
	 SCS Opposite-Spin Energy  =      -1.8428380398029662 [Eh]
	 SCS Correlation Energy    =      -2.0106552589512292 [Eh]
	 SCS Total Energy          =    -557.9318264639556446 [Eh]
	-----------------------------------------------------------

*** Psi4 exiting successfully. Buy a developer a beer!
