                               Psi4 1.8.2 release

  ==> Input File <==

--------------------------------------------------------------------------
MEMORY 60 GB

molecule dimer {
0 1
Gh(F)      0.000000     0.000000     0.000000
Gh(O)      2.081703    -1.508701     1.473146
Gh(H)      1.423928    -1.144779     0.827316
Gh(H)      1.989185    -0.825890     2.234926
Gh(O)     -1.611172     1.039781    -2.139406
Gh(H)     -1.249726     0.761251    -1.244112
Gh(H)     -1.011081     0.474083    -2.746982
Gh(O)      0.972873    -2.190476    -1.634802
Gh(H)      0.624232    -1.381249    -1.276102
Gh(H)      0.243327    -2.774866    -1.933728
Gh(O)     -0.433920     2.565224     0.815342
Gh(H)     -0.264565     1.626146     0.879923
Gh(H)      0.340327     2.904093     1.318431
Gh(O)     -2.434501    -1.580169     0.979841
Gh(H)     -2.571580    -1.692205     1.903886
Gh(H)     -1.682664    -1.058526     0.812807
O          1.827191     1.758440    -0.803170
H          1.167277     1.082376    -0.802700
H          1.643038     2.278252    -1.564266

units ang
no_reorient
no_com
symmetry c1
}

set {
basis        aug-cc-pVTZ
scf_type     df
}

energy("mp2")
--------------------------------------------------------------------------

    Molecular point group: c1

    Geometry (in Angstrom), charge = 0, multiplicity = 1:

       Center              X                  Y                   Z               Mass
    ------------   -----------------  -----------------  -----------------  -----------------
      Gh(F)           0.000000000000     0.000000000000     0.000000000000    18.998403162730
      Gh(O)           2.081703000000    -1.508701000000     1.473146000000    15.994914619570
      Gh(H)           1.423928000000    -1.144779000000     0.827316000000     1.007825032230
      Gh(H)           1.989185000000    -0.825890000000     2.234926000000     1.007825032230
      Gh(O)          -1.611172000000     1.039781000000    -2.139406000000    15.994914619570
      Gh(H)          -1.249726000000     0.761251000000    -1.244112000000     1.007825032230
      Gh(H)          -1.011081000000     0.474083000000    -2.746982000000     1.007825032230
      Gh(O)           0.972873000000    -2.190476000000    -1.634802000000    15.994914619570
      Gh(H)           0.624232000000    -1.381249000000    -1.276102000000     1.007825032230
      Gh(H)           0.243327000000    -2.774866000000    -1.933728000000     1.007825032230
      Gh(O)          -0.433920000000     2.565224000000     0.815342000000    15.994914619570
      Gh(H)          -0.264565000000     1.626146000000     0.879923000000     1.007825032230
      Gh(H)           0.340327000000     2.904093000000     1.318431000000     1.007825032230
      Gh(O)          -2.434501000000    -1.580169000000     0.979841000000    15.994914619570
      Gh(H)          -2.571580000000    -1.692205000000     1.903886000000     1.007825032230
      Gh(H)          -1.682664000000    -1.058526000000     0.812807000000     1.007825032230
         O            1.827191000000     1.758440000000    -0.803170000000    15.994914619570
         H            1.167277000000     1.082376000000    -0.802700000000     1.007825032230
         H            1.643038000000     2.278252000000    -1.564266000000     1.007825032230

  Charge       = 0
  Multiplicity = 1
  Basis Set: AUG-CC-PVTZ
    Blend: AUG-CC-PVTZ
  Basis Set: (AUG-CC-PVTZ AUX)
    Blend: AUG-CC-PVTZ-JKFIT

    Orbital Energies [Eh]
    ---------------------

    Doubly Occupied:

       1A    -20.564123     2A     -1.360985     3A     -0.727058
       4A     -0.586675     5A     -0.511449

  @DF-RHF Final Energy:   -76.06128880996933

   => Energetics <=

    Nuclear Repulsion Energy =              9.3390392041875714
    One-Electron Energy =                -123.3000735855250554
    Two-Electron Energy =                  37.8997455713681575
    Total Energy =                        -76.0612888099693265
 Dipole X            :        -33.5011338           32.9338502           -0.5672836
 Dipole Y            :        -33.0392852           32.9344266           -0.1048586
 Dipole Z            :         16.1030932          -16.6150881           -0.5119949
 Magnitude           :                                                    0.7713266
  Basis Set: (AUG-CC-PVTZ AUX)
    Blend: AUG-CC-PVTZ-RI
	 Reference Energy          =     -76.0612888099693265 [Eh]
	 Singles Energy            =      -0.0000000000000000 [Eh]
	 Same-Spin Energy          =      -0.0681705681848826 [Eh]
	 Opposite-Spin Energy      =      -0.2154383844440770 [Eh]
	 Correlation Energy        =      -0.2836089526289596 [Eh]
	 Total Energy              =     -76.3448977625982792 [Eh]

	 ================> DF-SCS-MP2 Energies <==================
	-----------------------------------------------------------
	 SCS Same-Spin Scale       =       0.3333333333333333 [-]
	 SCS Opposite-Spin Scale   =       1.2000000000000000 [-]
	 SCS Same-Spin Energy      =      -0.0227235227282942 [Eh]
	 SCS Opposite-Spin Energy  =      -0.2585260613328924 [Eh]
	 SCS Correlation Energy    =      -0.2812495840611866 [Eh]
	 SCS Total Energy          =     -76.3425383940305124 [Eh]
	-----------------------------------------------------------

*** Psi4 exiting successfully. Buy a developer a beer!
