                               Psi4 1.8.2 release

  ==> Input File <==

--------------------------------------------------------------------------
MEMORY 60 GB

molecule dimer {
-1 1
F          0.000000     0.000000     0.000000
O          0.705041     0.085824     2.845836
H          0.718042     0.221437     1.918408
H          1.585010     0.151425     3.189331
O          1.846277     0.095164    -2.146633
H          2.732713    -0.105605    -1.756703
H          1.254731     0.091480    -1.406651
O         -2.274277     0.593945    -1.273101
H         -2.701262    -0.233434    -0.967959
H         -1.360007     0.511388    -0.932384
O          1.896841    -1.872735     0.495161
H          1.093557    -1.387163     0.388915
H          2.667595    -1.391507     0.177125
O          1.052918     2.610822     1.020224
H          0.691159     1.833771     0.662648
H          1.468412     2.477073     1.892293

units ang
no_reorient
no_com
symmetry c1
}

set {
basis        aug-cc-pVTZ
scf_type     df
}

energy("mp2")
--------------------------------------------------------------------------

    Molecular point group: c1

    Geometry (in Angstrom), charge = -1, multiplicity = 1:

       Center              X                  Y                   Z               Mass
    ------------   -----------------  -----------------  -----------------  -----------------
         F            0.000000000000     0.000000000000     0.000000000000    18.998403162730
         O            0.705041000000     0.085824000000     2.845836000000    15.994914619570
         H            0.718042000000     0.221437000000     1.918408000000     1.007825032230
         H            1.585010000000     0.151425000000     3.189331000000     1.007825032230
         O            1.846277000000     0.095164000000    -2.146633000000    15.994914619570
         H            2.732713000000    -0.105605000000    -1.756703000000     1.007825032230
         H            1.254731000000     0.091480000000    -1.406651000000     1.007825032230
         O           -2.274277000000     0.593945000000    -1.273101000000    15.994914619570
         H           -2.701262000000    -0.233434000000    -0.967959000000     1.007825032230
         H           -1.360007000000     0.511388000000    -0.932384000000     1.007825032230
         O            1.896841000000    -1.872735000000     0.495161000000    15.994914619570
         H            1.093557000000    -1.387163000000     0.388915000000     1.007825032230
         H            2.667595000000    -1.391507000000     0.177125000000     1.007825032230
         O            1.052918000000     2.610822000000     1.020224000000    15.994914619570
         H            0.691159000000     1.833771000000     0.662648000000     1.007825032230
         H            1.468412000000     2.477073000000     1.892293000000     1.007825032230

  Charge       = -1
  Multiplicity = 1
  Basis Set: AUG-CC-PVTZ
    Blend: AUG-CC-PVTZ
  Basis Set: (AUG-CC-PVTZ AUX)
    Blend: AUG-CC-PVTZ-JKFIT

    Orbital Energies [Eh]
    ---------------------

    Doubly Occupied:

       1A    -25.990842     2A    -20.418586     3A    -20.414063
       4A    -20.410479     5A    -20.403038     6A    -20.385616
       7A     -1.258190     8A     -1.217411     9A     -1.204183
      10A     -1.194924    11A     -1.191353    12A     -1.161884
      13A     -0.599264    14A     -0.590950    15A     -0.582699
      16A     -0.559048    17A     -0.529059    18A     -0.447451
      19A     -0.442844    20A     -0.425526    21A     -0.420729
      22A     -0.412869    23A     -0.373600    24A     -0.363055
      25A     -0.359852    26A     -0.349872    27A     -0.347769
      28A     -0.347140    29A     -0.337268    30A     -0.327230

  @DF-RHF Final Energy:  -479.85215122662635

   => Energetics <=

    Nuclear Repulsion Energy =            265.8698982863600691
    One-Electron Energy =               -1205.3105012413943768
    Two-Electron Energy =                 459.5884517284080175
    Total Energy =                       -479.8521512266263471
 Dipole X            :        -63.4752928           64.1833195            0.7080267
 Dipole Y            :        -27.6550823           26.9721082           -0.6829740
 Dipole Z            :        -19.3688921           20.2142473            0.8453552
 Magnitude           :                                                    1.2970662
  Basis Set: (AUG-CC-PVTZ AUX)
    Blend: AUG-CC-PVTZ-RI
	 Reference Energy          =    -479.8521512266263471 [Eh]
	 Singles Energy            =      -0.0000000000000000 [Eh]
	 Same-Spin Energy          =      -0.4315702678165267 [Eh]
	 Opposite-Spin Energy      =      -1.3131318143963477 [Eh]
	 Correlation Energy        =      -1.7447020822128745 [Eh]
	 Total Energy              =    -481.5968533088392292 [Eh]

	 ================> DF-SCS-MP2 Energies <==================
	-----------------------------------------------------------
	 SCS Same-Spin Scale       =       0.3333333333333333 [-]
	 SCS Opposite-Spin Scale   =       1.2000000000000000 [-]
	 SCS Same-Spin Energy      =      -0.1438567559388422 [Eh]
	 SCS Opposite-Spin Energy  =      -1.5757581772756173 [Eh]
	 SCS Correlation Energy    =      -1.7196149332144595 [Eh]
	 SCS Total Energy          =    -481.5717661598408199 [Eh]
	-----------------------------------------------------------

*** Psi4 exiting successfully. Buy a developer a beer!
