                               Psi4 1.9 release

  ==> Input File <==

--------------------------------------------------------------------------
MEMORY 60 GB

molecule dimer {
-1 1
F      0.000000     0.000000     0.000000
--
0 1
O      0.266469    -2.404656     1.201531
H     -0.633463    -2.712726     1.302485
H      0.132332    -1.593576     0.677383
O      2.063058     1.457481     1.160244
H      1.663140     1.837137     1.934730
H      1.358434     1.078668     0.675898
O     -2.665582    -0.685885     0.620014
H     -2.886730    -0.889932     1.510510
H     -1.770852    -0.247202     0.618308
O     -0.466229     2.894120     0.100297
H     -0.550035     1.915540     0.120147
H     -0.933453     3.301434     0.894465
O     -1.428658     0.445594    -2.381825
H     -2.319156     0.785428    -2.378532
H     -1.312007     0.123368    -1.502513
O      2.197488    -0.935719    -1.597882
H      1.331309    -0.620386    -1.258959
H      2.234943    -1.865177    -1.274134

units ang
no_reorient
no_com
symmetry c1
}

set {
basis        aug-cc-pVTZ
scf_type     df
}

energy("mp2", bsse_type="cp")
--------------------------------------------------------------------------

                               Psi4 1.9 release
    Molecular point group: c1
  Charge       = 0
  Multiplicity = 1
  Basis Set: AUG-CC-PVTZ
    Blend: AUG-CC-PVTZ
  Basis Set: (AUG-CC-PVTZ AUX)
    Blend: AUG-CC-PVTZ-JKFIT
  @DF-RHF Final Energy:  -456.32635210172714
    Total Energy =                       -456.3263521017271387
 Dipole X            :          5.0569592           -7.4704086           -2.4134494
 Dipole Y            :        -13.9945388           13.7573120           -0.2372268
 Dipole Z            :         13.0661627          -11.0760250            1.9901377
 Magnitude           :                                                    3.1371424
  Basis Set: (AUG-CC-PVTZ AUX)
    Blend: AUG-CC-PVTZ-RI
	 Reference Energy          =    -456.3263521017271387 [Eh]
	 Singles Energy            =      -0.0000000000000000 [Eh]
	 Same-Spin Energy          =      -0.4151427270440082 [Eh]
	 Opposite-Spin Energy      =      -1.3046545597971200 [Eh]
	 Correlation Energy        =      -1.7197972868411282 [Eh]
	 Total Energy              =    -458.0461493885682671 [Eh]
	 SCS Total Energy          =    -458.0303184824983305 [Eh]
                               Psi4 1.9 release
    Molecular point group: c1
  Multiplicity = 1
  Basis Set: AUG-CC-PVTZ
    Blend: AUG-CC-PVTZ
  Basis Set: (AUG-CC-PVTZ AUX)
    Blend: AUG-CC-PVTZ-JKFIT
  @DF-RHF Final Energy:   -99.45115677392974
    Total Energy =                        -99.4511567739297391
  Basis Set: (AUG-CC-PVTZ AUX)
	 Singles Energy            =      -0.0000000000000000 [Eh]
	 Same-Spin Energy          =      -0.0820921332300660 [Eh]
	 Opposite-Spin Energy      =      -0.2303773025649658 [Eh]
	 Correlation Energy        =      -0.3124694357950318 [Eh]
	 Total Energy              =     -99.7636262097247766 [Eh]
	 SCS Total Energy          =     -99.7549735814177154 [Eh]
                               Psi4 1.9 release
    Molecular point group: c1

    Geometry (in Bohr), charge = -1, multiplicity = 1:

       Center              X                  Y                   Z               Mass
    ------------   -----------------  -----------------  -----------------  -----------------
         F            0.000000000000     0.000000000000     0.000000000000    18.998403162730
         O            0.503553430925    -4.544141265939     2.270564521247    15.994914619570
         H           -1.197071580611    -5.126309193409     2.461339932517     1.007825032230
         H            0.250071237634    -3.011422200103     1.280068352041     1.007825032230
         O            3.898614600935     2.754239923058     2.192543398706    15.994914619570
         H            3.142879108294     3.471685784945     3.656109826707     1.007825032230
         H            2.567068219510     2.038387100295     1.277262108745     1.007825032230
         O           -5.037219944950    -1.296134803560     1.171656653950    15.994914619570
         H           -5.455129098143    -1.681727750281     2.854450209765     1.007825032230
         H           -3.346425288719    -0.467144077665     1.168432781180     1.007825032230
         O           -0.881045121746     5.469094174210     0.189533861205    15.994914619570
         H           -1.039415509416     3.619845982359     0.227044924795     1.007825032230
         H           -1.763970520987     6.238806081275     1.690293878808     1.007825032230
         O           -2.699772346944     0.842050623147    -4.500996928769    15.994914619570
         H           -4.382569682212     1.484243811266    -4.494774060637     1.007825032230
         H           -2.479333904684     0.233131732645    -2.839338069940     1.007825032230
         O            4.152650483980    -1.768252640387    -3.019559360799    15.994914619570
         H            2.515809398357    -1.172359632068    -2.379087713180     1.007825032230
         H            4.223430176009    -3.524673705503    -2.407764307134     1.007825032230

  Charge       = -1
  Multiplicity = 1
  Basis Set: AUG-CC-PVTZ
    Blend: AUG-CC-PVTZ
  Basis Set: (AUG-CC-PVTZ AUX)
    Blend: AUG-CC-PVTZ-JKFIT

    Orbital Energies [Eh]
    ---------------------

    Doubly Occupied:

       1A    -26.012449     2A    -20.438666     3A    -20.426142
       4A    -20.408190     5A    -20.404939     6A    -20.395583
       7A    -20.386430     8A     -1.282040     9A     -1.222174
      10A     -1.203139    11A     -1.191920    12A     -1.190194
      13A     -1.184645    14A     -1.167901    15A     -0.599323
      16A     -0.572076    17A     -0.567344    18A     -0.554936
      19A     -0.552256    20A     -0.530285    21A     -0.459840
      22A     -0.443331    23A     -0.436946    24A     -0.429827
      25A     -0.420258    26A     -0.418598    27A     -0.384779
      28A     -0.373002    29A     -0.367804    30A     -0.365921
      31A     -0.364087    32A     -0.352873    33A     -0.349160
      34A     -0.335136    35A     -0.332967

  @DF-RHF Final Energy:  -555.91971800204283

   => Energetics <=

    Nuclear Repulsion Energy =            354.8006212232405119
    One-Electron Energy =               -1489.1903549936791933
    Two-Electron Energy =                 578.4700157683957968
    Total Energy =                       -555.9197180020428277
 Dipole X            :          5.1827834           -7.4704086           -2.2876252
 Dipole Y            :        -13.9440424           13.7573120           -0.1867304
 Dipole Z            :         12.9813281          -11.0760250            1.9053032
 Magnitude           :                                                    2.9829981
  Basis Set: (AUG-CC-PVTZ AUX)
    Blend: AUG-CC-PVTZ-RI
	 Reference Energy          =    -555.9197180020428277 [Eh]
	 Singles Energy            =      -0.0000000000000000 [Eh]
	 Same-Spin Energy          =      -0.5032286982328308 [Eh]
	 Opposite-Spin Energy      =      -1.5343403648526999 [Eh]
	 Correlation Energy        =      -2.0375690630855305 [Eh]
	 Total Energy              =    -557.9572870651284120 [Eh]

	 ================> DF-SCS-MP2 Energies <==================
	-----------------------------------------------------------
	 SCS Same-Spin Scale       =       0.3333333333333333 [-]
	 SCS Opposite-Spin Scale   =       1.2000000000000000 [-]
	 SCS Same-Spin Energy      =      -0.1677428994109436 [Eh]
	 SCS Opposite-Spin Energy  =      -1.8412084378232398 [Eh]
	 SCS Correlation Energy    =      -2.0089513372341834 [Eh]
	 SCS Total Energy          =    -557.9286693392770076 [Eh]
	-----------------------------------------------------------

*** Psi4 exiting successfully. Buy a developer a beer!
