                               Psi4 1.8.2 release

  ==> Input File <==

--------------------------------------------------------------------------
MEMORY 60 GB

molecule dimer {
0 1
Gh(F)      0.000000     0.000000     0.000000
Gh(O)     -2.647376     0.914762    -0.251552
Gh(H)     -2.724907     1.246258     0.668792
Gh(H)     -1.768244     0.552287    -0.448575
Gh(O)      2.344109     1.471480    -1.315863
Gh(H)      1.702060     0.829127    -1.080552
Gh(H)      2.928848     0.990581    -1.983538
O          1.924891     0.054648     2.110672
H          1.521140     0.173109     1.252029
H          2.506830     0.824676     2.291779
Gh(O)     -0.223065     2.710378     0.273811
Gh(H)     -0.031508     3.416476     0.904629
Gh(H)     -0.086383     1.892438     0.681794
Gh(O)     -1.121683    -0.546957     2.492271
Gh(H)     -1.661749     0.254121     2.719544
Gh(H)     -0.707769    -0.349569     1.681775
Gh(O)     -0.451478    -2.737344    -0.648176
Gh(H)     -0.144278    -1.898170    -0.285256
Gh(H)     -0.265446    -3.396720     0.044521

units ang
no_reorient
no_com
symmetry c1
}

set {
basis        aug-cc-pVTZ
scf_type     df
}

energy("mp2")
--------------------------------------------------------------------------

    Molecular point group: c1

    Geometry (in Angstrom), charge = 0, multiplicity = 1:

       Center              X                  Y                   Z               Mass
    ------------   -----------------  -----------------  -----------------  -----------------
      Gh(F)           0.000000000000     0.000000000000     0.000000000000    18.998403162730
      Gh(O)          -2.647376000000     0.914762000000    -0.251552000000    15.994914619570
      Gh(H)          -2.724907000000     1.246258000000     0.668792000000     1.007825032230
      Gh(H)          -1.768244000000     0.552287000000    -0.448575000000     1.007825032230
      Gh(O)           2.344109000000     1.471480000000    -1.315863000000    15.994914619570
      Gh(H)           1.702060000000     0.829127000000    -1.080552000000     1.007825032230
      Gh(H)           2.928848000000     0.990581000000    -1.983538000000     1.007825032230
         O            1.924891000000     0.054648000000     2.110672000000    15.994914619570
         H            1.521140000000     0.173109000000     1.252029000000     1.007825032230
         H            2.506830000000     0.824676000000     2.291779000000     1.007825032230
      Gh(O)          -0.223065000000     2.710378000000     0.273811000000    15.994914619570
      Gh(H)          -0.031508000000     3.416476000000     0.904629000000     1.007825032230
      Gh(H)          -0.086383000000     1.892438000000     0.681794000000     1.007825032230
      Gh(O)          -1.121683000000    -0.546957000000     2.492271000000    15.994914619570
      Gh(H)          -1.661749000000     0.254121000000     2.719544000000     1.007825032230
      Gh(H)          -0.707769000000    -0.349569000000     1.681775000000     1.007825032230
      Gh(O)          -0.451478000000    -2.737344000000    -0.648176000000    15.994914619570
      Gh(H)          -0.144278000000    -1.898170000000    -0.285256000000     1.007825032230
      Gh(H)          -0.265446000000    -3.396720000000     0.044521000000     1.007825032230

  Charge       = 0
  Multiplicity = 1
  Basis Set: AUG-CC-PVTZ
    Blend: AUG-CC-PVTZ
  Basis Set: (AUG-CC-PVTZ AUX)
    Blend: AUG-CC-PVTZ-JKFIT

    Orbital Energies [Eh]
    ---------------------

    Doubly Occupied:

       1A    -20.567242     2A     -1.344791     3A     -0.718832
       4A     -0.574653     5A     -0.508123

  @DF-RHF Final Energy:   -76.05911020655118

   => Energetics <=

    Nuclear Repulsion Energy =              9.0744144026157656
    One-Electron Energy =                -122.8397638428988188
    Two-Electron Energy =                  37.7062392337318499
    Total Energy =                        -76.0591102065511961
 Dipole X            :        -36.5951064           36.7118946            0.1167882
 Dipole Y            :         -2.1194998            2.7116984            0.5921986
 Dipole Z            :        -39.0615643           38.6055627           -0.4560016
 Magnitude           :                                                    0.7564894
  Basis Set: (AUG-CC-PVTZ AUX)
    Blend: AUG-CC-PVTZ-RI
	 Reference Energy          =     -76.0591102065511819 [Eh]
	 Singles Energy            =      -0.0000000000000000 [Eh]
	 Same-Spin Energy          =      -0.0685671118199239 [Eh]
	 Opposite-Spin Energy      =      -0.2165563763968496 [Eh]
	 Correlation Energy        =      -0.2851234882167735 [Eh]
	 Total Energy              =     -76.3442336947679507 [Eh]

	 ================> DF-SCS-MP2 Energies <==================
	-----------------------------------------------------------
	 SCS Same-Spin Scale       =       0.3333333333333333 [-]
	 SCS Opposite-Spin Scale   =       1.2000000000000000 [-]
	 SCS Same-Spin Energy      =      -0.0228557039399746 [Eh]
	 SCS Opposite-Spin Energy  =      -0.2598676516762195 [Eh]
	 SCS Correlation Energy    =      -0.2827233556161942 [Eh]
	 SCS Total Energy          =     -76.3418335621673805 [Eh]
	-----------------------------------------------------------

*** Psi4 exiting successfully. Buy a developer a beer!
