                               Psi4 1.8.2 release

  ==> Input File <==

--------------------------------------------------------------------------
MEMORY 60 GB

molecule dimer {
-1 1
F          0.000000     0.000000     0.000000
O         -0.707361     2.525434    -1.575050
H         -1.618200     2.532030    -1.172278
H         -0.360557     1.715787    -1.222011
O          0.231457    -1.514785     2.454981
H          0.520078    -2.412679     2.201167
H          0.152694    -0.949314     1.706223
O          2.534888    -0.934845    -0.773892
H          1.708681    -0.455364    -0.810073
H          2.593842    -1.430710    -1.602941
O         -1.646211    -2.005263    -0.559192
H         -2.276294    -1.608534    -1.184598
H         -0.985436    -1.310462    -0.430945
O         -0.839643     1.611946     1.821990
H         -0.333256     1.129240     1.164903
H         -1.766320     1.284318     1.860799

units ang
no_reorient
no_com
symmetry c1
}

set {
basis        aug-cc-pVTZ
scf_type     df
}

energy("mp2")
--------------------------------------------------------------------------

    Molecular point group: c1

    Geometry (in Angstrom), charge = -1, multiplicity = 1:

       Center              X                  Y                   Z               Mass
    ------------   -----------------  -----------------  -----------------  -----------------
         F            0.000000000000     0.000000000000     0.000000000000    18.998403162730
         O           -0.707361000000     2.525434000000    -1.575050000000    15.994914619570
         H           -1.618200000000     2.532030000000    -1.172278000000     1.007825032230
         H           -0.360557000000     1.715787000000    -1.222011000000     1.007825032230
         O            0.231457000000    -1.514785000000     2.454981000000    15.994914619570
         H            0.520078000000    -2.412679000000     2.201167000000     1.007825032230
         H            0.152694000000    -0.949314000000     1.706223000000     1.007825032230
         O            2.534888000000    -0.934845000000    -0.773892000000    15.994914619570
         H            1.708681000000    -0.455364000000    -0.810073000000     1.007825032230
         H            2.593842000000    -1.430710000000    -1.602941000000     1.007825032230
         O           -1.646211000000    -2.005263000000    -0.559192000000    15.994914619570
         H           -2.276294000000    -1.608534000000    -1.184598000000     1.007825032230
         H           -0.985436000000    -1.310462000000    -0.430945000000     1.007825032230
         O           -0.839643000000     1.611946000000     1.821990000000    15.994914619570
         H           -0.333256000000     1.129240000000     1.164903000000     1.007825032230
         H           -1.766320000000     1.284318000000     1.860799000000     1.007825032230

  Charge       = -1
  Multiplicity = 1
  Basis Set: AUG-CC-PVTZ
    Blend: AUG-CC-PVTZ
  Basis Set: (AUG-CC-PVTZ AUX)
    Blend: AUG-CC-PVTZ-JKFIT

    Orbital Energies [Eh]
    ---------------------

    Doubly Occupied:

       1A    -25.996600     2A    -20.423197     3A    -20.412196
       4A    -20.399197     5A    -20.391067     6A    -20.381948
       7A     -1.267778     8A     -1.202495     9A     -1.196930
      10A     -1.181924    11A     -1.176722    12A     -1.162724
      13A     -0.568166    14A     -0.563494    15A     -0.559947
      16A     -0.554603    17A     -0.544415    18A     -0.449109
      19A     -0.434280    20A     -0.432320    21A     -0.411298
      22A     -0.407893    23A     -0.366685    24A     -0.362162
      25A     -0.356267    26A     -0.352478    27A     -0.343601
      28A     -0.338215    29A     -0.336421    30A     -0.327445

  @DF-RHF Final Energy:  -479.85800268168663

   => Energetics <=

    Nuclear Repulsion Energy =            262.2423006934519094
    One-Electron Energy =               -1198.3974456784246740
    Two-Electron Energy =                 456.2971423032861935
    Total Energy =                       -479.8580026816866280
 Dipole X            :         10.1990505          -10.9221030           -0.7230525
 Dipole Y            :          7.1805811           -7.6454388           -0.4648578
 Dipole Z            :        -23.2618875           21.6580415           -1.6038460
 Magnitude           :                                                    1.8196757
  Basis Set: (AUG-CC-PVTZ AUX)
    Blend: AUG-CC-PVTZ-RI
	 Reference Energy          =    -479.8580026816866280 [Eh]
	 Singles Energy            =      -0.0000000000000000 [Eh]
	 Same-Spin Energy          =      -0.4319068474039230 [Eh]
	 Opposite-Spin Energy      =      -1.3142794374900892 [Eh]
	 Correlation Energy        =      -1.7461862848940122 [Eh]
	 Total Energy              =    -481.6041889665806366 [Eh]

	 ================> DF-SCS-MP2 Energies <==================
	-----------------------------------------------------------
	 SCS Same-Spin Scale       =       0.3333333333333333 [-]
	 SCS Opposite-Spin Scale   =       1.2000000000000000 [-]
	 SCS Same-Spin Energy      =      -0.1439689491346410 [Eh]
	 SCS Opposite-Spin Energy  =      -1.5771353249881070 [Eh]
	 SCS Correlation Energy    =      -1.7211042741227480 [Eh]
	 SCS Total Energy          =    -481.5791069558093795 [Eh]
	-----------------------------------------------------------

*** Psi4 exiting successfully. Buy a developer a beer!
