                               Psi4 1.8.2 release

  ==> Input File <==

--------------------------------------------------------------------------
MEMORY 60 GB

molecule dimer {
0 1
Gh(F)      0.000000     0.000000     0.000000
Gh(O)      2.300634    -1.333306    -0.902108
Gh(H)      1.393934    -1.048189    -0.537281
Gh(H)      2.196325    -1.676113    -1.778413
Gh(O)     -0.721455     0.039200     2.664180
Gh(H)     -0.478323    -0.147144     1.721719
Gh(H)     -0.301277    -0.711256     3.142866
Gh(O)     -1.968178     1.181669    -1.178721
Gh(H)     -2.732253     0.755644    -0.806522
Gh(H)     -1.213738     0.822443    -0.721049
Gh(O)     -2.147115    -1.870979    -0.798426
Gh(H)     -1.363119    -1.488592    -0.414049
Gh(H)     -2.860249    -1.280709    -0.613524
O          0.601987     2.534872     1.009589
H          0.625186     1.602289     0.786548
H          1.072015     2.565401     1.876249

units ang
no_reorient
no_com
symmetry c1
}

set {
basis        aug-cc-pVTZ
scf_type     df
}

energy("mp2")
--------------------------------------------------------------------------

    Molecular point group: c1

    Geometry (in Angstrom), charge = 0, multiplicity = 1:

       Center              X                  Y                   Z               Mass
    ------------   -----------------  -----------------  -----------------  -----------------
      Gh(F)           0.000000000000     0.000000000000     0.000000000000    18.998403162730
      Gh(O)           2.300634000000    -1.333306000000    -0.902108000000    15.994914619570
      Gh(H)           1.393934000000    -1.048189000000    -0.537281000000     1.007825032230
      Gh(H)           2.196325000000    -1.676113000000    -1.778413000000     1.007825032230
      Gh(O)          -0.721455000000     0.039200000000     2.664180000000    15.994914619570
      Gh(H)          -0.478323000000    -0.147144000000     1.721719000000     1.007825032230
      Gh(H)          -0.301277000000    -0.711256000000     3.142866000000     1.007825032230
      Gh(O)          -1.968178000000     1.181669000000    -1.178721000000    15.994914619570
      Gh(H)          -2.732253000000     0.755644000000    -0.806522000000     1.007825032230
      Gh(H)          -1.213738000000     0.822443000000    -0.721049000000     1.007825032230
      Gh(O)          -2.147115000000    -1.870979000000    -0.798426000000    15.994914619570
      Gh(H)          -1.363119000000    -1.488592000000    -0.414049000000     1.007825032230
      Gh(H)          -2.860249000000    -1.280709000000    -0.613524000000     1.007825032230
         O            0.601987000000     2.534872000000     1.009589000000    15.994914619570
         H            0.625186000000     1.602289000000     0.786548000000     1.007825032230
         H            1.072015000000     2.565401000000     1.876249000000     1.007825032230

  Charge       = 0
  Multiplicity = 1
  Basis Set: AUG-CC-PVTZ
    Blend: AUG-CC-PVTZ
  Basis Set: (AUG-CC-PVTZ AUX)
    Blend: AUG-CC-PVTZ-JKFIT

    Orbital Energies [Eh]
    ---------------------

    Doubly Occupied:

       1A    -20.570516     2A     -1.346967     3A     -0.706292
       4A     -0.585004     5A     -0.509589

  @DF-RHF Final Energy:   -76.05875655048924

   => Energetics <=

    Nuclear Repulsion Energy =              9.0533172164150812
    One-Electron Energy =                -122.7874083963254179
    Two-Electron Energy =                  37.6753346294211013
    Total Energy =                        -76.0587565504892353
 Dipole X            :        -11.9855928           12.3079696            0.3223768
 Dipole Y            :        -46.7926299           46.1975034           -0.5951265
 Dipole Z            :        -19.8763871           20.2947307            0.4183437
 Magnitude           :                                                    0.7956844
  Basis Set: (AUG-CC-PVTZ AUX)
    Blend: AUG-CC-PVTZ-RI
	 Reference Energy          =     -76.0587565504892353 [Eh]
	 Singles Energy            =      -0.0000000000000000 [Eh]
	 Same-Spin Energy          =      -0.0687094675606716 [Eh]
	 Opposite-Spin Energy      =      -0.2168553605873008 [Eh]
	 Correlation Energy        =      -0.2855648281479725 [Eh]
	 Total Energy              =     -76.3443213786372041 [Eh]

	 ================> DF-SCS-MP2 Energies <==================
	-----------------------------------------------------------
	 SCS Same-Spin Scale       =       0.3333333333333333 [-]
	 SCS Opposite-Spin Scale   =       1.2000000000000000 [-]
	 SCS Same-Spin Energy      =      -0.0229031558535572 [Eh]
	 SCS Opposite-Spin Energy  =      -0.2602264327047610 [Eh]
	 SCS Correlation Energy    =      -0.2831295885583182 [Eh]
	 SCS Total Energy          =     -76.3418861390475598 [Eh]
	-----------------------------------------------------------

*** Psi4 exiting successfully. Buy a developer a beer!
