                               Psi4 1.8.2 release

  ==> Input File <==

--------------------------------------------------------------------------
MEMORY 60 GB

molecule dimer {
0 1
Gh(F)      0.000000     0.000000     0.000000
Gh(O)      0.740022     2.738323    -0.742341
Gh(H)      0.140598     3.165775    -1.345208
Gh(H)      0.324060     1.954101    -0.472573
O         -1.637000    -2.128907     1.209056
H         -1.409631    -2.982770     0.710761
H         -1.194739    -1.404565     0.713641
Gh(O)     -2.586717     0.892440     0.631559
Gh(H)     -1.647489     0.669471     0.494403
Gh(H)     -3.184785     0.268742     0.256299
Gh(O)      1.343206    -2.399485    -0.414928
Gh(H)      0.998170    -2.994359     0.252667
Gh(H)      1.012370    -1.551086    -0.254296
Gh(O)     -1.062745     0.103470    -2.464943
Gh(H)     -0.642973    -0.084048    -1.611420
Gh(H)     -1.936889     0.466257    -2.189501
Gh(O)      0.542504    -0.109357     2.673800
Gh(H)      0.307584     0.028412     1.703925
Gh(H)      0.033945     0.531994     3.170652

units ang
no_reorient
no_com
symmetry c1
}

set {
basis        aug-cc-pVTZ
scf_type     df
}

energy("mp2")
--------------------------------------------------------------------------

    Molecular point group: c1

    Geometry (in Angstrom), charge = 0, multiplicity = 1:

       Center              X                  Y                   Z               Mass
    ------------   -----------------  -----------------  -----------------  -----------------
      Gh(F)           0.000000000000     0.000000000000     0.000000000000    18.998403162730
      Gh(O)           0.740022000000     2.738323000000    -0.742341000000    15.994914619570
      Gh(H)           0.140598000000     3.165775000000    -1.345208000000     1.007825032230
      Gh(H)           0.324060000000     1.954101000000    -0.472573000000     1.007825032230
         O           -1.637000000000    -2.128907000000     1.209056000000    15.994914619570
         H           -1.409631000000    -2.982770000000     0.710761000000     1.007825032230
         H           -1.194739000000    -1.404565000000     0.713641000000     1.007825032230
      Gh(O)          -2.586717000000     0.892440000000     0.631559000000    15.994914619570
      Gh(H)          -1.647489000000     0.669471000000     0.494403000000     1.007825032230
      Gh(H)          -3.184785000000     0.268742000000     0.256299000000     1.007825032230
      Gh(O)           1.343206000000    -2.399485000000    -0.414928000000    15.994914619570
      Gh(H)           0.998170000000    -2.994359000000     0.252667000000     1.007825032230
      Gh(H)           1.012370000000    -1.551086000000    -0.254296000000     1.007825032230
      Gh(O)          -1.062745000000     0.103470000000    -2.464943000000    15.994914619570
      Gh(H)          -0.642973000000    -0.084048000000    -1.611420000000     1.007825032230
      Gh(H)          -1.936889000000     0.466257000000    -2.189501000000     1.007825032230
      Gh(O)           0.542504000000    -0.109357000000     2.673800000000    15.994914619570
      Gh(H)           0.307584000000     0.028412000000     1.703925000000     1.007825032230
      Gh(H)           0.033945000000     0.531994000000     3.170652000000     1.007825032230

  Charge       = 0
  Multiplicity = 1
  Basis Set: AUG-CC-PVTZ
    Blend: AUG-CC-PVTZ
  Basis Set: (AUG-CC-PVTZ AUX)
    Blend: AUG-CC-PVTZ-JKFIT

    Orbital Energies [Eh]
    ---------------------

    Doubly Occupied:

       1A    -20.573498     2A     -1.332563     3A     -0.698016
       4A     -0.574390     5A     -0.506712

  @DF-RHF Final Energy:   -76.05452652839287

   => Energetics <=

    Nuclear Repulsion Energy =              8.8133571767044199
    One-Electron Energy =                -122.3654043490333549
    Two-Electron Energy =                  37.4975206439360846
    Total Energy =                        -76.0545265283928558
 Dipole X            :         30.1059479          -29.6693994            0.4365485
 Dipole Y            :         40.3963561          -40.4752710           -0.0789149
 Dipole Z            :        -21.6168452           20.9700074           -0.6468379
 Magnitude           :                                                    0.7843477
  Basis Set: (AUG-CC-PVTZ AUX)
    Blend: AUG-CC-PVTZ-RI
	 Reference Energy          =     -76.0545265283928700 [Eh]
	 Singles Energy            =      -0.0000000000000000 [Eh]
	 Same-Spin Energy          =      -0.0691255764474974 [Eh]
	 Opposite-Spin Energy      =      -0.2185014980014276 [Eh]
	 Correlation Energy        =      -0.2876270744489250 [Eh]
	 Total Energy              =     -76.3421536028417904 [Eh]

	 ================> DF-SCS-MP2 Energies <==================
	-----------------------------------------------------------
	 SCS Same-Spin Scale       =       0.3333333333333333 [-]
	 SCS Opposite-Spin Scale   =       1.2000000000000000 [-]
	 SCS Same-Spin Energy      =      -0.0230418588158325 [Eh]
	 SCS Opposite-Spin Energy  =      -0.2622017976017131 [Eh]
	 SCS Correlation Energy    =      -0.2852436564175456 [Eh]
	 SCS Total Energy          =     -76.3397701848104191 [Eh]
	-----------------------------------------------------------

*** Psi4 exiting successfully. Buy a developer a beer!
