                               Psi4 1.8.2 release

  ==> Input File <==

--------------------------------------------------------------------------
MEMORY 60 GB

molecule dimer {
-1 1
F          0.000000     0.000000     0.000000
O         -1.256991    -2.655153     0.558376
H         -0.644672    -1.885729     0.567536
H         -1.338472    -2.882476    -0.385089
O         -1.305576     1.251295     2.202499
H         -0.711750     0.974728     1.504356
H         -0.952684     2.111079     2.505476
O         -1.829428    -0.415971    -2.107193
H         -1.246037    -0.200344    -1.362479
H         -2.146589     0.442551    -2.466447
O          2.666227     0.699907     0.336488
H          3.306908     0.099210    -0.077513
H          1.734687     0.339624     0.260511
O          1.906743    -2.341252    -0.205944
H          2.501677    -2.614324    -0.890521
H          1.283532    -1.646288    -0.583459
O          0.176288     2.561885    -1.340247
H          0.256168     1.819622    -0.726477
H         -0.688746     2.476205    -1.766219

units ang
no_reorient
no_com
symmetry c1
}

set {
basis        aug-cc-pVTZ
scf_type     df
}

energy("mp2")
--------------------------------------------------------------------------

    Molecular point group: c1

    Geometry (in Angstrom), charge = -1, multiplicity = 1:

       Center              X                  Y                   Z               Mass
    ------------   -----------------  -----------------  -----------------  -----------------
         F            0.000000000000     0.000000000000     0.000000000000    18.998403162730
         O           -1.256991000000    -2.655153000000     0.558376000000    15.994914619570
         H           -0.644672000000    -1.885729000000     0.567536000000     1.007825032230
         H           -1.338472000000    -2.882476000000    -0.385089000000     1.007825032230
         O           -1.305576000000     1.251295000000     2.202499000000    15.994914619570
         H           -0.711750000000     0.974728000000     1.504356000000     1.007825032230
         H           -0.952684000000     2.111079000000     2.505476000000     1.007825032230
         O           -1.829428000000    -0.415971000000    -2.107193000000    15.994914619570
         H           -1.246037000000    -0.200344000000    -1.362479000000     1.007825032230
         H           -2.146589000000     0.442551000000    -2.466447000000     1.007825032230
         O            2.666227000000     0.699907000000     0.336488000000    15.994914619570
         H            3.306908000000     0.099210000000    -0.077513000000     1.007825032230
         H            1.734687000000     0.339624000000     0.260511000000     1.007825032230
         O            1.906743000000    -2.341252000000    -0.205944000000    15.994914619570
         H            2.501677000000    -2.614324000000    -0.890521000000     1.007825032230
         H            1.283532000000    -1.646288000000    -0.583459000000     1.007825032230
         O            0.176288000000     2.561885000000    -1.340247000000    15.994914619570
         H            0.256168000000     1.819622000000    -0.726477000000     1.007825032230
         H           -0.688746000000     2.476205000000    -1.766219000000     1.007825032230

  Charge       = -1
  Multiplicity = 1
  Basis Set: AUG-CC-PVTZ
    Blend: AUG-CC-PVTZ
  Basis Set: (AUG-CC-PVTZ AUX)
    Blend: AUG-CC-PVTZ-JKFIT

    Orbital Energies [Eh]
    ---------------------

    Doubly Occupied:

       1A    -26.010006     2A    -20.436787     3A    -20.421804
       4A    -20.418572     5A    -20.410896     6A    -20.403618
       7A    -20.400638     8A     -1.275342     9A     -1.213345
      10A     -1.200268    11A     -1.197897    12A     -1.192335
      13A     -1.178673    14A     -1.172030    15A     -0.588325
      16A     -0.573625    17A     -0.571123    18A     -0.559884
      19A     -0.553573    20A     -0.542235    21A     -0.449929
      22A     -0.446295    23A     -0.435690    24A     -0.431073
      25A     -0.425669    26A     -0.417081    27A     -0.378451
      28A     -0.372114    29A     -0.365364    30A     -0.362301
      31A     -0.361961    32A     -0.358613    33A     -0.352895
      34A     -0.343781    35A     -0.340884

  @DF-RHF Final Energy:  -555.92037660981782

   => Energetics <=

    Nuclear Repulsion Energy =            347.6871749269598695
    One-Electron Energy =               -1474.8889393777235455
    Two-Electron Energy =                 571.2813878409458539
    Total Energy =                       -555.9203766098178221
 Dipole X            :         -7.5715894            7.9597645            0.3881751
 Dipole Y            :         15.8267257          -15.4210231            0.4057026
 Dipole Z            :         13.5501367          -14.8692968           -1.3191601
 Magnitude           :                                                    1.4336868
  Basis Set: (AUG-CC-PVTZ AUX)
    Blend: AUG-CC-PVTZ-RI
	 Reference Energy          =    -555.9203766098178221 [Eh]
	 Singles Energy            =      -0.0000000000000000 [Eh]
	 Same-Spin Energy          =      -0.5030186356592558 [Eh]
	 Opposite-Spin Energy      =      -1.5350935598537276 [Eh]
	 Correlation Energy        =      -2.0381121955129835 [Eh]
	 Total Energy              =    -557.9584888053308305 [Eh]

	 ================> DF-SCS-MP2 Energies <==================
	-----------------------------------------------------------
	 SCS Same-Spin Scale       =       0.3333333333333333 [-]
	 SCS Opposite-Spin Scale   =       1.2000000000000000 [-]
	 SCS Same-Spin Energy      =      -0.1676728785530852 [Eh]
	 SCS Opposite-Spin Energy  =      -1.8421122718244731 [Eh]
	 SCS Correlation Energy    =      -2.0097851503775583 [Eh]
	 SCS Total Energy          =    -557.9301617601953467 [Eh]
	-----------------------------------------------------------

*** Psi4 exiting successfully. Buy a developer a beer!
