                               Psi4 1.9 release

  ==> Input File <==

--------------------------------------------------------------------------
MEMORY 60 GB

molecule dimer {
-1 1
F      0.000000     0.000000     0.000000
--
0 1
O     -2.059057     0.556806    -1.512511
H     -1.631697     0.750314    -2.355200
H     -1.337052     0.357530    -0.924989
O     -1.092632     0.531104     2.514755
H     -0.595685     0.472327     1.701018
H     -0.807881     1.360419     2.908593
O      1.853987     2.045109    -0.296217
H      1.205149     1.477398     0.090440
H      1.333577     2.420067    -1.019413

units ang
no_reorient
no_com
symmetry c1
}

set {
basis        aug-cc-pVTZ
scf_type     df
}

energy("mp2", bsse_type="cp")
--------------------------------------------------------------------------

                               Psi4 1.9 release
    Molecular point group: c1
  Charge       = 0
  Multiplicity = 1
  Basis Set: AUG-CC-PVTZ
    Blend: AUG-CC-PVTZ
  Basis Set: (AUG-CC-PVTZ AUX)
    Blend: AUG-CC-PVTZ-JKFIT
  @DF-RHF Final Energy:  -228.17493992554355
    Total Energy =                       -228.1749399255435549
 Dipole X            :         23.5661682          -23.0833920            0.4827762
 Dipole Y            :        -59.8882296           60.2864340            0.3982044
 Dipole Z            :        -12.0808659           11.4303203           -0.6505456
 Magnitude           :                                                    0.9026899
  Basis Set: (AUG-CC-PVTZ AUX)
    Blend: AUG-CC-PVTZ-RI
	 Reference Energy          =    -228.1749399255435549 [Eh]
	 Singles Energy            =      -0.0000000000000000 [Eh]
	 Same-Spin Energy          =      -0.2058294886029169 [Eh]
	 Opposite-Spin Energy      =      -0.6488572708417342 [Eh]
	 Correlation Energy        =      -0.8546867594446510 [Eh]
	 Total Energy              =    -229.0296266849882159 [Eh]
	 SCS Total Energy          =    -229.0221784800879448 [Eh]
                               Psi4 1.9 release
    Molecular point group: c1
  Multiplicity = 1
  Basis Set: AUG-CC-PVTZ
    Blend: AUG-CC-PVTZ
  Basis Set: (AUG-CC-PVTZ AUX)
    Blend: AUG-CC-PVTZ-JKFIT
  @DF-RHF Final Energy:   -99.45100538290342
    Total Energy =                        -99.4510053829034177
  Basis Set: (AUG-CC-PVTZ AUX)
	 Singles Energy            =      -0.0000000000000000 [Eh]
	 Same-Spin Energy          =      -0.0819346597543667 [Eh]
	 Opposite-Spin Energy      =      -0.2291454025001453 [Eh]
	 Correlation Energy        =      -0.3110800622545120 [Eh]
	 Total Energy              =     -99.7620854451579362 [Eh]
	 SCS Total Energy          =     -99.7532914191550475 [Eh]
                               Psi4 1.9 release
    Molecular point group: c1

    Geometry (in Bohr), charge = -1, multiplicity = 1:

       Center              X                  Y                   Z               Mass
    ------------   -----------------  -----------------  -----------------  -----------------
         F            0.000000000000     0.000000000000     0.000000000000    18.998403162730
         O           -3.891053806707     1.052210845012    -2.858231551742    15.994914619570
         H           -3.083460449731     1.417887968097    -4.450682970678     1.007825032230
         H           -2.526662095496     0.675633781635    -1.747975879061     1.007825032230
         O           -2.064775235911     1.003641104135     4.752198222626    15.994914619570
         H           -1.125681507043     0.892568671659     3.214458154474     1.007825032230
         H           -1.526673831961     2.570819325869     5.496444180424     1.007825032230
         O            3.503527670159     3.864695906709    -0.559769003705    15.994914619570
         H            2.277401550369     2.791877598299     0.170906830786     1.007825032230
         H            2.520095297210     4.573263835258    -1.926411378731     1.007825032230

  Charge       = -1
  Multiplicity = 1
  Basis Set: AUG-CC-PVTZ
    Blend: AUG-CC-PVTZ
  Basis Set: (AUG-CC-PVTZ AUX)
    Blend: AUG-CC-PVTZ-JKFIT

    Orbital Energies [Eh]
    ---------------------

    Doubly Occupied:

       1A    -25.940806     2A    -20.393311     3A    -20.387187
       4A    -20.369576     5A     -1.206777     6A     -1.183655
       7A     -1.174666     8A     -1.157894     9A     -0.541431
      10A     -0.539572    11A     -0.528898    12A     -0.430438
      13A     -0.414355    14A     -0.404457    15A     -0.342957
      16A     -0.335203    17A     -0.321941    18A     -0.296773
      19A     -0.295088    20A     -0.293423

  @DF-RHF Final Energy:  -327.71341667400259

   => Energetics <=

    Nuclear Repulsion Energy =            120.5095161570115039
    One-Electron Energy =                -703.3290469974523376
    Two-Electron Energy =                 255.1061141664382319
    Total Energy =                       -327.7134166740025876
 Dipole X            :         23.8570464          -23.0833920            0.7736544
 Dipole Y            :        -60.4639966           60.2864340           -0.1775625
 Dipole Z            :        -12.0760052           11.4303203           -0.6456849
 Magnitude           :                                                    1.0232197
  Basis Set: (AUG-CC-PVTZ AUX)
    Blend: AUG-CC-PVTZ-RI
	 Reference Energy          =    -327.7134166740025876 [Eh]
	 Singles Energy            =      -0.0000000000000000 [Eh]
	 Same-Spin Energy          =      -0.2912979451464665 [Eh]
	 Opposite-Spin Energy      =      -0.8773231853087353 [Eh]
	 Correlation Energy        =      -1.1686211304552017 [Eh]
	 Total Energy              =    -328.8820378044578092 [Eh]

	 ================> DF-SCS-MP2 Energies <==================
	-----------------------------------------------------------
	 SCS Same-Spin Scale       =       0.3333333333333333 [-]
	 SCS Opposite-Spin Scale   =       1.2000000000000000 [-]
	 SCS Same-Spin Energy      =      -0.0970993150488221 [Eh]
	 SCS Opposite-Spin Energy  =      -1.0527878223704823 [Eh]
	 SCS Correlation Energy    =      -1.1498871374193045 [Eh]
	 SCS Total Energy          =    -328.8633038114218721 [Eh]
	-----------------------------------------------------------

*** Psi4 exiting successfully. Buy a developer a beer!
