                               Psi4 1.8.2 release

  ==> Input File <==

--------------------------------------------------------------------------
MEMORY 60 GB

molecule dimer {
0 1
Gh(F)      0.000000     0.000000     0.000000
Gh(O)      0.020616    -2.622130    -0.705666
Gh(H)      0.176062    -1.700924    -0.426870
Gh(H)      0.795461    -2.839266    -1.297010
Gh(O)     -2.870261    -0.000471     0.338715
Gh(H)     -2.996147     0.666526     1.009785
Gh(H)     -1.893125    -0.105935     0.214458
Gh(O)     -0.001472     2.687410     0.723673
Gh(H)      0.881290     2.822564     0.332212
Gh(H)     -0.142487     1.752329     0.774552
O          2.136094    -0.056435     1.706865
H          1.433639    -0.096855     0.999761
H          1.859747     0.765500     2.240514
Gh(O)     -1.199236     1.217659    -2.416045
Gh(H)     -0.472625     1.733742    -2.621158
Gh(H)     -0.898635     0.774842    -1.566927

units ang
no_reorient
no_com
symmetry c1
}

set {
basis        aug-cc-pVTZ
scf_type     df
}

energy("mp2")
--------------------------------------------------------------------------

    Molecular point group: c1

    Geometry (in Angstrom), charge = 0, multiplicity = 1:

       Center              X                  Y                   Z               Mass
    ------------   -----------------  -----------------  -----------------  -----------------
      Gh(F)           0.000000000000     0.000000000000     0.000000000000    18.998403162730
      Gh(O)           0.020616000000    -2.622130000000    -0.705666000000    15.994914619570
      Gh(H)           0.176062000000    -1.700924000000    -0.426870000000     1.007825032230
      Gh(H)           0.795461000000    -2.839266000000    -1.297010000000     1.007825032230
      Gh(O)          -2.870261000000    -0.000471000000     0.338715000000    15.994914619570
      Gh(H)          -2.996147000000     0.666526000000     1.009785000000     1.007825032230
      Gh(H)          -1.893125000000    -0.105935000000     0.214458000000     1.007825032230
      Gh(O)          -0.001472000000     2.687410000000     0.723673000000    15.994914619570
      Gh(H)           0.881290000000     2.822564000000     0.332212000000     1.007825032230
      Gh(H)          -0.142487000000     1.752329000000     0.774552000000     1.007825032230
         O            2.136094000000    -0.056435000000     1.706865000000    15.994914619570
         H            1.433639000000    -0.096855000000     0.999761000000     1.007825032230
         H            1.859747000000     0.765500000000     2.240514000000     1.007825032230
      Gh(O)          -1.199236000000     1.217659000000    -2.416045000000    15.994914619570
      Gh(H)          -0.472625000000     1.733742000000    -2.621158000000     1.007825032230
      Gh(H)          -0.898635000000     0.774842000000    -1.566927000000     1.007825032230

  Charge       = 0
  Multiplicity = 1
  Basis Set: AUG-CC-PVTZ
    Blend: AUG-CC-PVTZ
  Basis Set: (AUG-CC-PVTZ AUX)
    Blend: AUG-CC-PVTZ-JKFIT

    Orbital Energies [Eh]
    ---------------------

    Doubly Occupied:

       1A    -20.576759     2A     -1.330476     3A     -0.687055
       4A     -0.579305     5A     -0.507148

  @DF-RHF Final Energy:   -76.05263960444775

   => Energetics <=

    Nuclear Repulsion Energy =              8.7387125161038224
    One-Electron Energy =                -122.2212151736988375
    Two-Electron Energy =                  37.4298630531472583
    Total Energy =                        -76.0526396044477622
 Dipole X            :        -39.1448732           38.5166587           -0.6282146
 Dipole Y            :          0.0882026            0.4103824            0.4985850
 Dipole Z            :        -32.0416951           31.9272914           -0.1144037
 Magnitude           :                                                    0.8101412
  Basis Set: (AUG-CC-PVTZ AUX)
    Blend: AUG-CC-PVTZ-RI
	 Reference Energy          =     -76.0526396044477480 [Eh]
	 Singles Energy            =      -0.0000000000000000 [Eh]
	 Same-Spin Energy          =      -0.0693443892912024 [Eh]
	 Opposite-Spin Energy      =      -0.2190212009999329 [Eh]
	 Correlation Energy        =      -0.2883655902911353 [Eh]
	 Total Energy              =     -76.3410051947388837 [Eh]

	 ================> DF-SCS-MP2 Energies <==================
	-----------------------------------------------------------
	 SCS Same-Spin Scale       =       0.3333333333333333 [-]
	 SCS Opposite-Spin Scale   =       1.2000000000000000 [-]
	 SCS Same-Spin Energy      =      -0.0231147964304008 [Eh]
	 SCS Opposite-Spin Energy  =      -0.2628254411999194 [Eh]
	 SCS Correlation Energy    =      -0.2859402376303202 [Eh]
	 SCS Total Energy          =     -76.3385798420780617 [Eh]
	-----------------------------------------------------------

*** Psi4 exiting successfully. Buy a developer a beer!
