                               Psi4 1.8.2 release

  ==> Input File <==

--------------------------------------------------------------------------
MEMORY 60 GB

molecule dimer {
-1 1
F          0.000000     0.000000     0.000000
Gh(O)      1.051129     1.096357     2.694346
Gh(H)      0.619287     1.901551     2.882839
Gh(H)      0.909597     0.954000     1.767452
Gh(O)      1.736119     1.777929    -1.101982
Gh(H)      1.243908     1.941691    -1.896130
Gh(H)      1.299520     1.022179    -0.669957
Gh(O)     -0.450907    -2.751484    -0.302061
Gh(H)     -0.441612    -3.080057     0.625078
Gh(H)     -0.079139    -1.885185    -0.236471
Gh(O)     -1.073336    -0.475456    -2.416481
Gh(H)     -1.819131     0.195421    -2.500612
Gh(H)     -0.639424    -0.295340    -1.571394
Gh(O)     -1.530930     2.318994    -0.767106
Gh(H)     -0.855521     1.628887    -0.576701
Gh(H)     -1.755147     2.231506    -1.684517
Gh(O)     -1.347398    -0.607075     2.261043
Gh(H)     -0.798765    -0.276198     1.560294
Gh(H)     -0.935135    -1.323906     2.841048

units ang
no_reorient
no_com
symmetry c1
}

set {
basis        aug-cc-pVTZ
scf_type     df
}

energy("mp2")
--------------------------------------------------------------------------

    Molecular point group: c1

    Geometry (in Angstrom), charge = -1, multiplicity = 1:

       Center              X                  Y                   Z               Mass
    ------------   -----------------  -----------------  -----------------  -----------------
         F            0.000000000000     0.000000000000     0.000000000000    18.998403162730
      Gh(O)           1.051129000000     1.096357000000     2.694346000000    15.994914619570
      Gh(H)           0.619287000000     1.901551000000     2.882839000000     1.007825032230
      Gh(H)           0.909597000000     0.954000000000     1.767452000000     1.007825032230
      Gh(O)           1.736119000000     1.777929000000    -1.101982000000    15.994914619570
      Gh(H)           1.243908000000     1.941691000000    -1.896130000000     1.007825032230
      Gh(H)           1.299520000000     1.022179000000    -0.669957000000     1.007825032230
      Gh(O)          -0.450907000000    -2.751484000000    -0.302061000000    15.994914619570
      Gh(H)          -0.441612000000    -3.080057000000     0.625078000000     1.007825032230
      Gh(H)          -0.079139000000    -1.885185000000    -0.236471000000     1.007825032230
      Gh(O)          -1.073336000000    -0.475456000000    -2.416481000000    15.994914619570
      Gh(H)          -1.819131000000     0.195421000000    -2.500612000000     1.007825032230
      Gh(H)          -0.639424000000    -0.295340000000    -1.571394000000     1.007825032230
      Gh(O)          -1.530930000000     2.318994000000    -0.767106000000    15.994914619570
      Gh(H)          -0.855521000000     1.628887000000    -0.576701000000     1.007825032230
      Gh(H)          -1.755147000000     2.231506000000    -1.684517000000     1.007825032230
      Gh(O)          -1.347398000000    -0.607075000000     2.261043000000    15.994914619570
      Gh(H)          -0.798765000000    -0.276198000000     1.560294000000     1.007825032230
      Gh(H)          -0.935135000000    -1.323906000000     2.841048000000     1.007825032230

  Charge       = -1
  Multiplicity = 1
  Basis Set: AUG-CC-PVTZ
    Blend: AUG-CC-PVTZ
  Basis Set: (AUG-CC-PVTZ AUX)
    Blend: AUG-CC-PVTZ-JKFIT

    Orbital Energies [Eh]
    ---------------------

    Doubly Occupied:

       1A    -25.833537     2A     -1.075865     3A     -0.180915
       4A     -0.180911     5A     -0.180858

  @DF-RHF Final Energy:   -99.45115808714331

   => Energetics <=

    Nuclear Repulsion Energy =              0.0000000000000000
    One-Electron Energy =                -143.9981370391332121
    Two-Electron Energy =                  44.5469789519899066
    Total Energy =                        -99.4511580871433125
 Dipole X            :         -0.0000491            0.0000000           -0.0000491
 Dipole Y            :          0.0001289            0.0000000            0.0001289
 Dipole Z            :         -0.0000309            0.0000000           -0.0000309
 Magnitude           :                                                    0.0001414
  Basis Set: (AUG-CC-PVTZ AUX)
    Blend: AUG-CC-PVTZ-RI
	 Reference Energy          =     -99.4511580871433125 [Eh]
	 Singles Energy            =      -0.0000000000000000 [Eh]
	 Same-Spin Energy          =      -0.0820999337826151 [Eh]
	 Opposite-Spin Energy      =      -0.2305249723412467 [Eh]
	 Correlation Energy        =      -0.3126249061238617 [Eh]
	 Total Energy              =     -99.7637829932671707 [Eh]

	 ================> DF-SCS-MP2 Energies <==================
	-----------------------------------------------------------
	 SCS Same-Spin Scale       =       0.3333333333333333 [-]
	 SCS Opposite-Spin Scale   =       1.2000000000000000 [-]
	 SCS Same-Spin Energy      =      -0.0273666445942050 [Eh]
	 SCS Opposite-Spin Energy  =      -0.2766299668094960 [Eh]
	 SCS Correlation Energy    =      -0.3039966114037010 [Eh]
	 SCS Total Energy          =     -99.7551546985470168 [Eh]
	-----------------------------------------------------------

*** Psi4 exiting successfully. Buy a developer a beer!
