                               Psi4 1.8.2 release

  ==> Input File <==

--------------------------------------------------------------------------
MEMORY 60 GB

molecule dimer {
0 1
Gh(F)      0.000000     0.000000     0.000000
Gh(O)     -1.944527     0.667499    -2.037884
Gh(H)     -1.368387     0.229404    -1.388126
Gh(H)     -1.725369     0.146857    -2.796287
O          2.643442     0.923070     0.544992
H          1.757284     0.494516     0.594070
H          2.927492     0.930628     1.470439
Gh(O)     -0.089574    -2.415065     1.212511
Gh(H)     -0.321483    -1.491225     0.904779
Gh(H)      0.328480    -2.335764     2.040561
Gh(O)      1.394067     1.308528    -2.063548
Gh(H)      1.073967     0.850781    -1.278231
Gh(H)      0.906903     2.092693    -2.265606
Gh(O)     -2.338432     0.730854     1.212540
Gh(H)     -2.409960     1.553376     1.716659
Gh(H)     -1.476015     0.775888     0.745875

units ang
no_reorient
no_com
symmetry c1
}

set {
basis        aug-cc-pVTZ
scf_type     df
}

energy("mp2")
--------------------------------------------------------------------------

    Molecular point group: c1

    Geometry (in Angstrom), charge = 0, multiplicity = 1:

       Center              X                  Y                   Z               Mass
    ------------   -----------------  -----------------  -----------------  -----------------
      Gh(F)           0.000000000000     0.000000000000     0.000000000000    18.998403162730
      Gh(O)          -1.944527000000     0.667499000000    -2.037884000000    15.994914619570
      Gh(H)          -1.368387000000     0.229404000000    -1.388126000000     1.007825032230
      Gh(H)          -1.725369000000     0.146857000000    -2.796287000000     1.007825032230
         O            2.643442000000     0.923070000000     0.544992000000    15.994914619570
         H            1.757284000000     0.494516000000     0.594070000000     1.007825032230
         H            2.927492000000     0.930628000000     1.470439000000     1.007825032230
      Gh(O)          -0.089574000000    -2.415065000000     1.212511000000    15.994914619570
      Gh(H)          -0.321483000000    -1.491225000000     0.904779000000     1.007825032230
      Gh(H)           0.328480000000    -2.335764000000     2.040561000000     1.007825032230
      Gh(O)           1.394067000000     1.308528000000    -2.063548000000    15.994914619570
      Gh(H)           1.073967000000     0.850781000000    -1.278231000000     1.007825032230
      Gh(H)           0.906903000000     2.092693000000    -2.265606000000     1.007825032230
      Gh(O)          -2.338432000000     0.730854000000     1.212540000000    15.994914619570
      Gh(H)          -2.409960000000     1.553376000000     1.716659000000     1.007825032230
      Gh(H)          -1.476015000000     0.775888000000     0.745875000000     1.007825032230

  Charge       = 0
  Multiplicity = 1
  Basis Set: AUG-CC-PVTZ
    Blend: AUG-CC-PVTZ
  Basis Set: (AUG-CC-PVTZ AUX)
    Blend: AUG-CC-PVTZ-JKFIT

    Orbital Energies [Eh]
    ---------------------

    Doubly Occupied:

       1A    -20.571355     2A     -1.344990     3A     -0.703750
       4A     -0.584656     5A     -0.509301

  @DF-RHF Final Energy:   -76.05841133742769

   => Energetics <=

    Nuclear Repulsion Energy =              9.0152349026506347
    One-Electron Energy =                -122.7191869225008105
    Two-Electron Energy =                  37.6455406824224994
    Total Energy =                        -76.0584113374276853
 Dipole X            :        -49.2074316           48.8159949           -0.3914368
 Dipole Y            :        -16.9225241           16.6479278           -0.2745963
 Dipole Z            :        -11.5013966           12.1404416            0.6390450
 Magnitude           :                                                    0.7981255
  Basis Set: (AUG-CC-PVTZ AUX)
    Blend: AUG-CC-PVTZ-RI
	 Reference Energy          =     -76.0584113374276853 [Eh]
	 Singles Energy            =      -0.0000000000000000 [Eh]
	 Same-Spin Energy          =      -0.0687859161284351 [Eh]
	 Opposite-Spin Energy      =      -0.2170487342468439 [Eh]
	 Correlation Energy        =      -0.2858346503752789 [Eh]
	 Total Energy              =     -76.3442459878029638 [Eh]

	 ================> DF-SCS-MP2 Energies <==================
	-----------------------------------------------------------
	 SCS Same-Spin Scale       =       0.3333333333333333 [-]
	 SCS Opposite-Spin Scale   =       1.2000000000000000 [-]
	 SCS Same-Spin Energy      =      -0.0229286387094784 [Eh]
	 SCS Opposite-Spin Energy  =      -0.2604584810962127 [Eh]
	 SCS Correlation Energy    =      -0.2833871198056910 [Eh]
	 SCS Total Energy          =     -76.3417984572333808 [Eh]
	-----------------------------------------------------------

*** Psi4 exiting successfully. Buy a developer a beer!
