                               Psi4 1.8.2 release

  ==> Input File <==

--------------------------------------------------------------------------
MEMORY 60 GB

molecule dimer {
-1 1
F          0.000000     0.000000     0.000000
O          2.385569     0.742591     1.674951
H          1.619624     0.724586     1.100121
H          2.424688    -0.125409     2.056396
O         -0.239041    -2.096331    -1.876795
H          0.025958    -2.893733    -1.489325
H         -0.471491    -1.429774    -1.203876
O          0.205984    -2.249977     1.611546
H         -0.314760    -2.967836     1.148222
H          0.191515    -1.386093     1.171929
O         -1.908189     0.748542     1.890951
H         -1.585089     1.599532     2.357873
H         -1.246971     0.562129     1.226859
O         -0.543220     2.567600    -0.603874
H         -0.100372     1.702524    -0.500902
H         -1.436617     2.597652    -0.284137
O          2.601881     0.224157    -1.352015
H          1.685409     0.167066    -1.062671
H          2.612419     0.812342    -2.122170

units ang
no_reorient
no_com
symmetry c1
}

set {
basis        aug-cc-pVTZ
scf_type     df
}

energy("mp2")
--------------------------------------------------------------------------

    Molecular point group: c1

    Geometry (in Angstrom), charge = -1, multiplicity = 1:

       Center              X                  Y                   Z               Mass
    ------------   -----------------  -----------------  -----------------  -----------------
         F            0.000000000000     0.000000000000     0.000000000000    18.998403162730
         O            2.385569000000     0.742591000000     1.674951000000    15.994914619570
         H            1.619624000000     0.724586000000     1.100121000000     1.007825032230
         H            2.424688000000    -0.125409000000     2.056396000000     1.007825032230
         O           -0.239041000000    -2.096331000000    -1.876795000000    15.994914619570
         H            0.025958000000    -2.893733000000    -1.489325000000     1.007825032230
         H           -0.471491000000    -1.429774000000    -1.203876000000     1.007825032230
         O            0.205984000000    -2.249977000000     1.611546000000    15.994914619570
         H           -0.314760000000    -2.967836000000     1.148222000000     1.007825032230
         H            0.191515000000    -1.386093000000     1.171929000000     1.007825032230
         O           -1.908189000000     0.748542000000     1.890951000000    15.994914619570
         H           -1.585089000000     1.599532000000     2.357873000000     1.007825032230
         H           -1.246971000000     0.562129000000     1.226859000000     1.007825032230
         O           -0.543220000000     2.567600000000    -0.603874000000    15.994914619570
         H           -0.100372000000     1.702524000000    -0.500902000000     1.007825032230
         H           -1.436617000000     2.597652000000    -0.284137000000     1.007825032230
         O            2.601881000000     0.224157000000    -1.352015000000    15.994914619570
         H            1.685409000000     0.167066000000    -1.062671000000     1.007825032230
         H            2.612419000000     0.812342000000    -2.122170000000     1.007825032230

  Charge       = -1
  Multiplicity = 1
  Basis Set: AUG-CC-PVTZ
    Blend: AUG-CC-PVTZ
  Basis Set: (AUG-CC-PVTZ AUX)
    Blend: AUG-CC-PVTZ-JKFIT

    Orbital Energies [Eh]
    ---------------------

    Doubly Occupied:

       1A    -26.019153     2A    -20.419211     3A    -20.415662
       4A    -20.412590     5A    -20.409445     6A    -20.405538
       7A    -20.402553     8A     -1.288690     9A     -1.206353
      10A     -1.198104    11A     -1.191788    12A     -1.189605
      13A     -1.187248    14A     -1.185502    15A     -0.591854
      16A     -0.584831    17A     -0.576158    18A     -0.570756
      19A     -0.560511    20A     -0.555664    21A     -0.447878
      22A     -0.437736    23A     -0.435013    24A     -0.429328
      25A     -0.423566    26A     -0.413511    27A     -0.377808
      28A     -0.377297    29A     -0.366105    30A     -0.362013
      31A     -0.360303    32A     -0.356975    33A     -0.355273
      34A     -0.349528    35A     -0.344134

  @DF-RHF Final Energy:  -555.92140323216859

   => Energetics <=

    Nuclear Repulsion Energy =            355.6803433434863564
    One-Electron Energy =               -1490.7881152537595426
    Two-Electron Energy =                 579.1863686781045999
    Total Energy =                       -555.9214032321685863
 Dipole X            :        -45.4089540           44.2728533           -1.1361008
 Dipole Y            :          1.7577573           -2.1625232           -0.4047659
 Dipole Z            :        -25.2046429           24.8620514           -0.3425915
 Magnitude           :                                                    1.2537660
  Basis Set: (AUG-CC-PVTZ AUX)
    Blend: AUG-CC-PVTZ-RI
	 Reference Energy          =    -555.9214032321685863 [Eh]
	 Singles Energy            =      -0.0000000000000000 [Eh]
	 Same-Spin Energy          =      -0.5026170207143557 [Eh]
	 Opposite-Spin Energy      =      -1.5328957909191296 [Eh]
	 Correlation Energy        =      -2.0355128116334855 [Eh]
	 Total Energy              =    -557.9569160438020390 [Eh]

	 ================> DF-SCS-MP2 Energies <==================
	-----------------------------------------------------------
	 SCS Same-Spin Scale       =       0.3333333333333333 [-]
	 SCS Opposite-Spin Scale   =       1.2000000000000000 [-]
	 SCS Same-Spin Energy      =      -0.1675390069047852 [Eh]
	 SCS Opposite-Spin Energy  =      -1.8394749491029554 [Eh]
	 SCS Correlation Energy    =      -2.0070139560077407 [Eh]
	 SCS Total Energy          =    -557.9284171881763541 [Eh]
	-----------------------------------------------------------

*** Psi4 exiting successfully. Buy a developer a beer!
