                               Psi4 1.8.2 release

  ==> Input File <==

--------------------------------------------------------------------------
MEMORY 60 GB

molecule dimer {
0 1
Gh(F)      0.000000     0.000000     0.000000
Gh(O)     -1.599124     1.023579    -2.267830
Gh(H)     -1.095004     0.566212    -1.620752
Gh(H)     -2.338051     0.444325    -2.479137
Gh(O)     -2.343446    -0.430618     1.559407
Gh(H)     -1.488327    -0.319284     1.147914
Gh(H)     -2.658215     0.396947     1.860568
Gh(O)     -1.204583    -2.106759    -1.342688
Gh(H)     -2.121289    -2.045476    -1.127318
Gh(H)     -0.755091    -1.622357    -0.621682
O          1.437032    -1.588073     1.754632
H          0.692906    -2.061247     2.155763
H          1.089729    -0.888662     1.135098
Gh(O)      2.067070    -0.264464    -2.019076
Gh(H)      1.308735    -0.187229    -1.415516
Gh(H)      2.146809     0.663476    -2.287155

units ang
no_reorient
no_com
symmetry c1
}

set {
basis        aug-cc-pVTZ
scf_type     df
}

energy("mp2")
--------------------------------------------------------------------------

    Molecular point group: c1

    Geometry (in Angstrom), charge = 0, multiplicity = 1:

       Center              X                  Y                   Z               Mass
    ------------   -----------------  -----------------  -----------------  -----------------
      Gh(F)           0.000000000000     0.000000000000     0.000000000000    18.998403162730
      Gh(O)          -1.599124000000     1.023579000000    -2.267830000000    15.994914619570
      Gh(H)          -1.095004000000     0.566212000000    -1.620752000000     1.007825032230
      Gh(H)          -2.338051000000     0.444325000000    -2.479137000000     1.007825032230
      Gh(O)          -2.343446000000    -0.430618000000     1.559407000000    15.994914619570
      Gh(H)          -1.488327000000    -0.319284000000     1.147914000000     1.007825032230
      Gh(H)          -2.658215000000     0.396947000000     1.860568000000     1.007825032230
      Gh(O)          -1.204583000000    -2.106759000000    -1.342688000000    15.994914619570
      Gh(H)          -2.121289000000    -2.045476000000    -1.127318000000     1.007825032230
      Gh(H)          -0.755091000000    -1.622357000000    -0.621682000000     1.007825032230
         O            1.437032000000    -1.588073000000     1.754632000000    15.994914619570
         H            0.692906000000    -2.061247000000     2.155763000000     1.007825032230
         H            1.089729000000    -0.888662000000     1.135098000000     1.007825032230
      Gh(O)           2.067070000000    -0.264464000000    -2.019076000000    15.994914619570
      Gh(H)           1.308735000000    -0.187229000000    -1.415516000000     1.007825032230
      Gh(H)           2.146809000000     0.663476000000    -2.287155000000     1.007825032230

  Charge       = 0
  Multiplicity = 1
  Basis Set: AUG-CC-PVTZ
    Blend: AUG-CC-PVTZ
  Basis Set: (AUG-CC-PVTZ AUX)
    Blend: AUG-CC-PVTZ-JKFIT

    Orbital Energies [Eh]
    ---------------------

    Doubly Occupied:

       1A    -20.569154     2A     -1.337601     3A     -0.712762
       4A     -0.570505     5A     -0.506750

  @DF-RHF Final Energy:   -76.05695454318430

   => Energetics <=

    Nuclear Repulsion Energy =              8.9466870170374779
    One-Electron Energy =                -122.6137365975795035
    Two-Electron Energy =                  37.6100950373577234
    Total Energy =                        -76.0569545431843039
 Dipole X            :        -25.8198349           25.0934672           -0.7263676
 Dipole Y            :         29.7304764          -29.5827044            0.1477720
 Dipole Z            :        -32.8877918           32.7450175           -0.1427744
 Magnitude           :                                                    0.7548715
  Basis Set: (AUG-CC-PVTZ AUX)
    Blend: AUG-CC-PVTZ-RI
	 Reference Energy          =     -76.0569545431843039 [Eh]
	 Singles Energy            =      -0.0000000000000000 [Eh]
	 Same-Spin Energy          =      -0.0687738281654242 [Eh]
	 Opposite-Spin Energy      =      -0.2171179850389467 [Eh]
	 Correlation Energy        =      -0.2858918132043708 [Eh]
	 Total Energy              =     -76.3428463563886766 [Eh]

	 ================> DF-SCS-MP2 Energies <==================
	-----------------------------------------------------------
	 SCS Same-Spin Scale       =       0.3333333333333333 [-]
	 SCS Opposite-Spin Scale   =       1.2000000000000000 [-]
	 SCS Same-Spin Energy      =      -0.0229246093884747 [Eh]
	 SCS Opposite-Spin Energy  =      -0.2605415820467360 [Eh]
	 SCS Correlation Energy    =      -0.2834661914352107 [Eh]
	 SCS Total Energy          =     -76.3404207346195136 [Eh]
	-----------------------------------------------------------

*** Psi4 exiting successfully. Buy a developer a beer!
