                               Psi4 1.8.2 release

  ==> Input File <==

--------------------------------------------------------------------------
MEMORY 60 GB

molecule dimer {
0 1
Gh(F)      0.000000     0.000000     0.000000
Gh(O)      1.051129     1.096357     2.694346
Gh(H)      0.619287     1.901551     2.882839
Gh(H)      0.909597     0.954000     1.767452
O          1.736119     1.777929    -1.101982
H          1.243908     1.941691    -1.896130
H          1.299520     1.022179    -0.669957
Gh(O)     -0.450907    -2.751484    -0.302061
Gh(H)     -0.441612    -3.080057     0.625078
Gh(H)     -0.079139    -1.885185    -0.236471
Gh(O)     -1.073336    -0.475456    -2.416481
Gh(H)     -1.819131     0.195421    -2.500612
Gh(H)     -0.639424    -0.295340    -1.571394
Gh(O)     -1.530930     2.318994    -0.767106
Gh(H)     -0.855521     1.628887    -0.576701
Gh(H)     -1.755147     2.231506    -1.684517
Gh(O)     -1.347398    -0.607075     2.261043
Gh(H)     -0.798765    -0.276198     1.560294
Gh(H)     -0.935135    -1.323906     2.841048

units ang
no_reorient
no_com
symmetry c1
}

set {
basis        aug-cc-pVTZ
scf_type     df
}

energy("mp2")
--------------------------------------------------------------------------

    Molecular point group: c1

    Geometry (in Angstrom), charge = 0, multiplicity = 1:

       Center              X                  Y                   Z               Mass
    ------------   -----------------  -----------------  -----------------  -----------------
      Gh(F)           0.000000000000     0.000000000000     0.000000000000    18.998403162730
      Gh(O)           1.051129000000     1.096357000000     2.694346000000    15.994914619570
      Gh(H)           0.619287000000     1.901551000000     2.882839000000     1.007825032230
      Gh(H)           0.909597000000     0.954000000000     1.767452000000     1.007825032230
         O            1.736119000000     1.777929000000    -1.101982000000    15.994914619570
         H            1.243908000000     1.941691000000    -1.896130000000     1.007825032230
         H            1.299520000000     1.022179000000    -0.669957000000     1.007825032230
      Gh(O)          -0.450907000000    -2.751484000000    -0.302061000000    15.994914619570
      Gh(H)          -0.441612000000    -3.080057000000     0.625078000000     1.007825032230
      Gh(H)          -0.079139000000    -1.885185000000    -0.236471000000     1.007825032230
      Gh(O)          -1.073336000000    -0.475456000000    -2.416481000000    15.994914619570
      Gh(H)          -1.819131000000     0.195421000000    -2.500612000000     1.007825032230
      Gh(H)          -0.639424000000    -0.295340000000    -1.571394000000     1.007825032230
      Gh(O)          -1.530930000000     2.318994000000    -0.767106000000    15.994914619570
      Gh(H)          -0.855521000000     1.628887000000    -0.576701000000     1.007825032230
      Gh(H)          -1.755147000000     2.231506000000    -1.684517000000     1.007825032230
      Gh(O)          -1.347398000000    -0.607075000000     2.261043000000    15.994914619570
      Gh(H)          -0.798765000000    -0.276198000000     1.560294000000     1.007825032230
      Gh(H)          -0.935135000000    -1.323906000000     2.841048000000     1.007825032230

  Charge       = 0
  Multiplicity = 1
  Basis Set: AUG-CC-PVTZ
    Blend: AUG-CC-PVTZ
  Basis Set: (AUG-CC-PVTZ AUX)
    Blend: AUG-CC-PVTZ-JKFIT

    Orbital Energies [Eh]
    ---------------------

    Doubly Occupied:

       1A    -20.567129     2A     -1.350663     3A     -0.718123
       4A     -0.581467     5A     -0.509615

  @DF-RHF Final Energy:   -76.06015732065879

   => Energetics <=

    Nuclear Repulsion Energy =              9.1550566796523150
    One-Electron Energy =                -122.9764310751886995
    Two-Electron Energy =                  37.7612170748775853
    Total Energy =                        -76.0601573206587886
 Dipole X            :        -31.6715663           31.0526978           -0.6188685
 Dipole Y            :        -32.8714236           32.4792936           -0.3921300
 Dipole Z            :         21.2642684          -21.5087550           -0.2444866
 Magnitude           :                                                    0.7723587
  Basis Set: (AUG-CC-PVTZ AUX)
    Blend: AUG-CC-PVTZ-RI
	 Reference Energy          =     -76.0601573206587886 [Eh]
	 Singles Energy            =      -0.0000000000000000 [Eh]
	 Same-Spin Energy          =      -0.0684718344525508 [Eh]
	 Opposite-Spin Energy      =      -0.2163753389260572 [Eh]
	 Correlation Energy        =      -0.2848471733786080 [Eh]
	 Total Energy              =     -76.3450044940373971 [Eh]

	 ================> DF-SCS-MP2 Energies <==================
	-----------------------------------------------------------
	 SCS Same-Spin Scale       =       0.3333333333333333 [-]
	 SCS Opposite-Spin Scale   =       1.2000000000000000 [-]
	 SCS Same-Spin Energy      =      -0.0228239448175169 [Eh]
	 SCS Opposite-Spin Energy  =      -0.2596504067112686 [Eh]
	 SCS Correlation Energy    =      -0.2824743515287855 [Eh]
	 SCS Total Energy          =     -76.3426316721875793 [Eh]
	-----------------------------------------------------------

*** Psi4 exiting successfully. Buy a developer a beer!
