                               Psi4 1.8.2 release

  ==> Input File <==

--------------------------------------------------------------------------
MEMORY 60 GB

molecule dimer {
-1 1
F          0.000000     0.000000     0.000000
Gh(O)     -0.707361     2.525434    -1.575050
Gh(H)     -1.618200     2.532030    -1.172278
Gh(H)     -0.360557     1.715787    -1.222011
Gh(O)      0.231457    -1.514785     2.454981
Gh(H)      0.520078    -2.412679     2.201167
Gh(H)      0.152694    -0.949314     1.706223
Gh(O)      2.534888    -0.934845    -0.773892
Gh(H)      1.708681    -0.455364    -0.810073
Gh(H)      2.593842    -1.430710    -1.602941
Gh(O)     -1.646211    -2.005263    -0.559192
Gh(H)     -2.276294    -1.608534    -1.184598
Gh(H)     -0.985436    -1.310462    -0.430945
Gh(O)     -0.839643     1.611946     1.821990
Gh(H)     -0.333256     1.129240     1.164903
Gh(H)     -1.766320     1.284318     1.860799

units ang
no_reorient
no_com
symmetry c1
}

set {
basis        aug-cc-pVTZ
scf_type     df
}

energy("mp2")
--------------------------------------------------------------------------

    Molecular point group: c1

    Geometry (in Angstrom), charge = -1, multiplicity = 1:

       Center              X                  Y                   Z               Mass
    ------------   -----------------  -----------------  -----------------  -----------------
         F            0.000000000000     0.000000000000     0.000000000000    18.998403162730
      Gh(O)          -0.707361000000     2.525434000000    -1.575050000000    15.994914619570
      Gh(H)          -1.618200000000     2.532030000000    -1.172278000000     1.007825032230
      Gh(H)          -0.360557000000     1.715787000000    -1.222011000000     1.007825032230
      Gh(O)           0.231457000000    -1.514785000000     2.454981000000    15.994914619570
      Gh(H)           0.520078000000    -2.412679000000     2.201167000000     1.007825032230
      Gh(H)           0.152694000000    -0.949314000000     1.706223000000     1.007825032230
      Gh(O)           2.534888000000    -0.934845000000    -0.773892000000    15.994914619570
      Gh(H)           1.708681000000    -0.455364000000    -0.810073000000     1.007825032230
      Gh(H)           2.593842000000    -1.430710000000    -1.602941000000     1.007825032230
      Gh(O)          -1.646211000000    -2.005263000000    -0.559192000000    15.994914619570
      Gh(H)          -2.276294000000    -1.608534000000    -1.184598000000     1.007825032230
      Gh(H)          -0.985436000000    -1.310462000000    -0.430945000000     1.007825032230
      Gh(O)          -0.839643000000     1.611946000000     1.821990000000    15.994914619570
      Gh(H)          -0.333256000000     1.129240000000     1.164903000000     1.007825032230
      Gh(H)          -1.766320000000     1.284318000000     1.860799000000     1.007825032230

  Charge       = -1
  Multiplicity = 1
  Basis Set: AUG-CC-PVTZ
    Blend: AUG-CC-PVTZ
  Basis Set: (AUG-CC-PVTZ AUX)
    Blend: AUG-CC-PVTZ-JKFIT

    Orbital Energies [Eh]
    ---------------------

    Doubly Occupied:

       1A    -25.833597     2A     -1.075894     3A     -0.180930
       4A     -0.180920     5A     -0.180882

  @DF-RHF Final Energy:   -99.45112333247585

   => Energetics <=

    Nuclear Repulsion Energy =              0.0000000000000000
    One-Electron Energy =                -143.9977929178591296
    Two-Electron Energy =                  44.5466695853832846
    Total Energy =                        -99.4511233324758450
 Dipole X            :         -0.0000517            0.0000000           -0.0000517
 Dipole Y            :         -0.0001153            0.0000000           -0.0001153
 Dipole Z            :          0.0000370            0.0000000            0.0000370
 Magnitude           :                                                    0.0001317
  Basis Set: (AUG-CC-PVTZ AUX)
    Blend: AUG-CC-PVTZ-RI
	 Reference Energy          =     -99.4511233324758450 [Eh]
	 Singles Energy            =      -0.0000000000000000 [Eh]
	 Same-Spin Energy          =      -0.0820504878093121 [Eh]
	 Opposite-Spin Energy      =      -0.2301981401448793 [Eh]
	 Correlation Energy        =      -0.3122486279541914 [Eh]
	 Total Energy              =     -99.7633719604300353 [Eh]

	 ================> DF-SCS-MP2 Energies <==================
	-----------------------------------------------------------
	 SCS Same-Spin Scale       =       0.3333333333333333 [-]
	 SCS Opposite-Spin Scale   =       1.2000000000000000 [-]
	 SCS Same-Spin Energy      =      -0.0273501626031040 [Eh]
	 SCS Opposite-Spin Energy  =      -0.2762377681738551 [Eh]
	 SCS Correlation Energy    =      -0.3035879307769592 [Eh]
	 SCS Total Energy          =     -99.7547112632528012 [Eh]
	-----------------------------------------------------------

*** Psi4 exiting successfully. Buy a developer a beer!
