                               Psi4 1.8.2 release

  ==> Input File <==

--------------------------------------------------------------------------
MEMORY 60 GB

molecule dimer {
-1 1
F          0.000000     0.000000     0.000000
Gh(O)      1.549726    -0.592173    -2.469497
Gh(H)      2.491955    -0.304027    -2.354979
Gh(H)      1.059966    -0.129118    -1.739114
Gh(O)     -2.109158     0.552064     1.527417
Gh(H)     -1.303685     0.262813     1.105559
Gh(H)     -2.150940     1.467686     1.236099
Gh(O)     -0.658953     2.609487    -0.786580
Gh(H)     -0.277803     1.841298    -0.414688
Gh(H)     -1.429545     2.816178    -0.200283
Gh(O)      1.311910    -1.653315     1.534469
Gh(H)      0.833433    -0.988070     1.037024
Gh(H)      0.695205    -2.456602     1.463667
Gh(O)     -1.617297    -0.996617    -2.102888
Gh(H)     -1.802101    -0.062886    -2.375282
Gh(H)     -1.153428    -0.952167    -1.276978

units ang
no_reorient
no_com
symmetry c1
}

set {
basis        aug-cc-pVTZ
scf_type     df
}

energy("mp2")
--------------------------------------------------------------------------

    Molecular point group: c1

    Geometry (in Angstrom), charge = -1, multiplicity = 1:

       Center              X                  Y                   Z               Mass
    ------------   -----------------  -----------------  -----------------  -----------------
         F            0.000000000000     0.000000000000     0.000000000000    18.998403162730
      Gh(O)           1.549726000000    -0.592173000000    -2.469497000000    15.994914619570
      Gh(H)           2.491955000000    -0.304027000000    -2.354979000000     1.007825032230
      Gh(H)           1.059966000000    -0.129118000000    -1.739114000000     1.007825032230
      Gh(O)          -2.109158000000     0.552064000000     1.527417000000    15.994914619570
      Gh(H)          -1.303685000000     0.262813000000     1.105559000000     1.007825032230
      Gh(H)          -2.150940000000     1.467686000000     1.236099000000     1.007825032230
      Gh(O)          -0.658953000000     2.609487000000    -0.786580000000    15.994914619570
      Gh(H)          -0.277803000000     1.841298000000    -0.414688000000     1.007825032230
      Gh(H)          -1.429545000000     2.816178000000    -0.200283000000     1.007825032230
      Gh(O)           1.311910000000    -1.653315000000     1.534469000000    15.994914619570
      Gh(H)           0.833433000000    -0.988070000000     1.037024000000     1.007825032230
      Gh(H)           0.695205000000    -2.456602000000     1.463667000000     1.007825032230
      Gh(O)          -1.617297000000    -0.996617000000    -2.102888000000    15.994914619570
      Gh(H)          -1.802101000000    -0.062886000000    -2.375282000000     1.007825032230
      Gh(H)          -1.153428000000    -0.952167000000    -1.276978000000     1.007825032230

  Charge       = -1
  Multiplicity = 1
  Basis Set: AUG-CC-PVTZ
    Blend: AUG-CC-PVTZ
  Basis Set: (AUG-CC-PVTZ AUX)
    Blend: AUG-CC-PVTZ-JKFIT

    Orbital Energies [Eh]
    ---------------------

    Doubly Occupied:

       1A    -25.833582     2A     -1.075887     3A     -0.180920
       4A     -0.180918     5A     -0.180880

  @DF-RHF Final Energy:   -99.45112436463208

   => Energetics <=

    Nuclear Repulsion Energy =              0.0000000000000000
    One-Electron Energy =                -143.9978657192901323
    Two-Electron Energy =                  44.5467413546580602
    Total Energy =                        -99.4511243646320793
 Dipole X            :         -0.0001944            0.0000000           -0.0001944
 Dipole Y            :         -0.0000090            0.0000000           -0.0000090
 Dipole Z            :          0.0000307            0.0000000            0.0000307
 Magnitude           :                                                    0.0001970
  Basis Set: (AUG-CC-PVTZ AUX)
    Blend: AUG-CC-PVTZ-RI
	 Reference Energy          =     -99.4511243646320793 [Eh]
	 Singles Energy            =      -0.0000000000000000 [Eh]
	 Same-Spin Energy          =      -0.0820550183737743 [Eh]
	 Opposite-Spin Energy      =      -0.2301866443511013 [Eh]
	 Correlation Energy        =      -0.3122416627248756 [Eh]
	 Total Energy              =     -99.7633660273569518 [Eh]

	 ================> DF-SCS-MP2 Energies <==================
	-----------------------------------------------------------
	 SCS Same-Spin Scale       =       0.3333333333333333 [-]
	 SCS Opposite-Spin Scale   =       1.2000000000000000 [-]
	 SCS Same-Spin Energy      =      -0.0273516727912581 [Eh]
	 SCS Opposite-Spin Energy  =      -0.2762239732213215 [Eh]
	 SCS Correlation Energy    =      -0.3035756460125796 [Eh]
	 SCS Total Energy          =     -99.7547000106446546 [Eh]
	-----------------------------------------------------------

*** Psi4 exiting successfully. Buy a developer a beer!
