                               Psi4 1.8.2 release

  ==> Input File <==

--------------------------------------------------------------------------
MEMORY 60 GB

molecule dimer {
-1 1
F          0.000000     0.000000     0.000000
O         -1.006216    -0.656294    -2.699179
H         -1.494548     0.181956    -2.928445
H         -0.539619    -0.569324    -1.861169
O          1.610323     1.707632    -1.491867
H          1.013163     2.482512    -1.512988
H          1.164599     1.015320    -1.082122
O         -1.681240    -2.035223     1.447043
H         -1.235665    -1.300377     0.974924
H         -2.630026    -1.906729     1.111423
O          2.021760    -1.325611     0.977475
H          1.199443    -1.017688     0.585508
H          2.376563    -1.912348     0.315540

units ang
no_reorient
no_com
symmetry c1
}

set {
basis        aug-cc-pVTZ
scf_type     df
}

energy("mp2")
--------------------------------------------------------------------------

    Molecular point group: c1

    Geometry (in Angstrom), charge = -1, multiplicity = 1:

       Center              X                  Y                   Z               Mass
    ------------   -----------------  -----------------  -----------------  -----------------
         F            0.000000000000     0.000000000000     0.000000000000    18.998403162730
         O           -1.006216000000    -0.656294000000    -2.699179000000    15.994914619570
         H           -1.494548000000     0.181956000000    -2.928445000000     1.007825032230
         H           -0.539619000000    -0.569324000000    -1.861169000000     1.007825032230
         O            1.610323000000     1.707632000000    -1.491867000000    15.994914619570
         H            1.013163000000     2.482512000000    -1.512988000000     1.007825032230
         H            1.164599000000     1.015320000000    -1.082122000000     1.007825032230
         O           -1.681240000000    -2.035223000000     1.447043000000    15.994914619570
         H           -1.235665000000    -1.300377000000     0.974924000000     1.007825032230
         H           -2.630026000000    -1.906729000000     1.111423000000     1.007825032230
         O            2.021760000000    -1.325611000000     0.977475000000    15.994914619570
         H            1.199443000000    -1.017688000000     0.585508000000     1.007825032230
         H            2.376563000000    -1.912348000000     0.315540000000     1.007825032230

  Charge       = -1
  Multiplicity = 1
  Basis Set: AUG-CC-PVTZ
    Blend: AUG-CC-PVTZ
  Basis Set: (AUG-CC-PVTZ AUX)
    Blend: AUG-CC-PVTZ-JKFIT

    Orbital Energies [Eh]
    ---------------------

    Doubly Occupied:

       1A    -25.963613     2A    -20.413963     3A    -20.410051
       4A    -20.391831     5A    -20.370515     6A     -1.227730
       7A     -1.185071     8A     -1.181996     9A     -1.176774
      10A     -1.161302    11A     -0.564918    12A     -0.561159
      13A     -0.532547    14A     -0.527135    15A     -0.431099
      16A     -0.420948    17A     -0.415540    18A     -0.406623
      19A     -0.353944    20A     -0.350373    21A     -0.342779
      22A     -0.327647    23A     -0.319920    24A     -0.316288
      25A     -0.310102

  @DF-RHF Final Energy:  -403.77735903401492

   => Energetics <=

    Nuclear Repulsion Energy =            181.5944190966700660
    One-Electron Energy =                -931.4158077837214478
    Two-Electron Energy =                 346.0440296530364321
    Total Energy =                       -403.7773590340149212
 Dipole X            :        -15.4919213           14.0046205           -1.4873008
 Dipole Y            :         41.9514539          -40.6341119            1.3173420
 Dipole Z            :         34.7123628          -35.0157804           -0.3034176
 Magnitude           :                                                    2.0098547
  Basis Set: (AUG-CC-PVTZ AUX)
    Blend: AUG-CC-PVTZ-RI
	 Reference Energy          =    -403.7773590340149212 [Eh]
	 Singles Energy            =      -0.0000000000000000 [Eh]
	 Same-Spin Energy          =      -0.3614896868024861 [Eh]
	 Opposite-Spin Energy      =      -1.0969657659526666 [Eh]
	 Correlation Energy        =      -1.4584554527551528 [Eh]
	 Total Energy              =    -405.2358144867700958 [Eh]

	 ================> DF-SCS-MP2 Energies <==================
	-----------------------------------------------------------
	 SCS Same-Spin Scale       =       0.3333333333333333 [-]
	 SCS Opposite-Spin Scale   =       1.2000000000000000 [-]
	 SCS Same-Spin Energy      =      -0.1204965622674953 [Eh]
	 SCS Opposite-Spin Energy  =      -1.3163589191431999 [Eh]
	 SCS Correlation Energy    =      -1.4368554814106953 [Eh]
	 SCS Total Energy          =    -405.2142145154256241 [Eh]
	-----------------------------------------------------------

*** Psi4 exiting successfully. Buy a developer a beer!
