                               Psi4 1.8.2 release

  ==> Input File <==

--------------------------------------------------------------------------
MEMORY 60 GB

molecule dimer {
0 1
Gh(F)      0.000000     0.000000     0.000000
Gh(O)     -1.815093    -1.909151    -1.378201
Gh(H)     -1.403991    -2.276259    -2.165990
Gh(H)     -1.261117    -1.228137    -1.060890
Gh(O)     -2.290972     1.058239     1.136022
Gh(H)     -1.623090     0.540782     0.668743
Gh(H)     -1.945953     1.955729     1.153331
Gh(O)      0.991195     2.121049     1.492154
Gh(H)      0.917310     1.817853     2.425342
Gh(H)      0.600819     1.313217     1.073674
O          0.163617    -2.054169     1.849337
H         -0.065307    -1.308779     1.260088
H         -0.495621    -2.762095     1.646170

units ang
no_reorient
no_com
symmetry c1
}

set {
basis        aug-cc-pVTZ
scf_type     df
}

energy("mp2")
--------------------------------------------------------------------------

    Molecular point group: c1

    Geometry (in Angstrom), charge = 0, multiplicity = 1:

       Center              X                  Y                   Z               Mass
    ------------   -----------------  -----------------  -----------------  -----------------
      Gh(F)           0.000000000000     0.000000000000     0.000000000000    18.998403162730
      Gh(O)          -1.815093000000    -1.909151000000    -1.378201000000    15.994914619570
      Gh(H)          -1.403991000000    -2.276259000000    -2.165990000000     1.007825032230
      Gh(H)          -1.261117000000    -1.228137000000    -1.060890000000     1.007825032230
      Gh(O)          -2.290972000000     1.058239000000     1.136022000000    15.994914619570
      Gh(H)          -1.623090000000     0.540782000000     0.668743000000     1.007825032230
      Gh(H)          -1.945953000000     1.955729000000     1.153331000000     1.007825032230
      Gh(O)           0.991195000000     2.121049000000     1.492154000000    15.994914619570
      Gh(H)           0.917310000000     1.817853000000     2.425342000000     1.007825032230
      Gh(H)           0.600819000000     1.313217000000     1.073674000000     1.007825032230
         O            0.163617000000    -2.054169000000     1.849337000000    15.994914619570
         H           -0.065307000000    -1.308779000000     1.260088000000     1.007825032230
         H           -0.495621000000    -2.762095000000     1.646170000000     1.007825032230

  Charge       = 0
  Multiplicity = 1
  Basis Set: AUG-CC-PVTZ
    Blend: AUG-CC-PVTZ
  Basis Set: (AUG-CC-PVTZ AUX)
    Blend: AUG-CC-PVTZ-JKFIT

    Orbital Energies [Eh]
    ---------------------

    Doubly Occupied:

       1A    -20.571166     2A     -1.340071     3A     -0.705624
       4A     -0.578178     5A     -0.507998

  @DF-RHF Final Energy:   -76.05772719853611

   => Energetics <=

    Nuclear Repulsion Energy =              8.9527167424446414
    One-Electron Energy =                -122.6148117557426929
    Two-Electron Energy =                  37.6043678147619431
    Total Energy =                        -76.0577271985361136
 Dipole X            :         -1.9962113            1.4135303           -0.5826810
 Dipole Y            :         38.7740656          -38.7473716            0.0266940
 Dipole Z            :        -33.9708949           33.4499552           -0.5209396
 Magnitude           :                                                    0.7820536
  Basis Set: (AUG-CC-PVTZ AUX)
    Blend: AUG-CC-PVTZ-RI
	 Reference Energy          =     -76.0577271985361136 [Eh]
	 Singles Energy            =      -0.0000000000000000 [Eh]
	 Same-Spin Energy          =      -0.0688314253261664 [Eh]
	 Opposite-Spin Energy      =      -0.2173143923451968 [Eh]
	 Correlation Energy        =      -0.2861458176713632 [Eh]
	 Total Energy              =     -76.3438730162074819 [Eh]

	 ================> DF-SCS-MP2 Energies <==================
	-----------------------------------------------------------
	 SCS Same-Spin Scale       =       0.3333333333333333 [-]
	 SCS Opposite-Spin Scale   =       1.2000000000000000 [-]
	 SCS Same-Spin Energy      =      -0.0229438084420555 [Eh]
	 SCS Opposite-Spin Energy  =      -0.2607772708142362 [Eh]
	 SCS Correlation Energy    =      -0.2837210792562916 [Eh]
	 SCS Total Energy          =     -76.3414482777924093 [Eh]
	-----------------------------------------------------------

*** Psi4 exiting successfully. Buy a developer a beer!
