                               Psi4 1.8.2 release

  ==> Input File <==

--------------------------------------------------------------------------
MEMORY 60 GB

molecule dimer {
-1 1
F          0.000000     0.000000     0.000000
O         -0.918718    -1.531255    -2.236425
H         -1.762517    -1.144066    -2.152129
H         -0.451980    -0.957002    -1.606841
O         -0.057855     2.757139     0.823387
H         -0.153772     1.814368     0.834672
H         -0.644771     3.064484     1.455290
O          1.183092     0.237041     2.441939
H          0.725475     0.249679     1.564024
H          0.548909    -0.085551     3.073061
O          2.058890     1.227888    -1.022105
H          2.856425     0.854090    -0.614010
H          1.361978     0.734019    -0.723384
O         -2.424987    -0.275944     1.596124
H         -3.071738    -0.606061     1.013613
H         -1.631010    -0.040803     1.039161
O          1.888808    -2.378152     0.345578
H          1.283712    -1.599836     0.235615
H          1.406826    -3.176557     0.608323

units ang
no_reorient
no_com
symmetry c1
}

set {
basis        aug-cc-pVTZ
scf_type     df
}

energy("mp2")
--------------------------------------------------------------------------

    Molecular point group: c1

    Geometry (in Angstrom), charge = -1, multiplicity = 1:

       Center              X                  Y                   Z               Mass
    ------------   -----------------  -----------------  -----------------  -----------------
         F            0.000000000000     0.000000000000     0.000000000000    18.998403162730
         O           -0.918718000000    -1.531255000000    -2.236425000000    15.994914619570
         H           -1.762517000000    -1.144066000000    -2.152129000000     1.007825032230
         H           -0.451980000000    -0.957002000000    -1.606841000000     1.007825032230
         O           -0.057855000000     2.757139000000     0.823387000000    15.994914619570
         H           -0.153772000000     1.814368000000     0.834672000000     1.007825032230
         H           -0.644771000000     3.064484000000     1.455290000000     1.007825032230
         O            1.183092000000     0.237041000000     2.441939000000    15.994914619570
         H            0.725475000000     0.249679000000     1.564024000000     1.007825032230
         H            0.548909000000    -0.085551000000     3.073061000000     1.007825032230
         O            2.058890000000     1.227888000000    -1.022105000000    15.994914619570
         H            2.856425000000     0.854090000000    -0.614010000000     1.007825032230
         H            1.361978000000     0.734019000000    -0.723384000000     1.007825032230
         O           -2.424987000000    -0.275944000000     1.596124000000    15.994914619570
         H           -3.071738000000    -0.606061000000     1.013613000000     1.007825032230
         H           -1.631010000000    -0.040803000000     1.039161000000     1.007825032230
         O            1.888808000000    -2.378152000000     0.345578000000    15.994914619570
         H            1.283712000000    -1.599836000000     0.235615000000     1.007825032230
         H            1.406826000000    -3.176557000000     0.608323000000     1.007825032230

  Charge       = -1
  Multiplicity = 1
  Basis Set: AUG-CC-PVTZ
    Blend: AUG-CC-PVTZ
  Basis Set: (AUG-CC-PVTZ AUX)
    Blend: AUG-CC-PVTZ-JKFIT

    Orbital Energies [Eh]
    ---------------------

    Doubly Occupied:

       1A    -26.021640     2A    -20.432605     3A    -20.416788
       4A    -20.416094     5A    -20.403608     6A    -20.400809
       7A    -20.379556     8A     -1.292824     9A     -1.218706
      10A     -1.213198    11A     -1.211087    12A     -1.188385
      13A     -1.184631    14A     -1.183760    15A     -0.592020
      16A     -0.584528    17A     -0.572886    18A     -0.563443
      19A     -0.559873    20A     -0.554423    21A     -0.461349
      22A     -0.456272    23A     -0.438059    24A     -0.430660
      25A     -0.422494    26A     -0.419291    27A     -0.383201
      28A     -0.377310    29A     -0.370893    30A     -0.369094
      31A     -0.363541    32A     -0.362414    33A     -0.356836
      34A     -0.340027    35A     -0.332363

  @DF-RHF Final Energy:  -555.92145405659619

   => Energetics <=

    Nuclear Repulsion Energy =            356.3602572274339764
    One-Electron Energy =               -1492.0140786997144460
    Two-Electron Energy =                 579.7323674156842799
    Total Energy =                       -555.9214540565961897
 Dipole X            :        -29.1142102           27.0256857           -2.0885245
 Dipole Y            :          0.5105013           -1.1328908           -0.6223895
 Dipole Z            :        -38.0713921           38.3905024            0.3191104
 Magnitude           :                                                    2.2025291
  Basis Set: (AUG-CC-PVTZ AUX)
    Blend: AUG-CC-PVTZ-RI
	 Reference Energy          =    -555.9214540565961897 [Eh]
	 Singles Energy            =      -0.0000000000000000 [Eh]
	 Same-Spin Energy          =      -0.5019169883420016 [Eh]
	 Opposite-Spin Energy      =      -1.5309709785843115 [Eh]
	 Correlation Energy        =      -2.0328879669263129 [Eh]
	 Total Energy              =    -557.9543420235224858 [Eh]

	 ================> DF-SCS-MP2 Energies <==================
	-----------------------------------------------------------
	 SCS Same-Spin Scale       =       0.3333333333333333 [-]
	 SCS Opposite-Spin Scale   =       1.2000000000000000 [-]
	 SCS Same-Spin Energy      =      -0.1673056627806672 [Eh]
	 SCS Opposite-Spin Energy  =      -1.8371651743011737 [Eh]
	 SCS Correlation Energy    =      -2.0044708370818407 [Eh]
	 SCS Total Energy          =    -557.9259248936780295 [Eh]
	-----------------------------------------------------------

*** Psi4 exiting successfully. Buy a developer a beer!
