                               Psi4 1.8.2 release

  ==> Input File <==

--------------------------------------------------------------------------
MEMORY 60 GB

molecule dimer {
0 1
Gh(F)      0.000000     0.000000     0.000000
Gh(O)      1.451835    -1.452535     2.052395
Gh(H)      1.469584    -0.899906     1.315952
Gh(H)      1.373633    -0.980960     2.860466
Gh(O)     -0.559359    -2.672142    -0.866309
Gh(H)      0.288354    -3.135902    -0.865194
Gh(H)     -0.225876    -1.778096    -0.742343
O          1.611940     2.034987     1.608686
H          1.025985     2.541931     2.212233
H          0.965893     1.555115     0.966858
Gh(O)     -1.608533    -0.904734     2.300778
Gh(H)     -1.271895    -0.716260     1.375122
Gh(H)     -0.910123    -1.497503     2.647384
Gh(O)     -2.280907     1.332090     0.163613
Gh(H)     -1.494680     0.704833    -0.100659
Gh(H)     -1.895508     2.117946     0.620702
Gh(O)      0.450456     0.337148    -2.757854
Gh(H)      1.193771     0.963211    -3.022596
Gh(H)      0.495681     0.289983    -1.818199

units ang
no_reorient
no_com
symmetry c1
}

set {
basis        aug-cc-pVTZ
scf_type     df
}

energy("mp2")
--------------------------------------------------------------------------

    Molecular point group: c1

    Geometry (in Angstrom), charge = 0, multiplicity = 1:

       Center              X                  Y                   Z               Mass
    ------------   -----------------  -----------------  -----------------  -----------------
      Gh(F)           0.000000000000     0.000000000000     0.000000000000    18.998403162730
      Gh(O)           1.451835000000    -1.452535000000     2.052395000000    15.994914619570
      Gh(H)           1.469584000000    -0.899906000000     1.315952000000     1.007825032230
      Gh(H)           1.373633000000    -0.980960000000     2.860466000000     1.007825032230
      Gh(O)          -0.559359000000    -2.672142000000    -0.866309000000    15.994914619570
      Gh(H)           0.288354000000    -3.135902000000    -0.865194000000     1.007825032230
      Gh(H)          -0.225876000000    -1.778096000000    -0.742343000000     1.007825032230
         O            1.611940000000     2.034987000000     1.608686000000    15.994914619570
         H            1.025985000000     2.541931000000     2.212233000000     1.007825032230
         H            0.965893000000     1.555115000000     0.966858000000     1.007825032230
      Gh(O)          -1.608533000000    -0.904734000000     2.300778000000    15.994914619570
      Gh(H)          -1.271895000000    -0.716260000000     1.375122000000     1.007825032230
      Gh(H)          -0.910123000000    -1.497503000000     2.647384000000     1.007825032230
      Gh(O)          -2.280907000000     1.332090000000     0.163613000000    15.994914619570
      Gh(H)          -1.494680000000     0.704833000000    -0.100659000000     1.007825032230
      Gh(H)          -1.895508000000     2.117946000000     0.620702000000     1.007825032230
      Gh(O)           0.450456000000     0.337148000000    -2.757854000000    15.994914619570
      Gh(H)           1.193771000000     0.963211000000    -3.022596000000     1.007825032230
      Gh(H)           0.495681000000     0.289983000000    -1.818199000000     1.007825032230

  Charge       = 0
  Multiplicity = 1
  Basis Set: AUG-CC-PVTZ
    Blend: AUG-CC-PVTZ
  Basis Set: (AUG-CC-PVTZ AUX)
    Blend: AUG-CC-PVTZ-JKFIT

    Orbital Energies [Eh]
    ---------------------

    Doubly Occupied:

       1A    -20.575280     2A     -1.330418     3A     -0.692115
       4A     -0.575454     5A     -0.506658

  @DF-RHF Final Energy:   -76.05254888313713

   => Energetics <=

    Nuclear Repulsion Energy =              8.7558274368156734
    One-Electron Energy =                -122.2568965114711119
    Two-Electron Energy =                  37.4485201915182842
    Total Energy =                        -76.0525488831371490
 Dipole X            :        -28.9281254           28.1331049           -0.7950205
 Dipole Y            :        -38.4842061           38.5068397            0.0226336
 Dipole Z            :        -30.3461378           30.3274190           -0.0187188
 Magnitude           :                                                    0.7955628
  Basis Set: (AUG-CC-PVTZ AUX)
    Blend: AUG-CC-PVTZ-RI
	 Reference Energy          =     -76.0525488831371348 [Eh]
	 Singles Energy            =      -0.0000000000000000 [Eh]
	 Same-Spin Energy          =      -0.0692436313943959 [Eh]
	 Opposite-Spin Energy      =      -0.2185190386715203 [Eh]
	 Correlation Energy        =      -0.2877626700659162 [Eh]
	 Total Energy              =     -76.3403115532030512 [Eh]

	 ================> DF-SCS-MP2 Energies <==================
	-----------------------------------------------------------
	 SCS Same-Spin Scale       =       0.3333333333333333 [-]
	 SCS Opposite-Spin Scale   =       1.2000000000000000 [-]
	 SCS Same-Spin Energy      =      -0.0230812104647986 [Eh]
	 SCS Opposite-Spin Energy  =      -0.2622228464058243 [Eh]
	 SCS Correlation Energy    =      -0.2853040568706230 [Eh]
	 SCS Total Energy          =     -76.3378529400077639 [Eh]
	-----------------------------------------------------------

*** Psi4 exiting successfully. Buy a developer a beer!
