                               Psi4 1.8.2 release

  ==> Input File <==

--------------------------------------------------------------------------
MEMORY 60 GB

molecule dimer {
0 1
Gh(F)      0.000000     0.000000     0.000000
Gh(O)      2.575075     1.073331     0.885547
Gh(H)      2.106665     1.918583     0.702596
Gh(H)      2.020041     0.521984     0.325554
Gh(O)      0.883125    -2.526453     0.876729
Gh(H)      0.128634    -3.022285     1.173703
Gh(H)      0.480571    -1.707949     0.521989
Gh(O)     -1.584240    -0.527688    -2.161408
Gh(H)     -1.072012    -0.480481    -1.337240
Gh(H)     -1.395342    -1.397524    -2.511963
O         -2.043312     1.766266     0.317173
H         -2.873447     1.429607    -0.044182
H         -1.403098     0.963197     0.113049
Gh(O)     -0.453685     0.678264     2.814720
Gh(H)      0.049164     0.242469     2.102026
Gh(H)     -1.380466     0.343591     2.776247

units ang
no_reorient
no_com
symmetry c1
}

set {
basis        aug-cc-pVTZ
scf_type     df
}

energy("mp2")
--------------------------------------------------------------------------

    Molecular point group: c1

    Geometry (in Angstrom), charge = 0, multiplicity = 1:

       Center              X                  Y                   Z               Mass
    ------------   -----------------  -----------------  -----------------  -----------------
      Gh(F)           0.000000000000     0.000000000000     0.000000000000    18.998403162730
      Gh(O)           2.575075000000     1.073331000000     0.885547000000    15.994914619570
      Gh(H)           2.106665000000     1.918583000000     0.702596000000     1.007825032230
      Gh(H)           2.020041000000     0.521984000000     0.325554000000     1.007825032230
      Gh(O)           0.883125000000    -2.526453000000     0.876729000000    15.994914619570
      Gh(H)           0.128634000000    -3.022285000000     1.173703000000     1.007825032230
      Gh(H)           0.480571000000    -1.707949000000     0.521989000000     1.007825032230
      Gh(O)          -1.584240000000    -0.527688000000    -2.161408000000    15.994914619570
      Gh(H)          -1.072012000000    -0.480481000000    -1.337240000000     1.007825032230
      Gh(H)          -1.395342000000    -1.397524000000    -2.511963000000     1.007825032230
         O           -2.043312000000     1.766266000000     0.317173000000    15.994914619570
         H           -2.873447000000     1.429607000000    -0.044182000000     1.007825032230
         H           -1.403098000000     0.963197000000     0.113049000000     1.007825032230
      Gh(O)          -0.453685000000     0.678264000000     2.814720000000    15.994914619570
      Gh(H)           0.049164000000     0.242469000000     2.102026000000     1.007825032230
      Gh(H)          -1.380466000000     0.343591000000     2.776247000000     1.007825032230

  Charge       = 0
  Multiplicity = 1
  Basis Set: AUG-CC-PVTZ
    Blend: AUG-CC-PVTZ
  Basis Set: (AUG-CC-PVTZ AUX)
    Blend: AUG-CC-PVTZ-JKFIT

    Orbital Energies [Eh]
    ---------------------

    Doubly Occupied:

       1A    -20.576943     2A     -1.333490     3A     -0.685559
       4A     -0.581949     5A     -0.507887

  @DF-RHF Final Energy:   -76.05052252823546

   => Energetics <=

    Nuclear Repulsion Energy =              8.7668906569738265
    One-Electron Energy =                -122.2631682151120458
    Two-Electron Energy =                  37.4457550299027488
    Total Energy =                        -76.0505225282354616
 Dipole X            :         38.8359702          -38.9718994           -0.1359292
 Dipole Y            :        -31.9473296           31.2238163           -0.7235133
 Dipole Z            :         -5.2881644            4.9251006           -0.3630638
 Magnitude           :                                                    0.8208310
  Basis Set: (AUG-CC-PVTZ AUX)
    Blend: AUG-CC-PVTZ-RI
	 Reference Energy          =     -76.0505225282354616 [Eh]
	 Singles Energy            =      -0.0000000000000000 [Eh]
	 Same-Spin Energy          =      -0.0693503418251855 [Eh]
	 Opposite-Spin Energy      =      -0.2190579067600223 [Eh]
	 Correlation Energy        =      -0.2884082485852077 [Eh]
	 Total Energy              =     -76.3389307768206749 [Eh]

	 ================> DF-SCS-MP2 Energies <==================
	-----------------------------------------------------------
	 SCS Same-Spin Scale       =       0.3333333333333333 [-]
	 SCS Opposite-Spin Scale   =       1.2000000000000000 [-]
	 SCS Same-Spin Energy      =      -0.0231167806083952 [Eh]
	 SCS Opposite-Spin Energy  =      -0.2628694881120267 [Eh]
	 SCS Correlation Energy    =      -0.2859862687204219 [Eh]
	 SCS Total Energy          =     -76.3365087969558829 [Eh]
	-----------------------------------------------------------

*** Psi4 exiting successfully. Buy a developer a beer!
