                               Psi4 1.8.2 release

  ==> Input File <==

--------------------------------------------------------------------------
MEMORY 60 GB

molecule dimer {
-1 1
F          0.000000     0.000000     0.000000
O          1.451835    -1.452535     2.052395
H          1.469584    -0.899906     1.315952
H          1.373633    -0.980960     2.860466
O         -0.559359    -2.672142    -0.866309
H          0.288354    -3.135902    -0.865194
H         -0.225876    -1.778096    -0.742343
O          1.611940     2.034987     1.608686
H          1.025985     2.541931     2.212233
H          0.965893     1.555115     0.966858
O         -1.608533    -0.904734     2.300778
H         -1.271895    -0.716260     1.375122
H         -0.910123    -1.497503     2.647384
O         -2.280907     1.332090     0.163613
H         -1.494680     0.704833    -0.100659
H         -1.895508     2.117946     0.620702
O          0.450456     0.337148    -2.757854
H          1.193771     0.963211    -3.022596
H          0.495681     0.289983    -1.818199

units ang
no_reorient
no_com
symmetry c1
}

set {
basis        aug-cc-pVTZ
scf_type     df
}

energy("mp2")
--------------------------------------------------------------------------

    Molecular point group: c1

    Geometry (in Angstrom), charge = -1, multiplicity = 1:

       Center              X                  Y                   Z               Mass
    ------------   -----------------  -----------------  -----------------  -----------------
         F            0.000000000000     0.000000000000     0.000000000000    18.998403162730
         O            1.451835000000    -1.452535000000     2.052395000000    15.994914619570
         H            1.469584000000    -0.899906000000     1.315952000000     1.007825032230
         H            1.373633000000    -0.980960000000     2.860466000000     1.007825032230
         O           -0.559359000000    -2.672142000000    -0.866309000000    15.994914619570
         H            0.288354000000    -3.135902000000    -0.865194000000     1.007825032230
         H           -0.225876000000    -1.778096000000    -0.742343000000     1.007825032230
         O            1.611940000000     2.034987000000     1.608686000000    15.994914619570
         H            1.025985000000     2.541931000000     2.212233000000     1.007825032230
         H            0.965893000000     1.555115000000     0.966858000000     1.007825032230
         O           -1.608533000000    -0.904734000000     2.300778000000    15.994914619570
         H           -1.271895000000    -0.716260000000     1.375122000000     1.007825032230
         H           -0.910123000000    -1.497503000000     2.647384000000     1.007825032230
         O           -2.280907000000     1.332090000000     0.163613000000    15.994914619570
         H           -1.494680000000     0.704833000000    -0.100659000000     1.007825032230
         H           -1.895508000000     2.117946000000     0.620702000000     1.007825032230
         O            0.450456000000     0.337148000000    -2.757854000000    15.994914619570
         H            1.193771000000     0.963211000000    -3.022596000000     1.007825032230
         H            0.495681000000     0.289983000000    -1.818199000000     1.007825032230

  Charge       = -1
  Multiplicity = 1
  Basis Set: AUG-CC-PVTZ
    Blend: AUG-CC-PVTZ
  Basis Set: (AUG-CC-PVTZ AUX)
    Blend: AUG-CC-PVTZ-JKFIT

    Orbital Energies [Eh]
    ---------------------

    Doubly Occupied:

       1A    -26.012113     2A    -20.445284     3A    -20.421054
       4A    -20.420763     5A    -20.407799     6A    -20.396120
       7A    -20.389719     8A     -1.279708     9A     -1.226824
      10A     -1.203928    11A     -1.198490    12A     -1.194271
      13A     -1.165027    14A     -1.147899    15A     -0.615581
      16A     -0.568104    17A     -0.566478    18A     -0.544505
      19A     -0.534488    20A     -0.516996    21A     -0.454710
      22A     -0.444446    23A     -0.442182    24A     -0.439713
      25A     -0.425540    26A     -0.416660    27A     -0.381337
      28A     -0.375201    29A     -0.368577    30A     -0.366113
      31A     -0.362876    32A     -0.351939    33A     -0.345860
      34A     -0.334575    35A     -0.325892

  @DF-RHF Final Energy:  -555.90615559340984

   => Energetics <=

    Nuclear Repulsion Energy =            352.2755904148125410
    One-Electron Energy =               -1484.1819376325231588
    Two-Electron Energy =                 576.0001916243007827
    Total Energy =                       -555.9061555934098351
 Dipole X            :         14.2858001          -12.2108905            2.0749095
 Dipole Y            :         22.7653613          -21.6129791            1.1523822
 Dipole Z            :        -48.0297118           48.1128013            0.0830896
 Magnitude           :                                                    2.3748975
  Basis Set: (AUG-CC-PVTZ AUX)
    Blend: AUG-CC-PVTZ-RI
	 Reference Energy          =    -555.9061555934098351 [Eh]
	 Singles Energy            =      -0.0000000000000000 [Eh]
	 Same-Spin Energy          =      -0.5042825651297345 [Eh]
	 Opposite-Spin Energy      =      -1.5372399242341519 [Eh]
	 Correlation Energy        =      -2.0415224893638864 [Eh]
	 Total Energy              =    -557.9476780827736775 [Eh]

	 ================> DF-SCS-MP2 Energies <==================
	-----------------------------------------------------------
	 SCS Same-Spin Scale       =       0.3333333333333333 [-]
	 SCS Opposite-Spin Scale   =       1.2000000000000000 [-]
	 SCS Same-Spin Energy      =      -0.1680941883765781 [Eh]
	 SCS Opposite-Spin Energy  =      -1.8446879090809822 [Eh]
	 SCS Correlation Energy    =      -2.0127820974575603 [Eh]
	 SCS Total Energy          =    -557.9189376908674376 [Eh]
	-----------------------------------------------------------

*** Psi4 exiting successfully. Buy a developer a beer!
