                               Psi4 1.9 release

  ==> Input File <==

--------------------------------------------------------------------------
MEMORY 60 GB

molecule dimer {
-1 1
F      0.000000     0.000000     0.000000
--
0 1
O      2.087812    -2.235654    -0.550394
H      2.423601    -2.899671    -1.150602
H      2.190875    -1.369155    -0.929071
O      0.415489    -2.119119     2.070246
H      0.482112    -2.996680     1.655893
H      0.091966    -1.548601     1.375700
O     -0.730006     1.647225     1.930793
H     -0.321923     1.147844     1.188363
H     -1.196312     2.375028     1.563056
O      2.361343     1.061093     0.316103
H      2.099324     1.707318     0.957043
H      1.582739     0.514063     0.417266
O      0.150347     2.501610    -1.052386
H      0.710848     3.031242    -0.538799
H      0.364562     1.585555    -0.826675
O     -1.585915    -0.182921    -2.257821
H     -0.843561    -0.199899    -1.588493
H     -2.094702    -1.043463    -2.099459

units ang
no_reorient
no_com
symmetry c1
}

set {
basis        aug-cc-pVTZ
scf_type     df
}

energy("mp2", bsse_type="cp")
--------------------------------------------------------------------------

                               Psi4 1.9 release
    Molecular point group: c1
  Charge       = 0
  Multiplicity = 1
  Basis Set: AUG-CC-PVTZ
    Blend: AUG-CC-PVTZ
  Basis Set: (AUG-CC-PVTZ AUX)
    Blend: AUG-CC-PVTZ-JKFIT
  @DF-RHF Final Energy:  -456.33211689601598
    Total Energy =                       -456.3321168960159753
 Dipole X            :        -50.9812274           51.1777311            0.1965037
 Dipole Y            :        -11.3265202           10.7363902           -0.5901301
 Dipole Z            :         -7.5777938            6.9476726           -0.6301212
 Magnitude           :                                                    0.8853925
  Basis Set: (AUG-CC-PVTZ AUX)
    Blend: AUG-CC-PVTZ-RI
	 Reference Energy          =    -456.3321168960159753 [Eh]
	 Singles Energy            =      -0.0000000000000000 [Eh]
	 Same-Spin Energy          =      -0.4156916127240975 [Eh]
	 Opposite-Spin Energy      =      -1.3039356926115364 [Eh]
	 Correlation Energy        =      -1.7196273053356339 [Eh]
	 Total Energy              =    -458.0517442013515961 [Eh]
	 SCS Total Energy          =    -458.0354035980578260 [Eh]
                               Psi4 1.9 release
    Molecular point group: c1
  Multiplicity = 1
  Basis Set: AUG-CC-PVTZ
    Blend: AUG-CC-PVTZ
  Basis Set: (AUG-CC-PVTZ AUX)
    Blend: AUG-CC-PVTZ-JKFIT
  @DF-RHF Final Energy:   -99.45115625525882
    Total Energy =                        -99.4511562552588373
  Basis Set: (AUG-CC-PVTZ AUX)
	 Singles Energy            =      -0.0000000000000000 [Eh]
	 Same-Spin Energy          =      -0.0820957493561973 [Eh]
	 Opposite-Spin Energy      =      -0.2305665641095452 [Eh]
	 Correlation Energy        =      -0.3126623134657425 [Eh]
	 Total Energy              =     -99.7638185687245596 [Eh]
	 SCS Total Energy          =     -99.7552013819756809 [Eh]
                               Psi4 1.9 release
    Molecular point group: c1

    Geometry (in Bohr), charge = -1, multiplicity = 1:

       Center              X                  Y                   Z               Mass
    ------------   -----------------  -----------------  -----------------  -----------------
         F            0.000000000000     0.000000000000     0.000000000000    18.998403162730
         O            3.945392881444    -4.224773771284    -1.040093921095    15.994914619570
         H            4.579942127386    -5.479584043932    -2.174322659404     1.007825032230
         H            4.140153725112    -2.587327973301    -1.755689741105     1.007825032230
         O            0.785160418140    -4.004554537254     3.912197952325    15.994914619570
         H            0.911059641797    -5.662904485637     3.129184263063     1.007825032230
         H            0.173790552854    -2.926431767610     2.599696230792     1.007825032230
         O           -1.379511409941     3.112804117007     3.648669974951    15.994914619570
         H           -0.608346303486     2.169110794750     2.245680607627     1.007825032230
         H           -2.260702040599     4.488152460294     2.953747758754     1.007825032230
         O            4.462291558267     2.005175163640     0.597348097436    15.994914619570
         H            3.967147408601     3.226363429064     1.808549160287     1.007825032230
         H            2.990943238081     0.971438281231     0.788518461465     1.007825032230
         O            0.284114653784     4.727357772707    -1.988721318266    15.994914619570
         H            1.343308036829     5.728217199985    -1.018182546671     1.007825032230
         H            0.688922335749     2.996264706850    -1.562189344763     1.007825032230
         O           -2.996945008255    -0.345670592595    -4.266663330307    15.994914619570
         H           -1.594099260117    -0.377754362753    -3.001816722207     1.007825032230
         H           -3.958413094449    -1.971859292049    -3.967402521628     1.007825032230

  Charge       = -1
  Multiplicity = 1
  Basis Set: AUG-CC-PVTZ
    Blend: AUG-CC-PVTZ
  Basis Set: (AUG-CC-PVTZ AUX)
    Blend: AUG-CC-PVTZ-JKFIT

    Orbital Energies [Eh]
    ---------------------

    Doubly Occupied:

       1A    -25.999485     2A    -20.439211     3A    -20.404215
       4A    -20.402850     5A    -20.401102     6A    -20.391222
       7A    -20.386192     8A     -1.274469     9A     -1.227382
      10A     -1.204732    11A     -1.189885    12A     -1.184820
      13A     -1.175423    14A     -1.162555    15A     -0.606851
      16A     -0.568469    17A     -0.558111    18A     -0.550777
      19A     -0.548281    20A     -0.527758    21A     -0.460032
      22A     -0.454462    23A     -0.431207    24A     -0.422538
      25A     -0.420949    26A     -0.414098    27A     -0.385236
      28A     -0.360991    29A     -0.359571    30A     -0.352635
      31A     -0.347599    32A     -0.344181    33A     -0.339518
      34A     -0.336180    35A     -0.331276

  @DF-RHF Final Energy:  -555.90817586361459

   => Energetics <=

    Nuclear Repulsion Energy =            361.2870713931696969
    One-Electron Energy =               -1502.4619584772453891
    Two-Electron Energy =                 585.2667112204610476
    Total Energy =                       -555.9081758636145878
 Dipole X            :        -51.1809459           51.1777311           -0.0032148
 Dipole Y            :        -11.7738151           10.7363902           -1.0374249
 Dipole Z            :         -7.6482374            6.9476726           -0.7005648
 Magnitude           :                                                    1.2518194
  Basis Set: (AUG-CC-PVTZ AUX)
    Blend: AUG-CC-PVTZ-RI
	 Reference Energy          =    -555.9081758636145878 [Eh]
	 Singles Energy            =      -0.0000000000000000 [Eh]
	 Same-Spin Energy          =      -0.5040995242527102 [Eh]
	 Opposite-Spin Energy      =      -1.5341636680643140 [Eh]
	 Correlation Energy        =      -2.0382631923170242 [Eh]
	 Total Energy              =    -557.9464390559315916 [Eh]

	 ================> DF-SCS-MP2 Energies <==================
	-----------------------------------------------------------
	 SCS Same-Spin Scale       =       0.3333333333333333 [-]
	 SCS Opposite-Spin Scale   =       1.2000000000000000 [-]
	 SCS Same-Spin Energy      =      -0.1680331747509034 [Eh]
	 SCS Opposite-Spin Energy  =      -1.8409964016771767 [Eh]
	 SCS Correlation Energy    =      -2.0090295764280803 [Eh]
	 SCS Total Energy          =    -557.9172054400427214 [Eh]
	-----------------------------------------------------------

*** Psi4 exiting successfully. Buy a developer a beer!
