                               Psi4 1.9 release

  ==> Input File <==

--------------------------------------------------------------------------
MEMORY 60 GB

molecule dimer {
-1 1
F      0.000000     0.000000     0.000000
--
0 1
O      0.740022     2.738323    -0.742341
H      0.140598     3.165775    -1.345208
H      0.324060     1.954101    -0.472573
O     -1.637000    -2.128907     1.209056
H     -1.409631    -2.982770     0.710761
H     -1.194739    -1.404565     0.713641
O     -2.586717     0.892440     0.631559
H     -1.647489     0.669471     0.494403
H     -3.184785     0.268742     0.256299
O      1.343206    -2.399485    -0.414928
H      0.998170    -2.994359     0.252667
H      1.012370    -1.551086    -0.254296
O     -1.062745     0.103470    -2.464943
H     -0.642973    -0.084048    -1.611420
H     -1.936889     0.466257    -2.189501
O      0.542504    -0.109357     2.673800
H      0.307584     0.028412     1.703925
H      0.033945     0.531994     3.170652

units ang
no_reorient
no_com
symmetry c1
}

set {
basis        aug-cc-pVTZ
scf_type     df
}

energy("mp2", bsse_type="cp")
--------------------------------------------------------------------------

                               Psi4 1.9 release
    Molecular point group: c1
  Charge       = 0
  Multiplicity = 1
  Basis Set: AUG-CC-PVTZ
    Blend: AUG-CC-PVTZ
  Basis Set: (AUG-CC-PVTZ AUX)
    Blend: AUG-CC-PVTZ-JKFIT
  @DF-RHF Final Energy:  -456.32192226660453
    Total Energy =                       -456.3219222666045312
 Dipole X            :         52.4811494          -53.8300184           -1.3488690
 Dipole Y            :         17.1552786          -17.3102768           -0.1549983
 Dipole Z            :        -16.3052695           16.1892346           -0.1160349
 Magnitude           :                                                    1.3626944
  Basis Set: (AUG-CC-PVTZ AUX)
    Blend: AUG-CC-PVTZ-RI
	 Reference Energy          =    -456.3219222666045312 [Eh]
	 Singles Energy            =      -0.0000000000000000 [Eh]
	 Same-Spin Energy          =      -0.4154413813825428 [Eh]
	 Opposite-Spin Energy      =      -1.3056725494093195 [Eh]
	 Correlation Energy        =      -1.7211139307918624 [Eh]
	 Total Energy              =    -458.0430361973964182 [Eh]
	 SCS Total Energy          =    -458.0272097863565364 [Eh]
                               Psi4 1.9 release
    Molecular point group: c1
  Multiplicity = 1
  Basis Set: AUG-CC-PVTZ
    Blend: AUG-CC-PVTZ
  Basis Set: (AUG-CC-PVTZ AUX)
    Blend: AUG-CC-PVTZ-JKFIT
  @DF-RHF Final Energy:   -99.45117105857719
    Total Energy =                        -99.4511710585772022
  Basis Set: (AUG-CC-PVTZ AUX)
	 Singles Energy            =      -0.0000000000000000 [Eh]
	 Same-Spin Energy          =      -0.0821137909778903 [Eh]
	 Opposite-Spin Energy      =      -0.2306589267001181 [Eh]
	 Correlation Energy        =      -0.3127727176780084 [Eh]
	 Total Energy              =     -99.7639437762551893 [Eh]
	 SCS Total Energy          =     -99.7553330342766316 [Eh]
                               Psi4 1.9 release
    Molecular point group: c1

    Geometry (in Bohr), charge = -1, multiplicity = 1:

       Center              X                  Y                   Z               Mass
    ------------   -----------------  -----------------  -----------------  -----------------
         F            0.000000000000     0.000000000000     0.000000000000    18.998403162730
         O            1.398438906814     5.174680513042    -1.402821181698    15.994914619570
         H            0.265691713787     5.982447724821    -2.542074701775     1.007825032230
         H            0.612384648216     3.692715711483    -0.893033544286     1.007825032230
         O           -3.093481667374    -4.023051176570     2.284784710342    15.994914619570
         H           -2.663816527955    -5.636618395232     1.343143630657     1.007825032230
         H           -2.257729501403    -2.654243175404     1.348586041898     1.007825032230
         O           -4.888186694066     1.686467183404     1.193473542068    15.994914619570
         H           -3.113303004704     1.265116838936     0.934286265605     1.007825032230
         H           -6.018371418466     0.507848778408     0.484334916229     1.007825032230
         O            2.538291470072    -4.534369492144    -0.784100281784    15.994914619570
         H            1.886267926648    -5.658518431300     0.477471430941     1.007825032230
         H            1.913102037630    -2.931127737032    -0.480549794799     1.007825032230
         O           -2.008296991200     0.195529962201    -4.658067184864    15.994914619570
         H           -1.215042876064    -0.158827701392    -3.045142473085     1.007825032230
         H           -3.660189745412     0.881098034078    -4.137557241416     1.007825032230
         O            1.025183981965    -0.206654779902     5.052749714249    15.994914619570
         H            0.581249520573     0.053690898677     3.219951588321     1.007825032230
         H            0.064146753329     1.005322960387     5.991663919135     1.007825032230

  Charge       = -1
  Multiplicity = 1
  Basis Set: AUG-CC-PVTZ
    Blend: AUG-CC-PVTZ
  Basis Set: (AUG-CC-PVTZ AUX)
    Blend: AUG-CC-PVTZ-JKFIT

    Orbital Energies [Eh]
    ---------------------

    Doubly Occupied:

       1A    -26.028943     2A    -20.431362     3A    -20.419799
       4A    -20.413669     5A    -20.410669     6A    -20.407835
       7A    -20.398570     8A     -1.301093     9A     -1.213449
      10A     -1.208847    11A     -1.207226    12A     -1.193570
      13A     -1.189030    14A     -1.174214    15A     -0.600885
      16A     -0.587733    17A     -0.584058    18A     -0.565411
      19A     -0.558313    20A     -0.543544    21A     -0.454157
      22A     -0.451433    23A     -0.440926    24A     -0.438794
      25A     -0.427375    26A     -0.420187    27A     -0.387485
      28A     -0.380967    29A     -0.372428    30A     -0.370766
      31A     -0.366554    32A     -0.362920    33A     -0.358508
      34A     -0.352399    35A     -0.339845

  @DF-RHF Final Energy:  -555.92744705835185

   => Energetics <=

    Nuclear Repulsion Energy =            360.1106350858907490
    One-Electron Energy =               -1499.3502337077684388
    Two-Electron Energy =                 583.3121515635257310
    Total Energy =                       -555.9274470583518450
 Dipole X            :         52.9916916          -53.8300184           -0.8383268
 Dipole Y            :         17.3240626          -17.3102768            0.0137858
 Dipole Z            :        -16.4825228           16.1892346           -0.2932882
 Magnitude           :                                                    0.8882567
  Basis Set: (AUG-CC-PVTZ AUX)
    Blend: AUG-CC-PVTZ-RI
	 Reference Energy          =    -555.9274470583518450 [Eh]
	 Singles Energy            =      -0.0000000000000000 [Eh]
	 Same-Spin Energy          =      -0.5035632252749730 [Eh]
	 Opposite-Spin Energy      =      -1.5347930929375653 [Eh]
	 Correlation Energy        =      -2.0383563182125384 [Eh]
	 Total Energy              =    -557.9658033765643950 [Eh]

	 ================> DF-SCS-MP2 Energies <==================
	-----------------------------------------------------------
	 SCS Same-Spin Scale       =       0.3333333333333333 [-]
	 SCS Opposite-Spin Scale   =       1.2000000000000000 [-]
	 SCS Same-Spin Energy      =      -0.1678544084249910 [Eh]
	 SCS Opposite-Spin Energy  =      -1.8417517115250783 [Eh]
	 SCS Correlation Energy    =      -2.0096061199500692 [Eh]
	 SCS Total Energy          =    -557.9370531783018805 [Eh]
	-----------------------------------------------------------

*** Psi4 exiting successfully. Buy a developer a beer!
