                               Psi4 1.8.2 release

  ==> Input File <==

--------------------------------------------------------------------------
MEMORY 60 GB

molecule dimer {
0 1
Gh(F)      0.000000     0.000000     0.000000
Gh(O)      0.939133     2.246448    -1.810299
Gh(H)      0.182154     2.339815    -2.431459
Gh(H)      0.631445     1.529279    -1.221823
Gh(O)      0.333738     1.798982     2.158341
Gh(H)      0.266377     1.191470     1.384322
Gh(H)     -0.480834     1.721529     2.716331
Gh(O)     -2.404593     1.393581     0.312901
Gh(H)     -2.408128     1.153754     1.258151
Gh(H)     -1.572145     1.037122    -0.045040
Gh(O)      1.919438    -1.311444    -1.308668
Gh(H)      1.124707    -0.870402    -0.913735
Gh(H)      2.164585    -2.064254    -0.748678
O          1.220508    -1.402945     2.234795
H          0.781895    -2.282298     2.115950
H          0.768841    -0.858246     1.533477
Gh(O)     -1.412038    -2.154855    -1.604480
Gh(H)     -2.091893    -1.650807    -2.061775
Gh(H)     -1.081371    -1.383401    -1.077126

units ang
no_reorient
no_com
symmetry c1
}

set {
basis        aug-cc-pVTZ
scf_type     df
}

energy("mp2")
--------------------------------------------------------------------------

    Molecular point group: c1

    Geometry (in Angstrom), charge = 0, multiplicity = 1:

       Center              X                  Y                   Z               Mass
    ------------   -----------------  -----------------  -----------------  -----------------
      Gh(F)           0.000000000000     0.000000000000     0.000000000000    18.998403162730
      Gh(O)           0.939133000000     2.246448000000    -1.810299000000    15.994914619570
      Gh(H)           0.182154000000     2.339815000000    -2.431459000000     1.007825032230
      Gh(H)           0.631445000000     1.529279000000    -1.221823000000     1.007825032230
      Gh(O)           0.333738000000     1.798982000000     2.158341000000    15.994914619570
      Gh(H)           0.266377000000     1.191470000000     1.384322000000     1.007825032230
      Gh(H)          -0.480834000000     1.721529000000     2.716331000000     1.007825032230
      Gh(O)          -2.404593000000     1.393581000000     0.312901000000    15.994914619570
      Gh(H)          -2.408128000000     1.153754000000     1.258151000000     1.007825032230
      Gh(H)          -1.572145000000     1.037122000000    -0.045040000000     1.007825032230
      Gh(O)           1.919438000000    -1.311444000000    -1.308668000000    15.994914619570
      Gh(H)           1.124707000000    -0.870402000000    -0.913735000000     1.007825032230
      Gh(H)           2.164585000000    -2.064254000000    -0.748678000000     1.007825032230
         O            1.220508000000    -1.402945000000     2.234795000000    15.994914619570
         H            0.781895000000    -2.282298000000     2.115950000000     1.007825032230
         H            0.768841000000    -0.858246000000     1.533477000000     1.007825032230
      Gh(O)          -1.412038000000    -2.154855000000    -1.604480000000    15.994914619570
      Gh(H)          -2.091893000000    -1.650807000000    -2.061775000000     1.007825032230
      Gh(H)          -1.081371000000    -1.383401000000    -1.077126000000     1.007825032230

  Charge       = 0
  Multiplicity = 1
  Basis Set: AUG-CC-PVTZ
    Blend: AUG-CC-PVTZ
  Basis Set: (AUG-CC-PVTZ AUX)
    Blend: AUG-CC-PVTZ-JKFIT

    Orbital Energies [Eh]
    ---------------------

    Doubly Occupied:

       1A    -20.574572     2A     -1.337772     3A     -0.693097
       4A     -0.583647     5A     -0.508424

  @DF-RHF Final Energy:   -76.05579704156757

   => Energetics <=

    Nuclear Repulsion Energy =              8.8701163611353984
    One-Electron Energy =                -122.4568009117276972
    Two-Electron Energy =                  37.5308875090247156
    Total Energy =                        -76.0557970415675868
 Dipole X            :        -21.9560919           21.3818732           -0.5742187
 Dipole Y            :         26.9275167          -27.1442226           -0.2167059
 Dipole Z            :        -41.2104035           40.6816215           -0.5287819
 Magnitude           :                                                    0.8101228
  Basis Set: (AUG-CC-PVTZ AUX)
    Blend: AUG-CC-PVTZ-RI
	 Reference Energy          =     -76.0557970415675726 [Eh]
	 Singles Energy            =      -0.0000000000000000 [Eh]
	 Same-Spin Energy          =      -0.0691157018592193 [Eh]
	 Opposite-Spin Energy      =      -0.2183288341549245 [Eh]
	 Correlation Energy        =      -0.2874445360141438 [Eh]
	 Total Energy              =     -76.3432415775817219 [Eh]

	 ================> DF-SCS-MP2 Energies <==================
	-----------------------------------------------------------
	 SCS Same-Spin Scale       =       0.3333333333333333 [-]
	 SCS Opposite-Spin Scale   =       1.2000000000000000 [-]
	 SCS Same-Spin Energy      =      -0.0230385672864064 [Eh]
	 SCS Opposite-Spin Energy  =      -0.2619946009859094 [Eh]
	 SCS Correlation Energy    =      -0.2850331682723158 [Eh]
	 SCS Total Energy          =     -76.3408302098398934 [Eh]
	-----------------------------------------------------------

*** Psi4 exiting successfully. Buy a developer a beer!
