                               Psi4 1.8.2 release

  ==> Input File <==

--------------------------------------------------------------------------
MEMORY 60 GB

molecule dimer {
-1 1
F          0.000000     0.000000     0.000000
O         -2.818009     0.609374     0.162654
H         -1.778956     0.483442     0.271480
H         -3.220632    -0.066597     0.720491
O          2.085754    -1.822979    -0.697573
H          2.754417    -1.496247    -1.384254
H          1.490905    -1.032822    -0.528178
O         -0.773104    -2.486148     1.447167
H         -0.692628    -2.818456     0.550011
H         -0.394834    -1.622647     1.363823
O          2.467600     1.038241     0.886347
H          2.596338     2.004501     0.812912
H          1.536657     0.944574     0.699383
O         -0.424368     1.472416    -2.159466
H         -0.175504     0.768040    -2.700271
H         -0.368831     1.043143    -1.301063
O         -1.314798    -2.040510    -1.451150
H         -0.878057    -1.502413    -0.767622
H         -2.315826    -1.736101    -1.458899

units ang
no_reorient
no_com
symmetry c1
}

set {
basis        aug-cc-pVTZ
scf_type     df
}

energy("mp2")
--------------------------------------------------------------------------

    Molecular point group: c1

    Geometry (in Angstrom), charge = -1, multiplicity = 1:

       Center              X                  Y                   Z               Mass
    ------------   -----------------  -----------------  -----------------  -----------------
         F            0.000000000000     0.000000000000     0.000000000000    18.998403162730
         O           -2.818009000000     0.609374000000     0.162654000000    15.994914619570
         H           -1.778956000000     0.483442000000     0.271480000000     1.007825032230
         H           -3.220632000000    -0.066597000000     0.720491000000     1.007825032230
         O            2.085754000000    -1.822979000000    -0.697573000000    15.994914619570
         H            2.754417000000    -1.496247000000    -1.384254000000     1.007825032230
         H            1.490905000000    -1.032822000000    -0.528178000000     1.007825032230
         O           -0.773104000000    -2.486148000000     1.447167000000    15.994914619570
         H           -0.692628000000    -2.818456000000     0.550011000000     1.007825032230
         H           -0.394834000000    -1.622647000000     1.363823000000     1.007825032230
         O            2.467600000000     1.038241000000     0.886347000000    15.994914619570
         H            2.596338000000     2.004501000000     0.812912000000     1.007825032230
         H            1.536657000000     0.944574000000     0.699383000000     1.007825032230
         O           -0.424368000000     1.472416000000    -2.159466000000    15.994914619570
         H           -0.175504000000     0.768040000000    -2.700271000000     1.007825032230
         H           -0.368831000000     1.043143000000    -1.301063000000     1.007825032230
         O           -1.314798000000    -2.040510000000    -1.451150000000    15.994914619570
         H           -0.878057000000    -1.502413000000    -0.767622000000     1.007825032230
         H           -2.315826000000    -1.736101000000    -1.458899000000     1.007825032230

  Charge       = -1
  Multiplicity = 1
  Basis Set: AUG-CC-PVTZ
    Blend: AUG-CC-PVTZ
  Basis Set: (AUG-CC-PVTZ AUX)
    Blend: AUG-CC-PVTZ-JKFIT

    Orbital Energies [Eh]
    ---------------------

    Doubly Occupied:

       1A    -26.022580     2A    -20.423478     3A    -20.423124
       4A    -20.421812     5A    -20.413295     6A    -20.410835
       7A    -20.390357     8A     -1.292532     9A     -1.207540
      10A     -1.206776    11A     -1.195329    12A     -1.182965
      13A     -1.180456    14A     -1.170393    15A     -0.571235
      16A     -0.566599    17A     -0.560068    18A     -0.552314
      19A     -0.544888    20A     -0.534482    21A     -0.454007
      22A     -0.450623    23A     -0.443532    24A     -0.437171
      25A     -0.430866    26A     -0.421483    27A     -0.381061
      28A     -0.374613    29A     -0.369811    30A     -0.366432
      31A     -0.365140    32A     -0.357672    33A     -0.350489
      34A     -0.346913    35A     -0.342431

  @DF-RHF Final Energy:  -555.91063019101603

   => Energetics <=

    Nuclear Repulsion Energy =            360.4501838106872356
    One-Electron Energy =               -1500.3950089813563409
    Two-Electron Energy =                 584.0341949796529661
    Total Energy =                       -555.9106301910160255
 Dipole X            :         14.6921486          -14.4797449            0.2124037
 Dipole Y            :         59.4361929          -58.3328805            1.1033124
 Dipole Z            :         34.6439056          -34.4277014            0.2162042
 Magnitude           :                                                    1.1441844
  Basis Set: (AUG-CC-PVTZ AUX)
    Blend: AUG-CC-PVTZ-RI
	 Reference Energy          =    -555.9106301910160255 [Eh]
	 Singles Energy            =      -0.0000000000000000 [Eh]
	 Same-Spin Energy          =      -0.5057914479043211 [Eh]
	 Opposite-Spin Energy      =      -1.5395674699804549 [Eh]
	 Correlation Energy        =      -2.0453589178847760 [Eh]
	 Total Energy              =    -557.9559891089007806 [Eh]

	 ================> DF-SCS-MP2 Energies <==================
	-----------------------------------------------------------
	 SCS Same-Spin Scale       =       0.3333333333333333 [-]
	 SCS Opposite-Spin Scale   =       1.2000000000000000 [-]
	 SCS Same-Spin Energy      =      -0.1685971493014403 [Eh]
	 SCS Opposite-Spin Energy  =      -1.8474809639765457 [Eh]
	 SCS Correlation Energy    =      -2.0160781132779859 [Eh]
	 SCS Total Energy          =    -557.9267083042940385 [Eh]
	-----------------------------------------------------------

*** Psi4 exiting successfully. Buy a developer a beer!
