                               Psi4 1.9 release

  ==> Input File <==

--------------------------------------------------------------------------
MEMORY 60 GB

molecule dimer {
-1 1
F      0.000000     0.000000     0.000000
--
0 1
O      1.793472    -2.266511    -0.092888
H      1.763845    -2.397327     0.845606
H      0.978558    -1.723771    -0.253568
O      0.660188     0.993220     2.493564
H     -0.122404     1.069889     3.027976
H      0.503953     0.186710     1.959817
O     -0.690392    -1.471906    -2.361938
H     -0.556917    -1.124097    -1.508427
H     -0.721481    -2.433572    -2.323726
O      1.530549     1.044253    -2.077763
H      1.110398     1.449909    -2.804950
H      0.839571     0.812979    -1.396290
O     -2.357393     1.196648    -0.494342
H     -2.542465     1.666648     0.313393
H     -1.569354     0.722806    -0.305017

units ang
no_reorient
no_com
symmetry c1
}

set {
basis        aug-cc-pVTZ
scf_type     df
}

energy("mp2", bsse_type="cp")
--------------------------------------------------------------------------

                               Psi4 1.9 release
    Molecular point group: c1
  Charge       = 0
  Multiplicity = 1
  Basis Set: AUG-CC-PVTZ
    Blend: AUG-CC-PVTZ
  Basis Set: (AUG-CC-PVTZ AUX)
    Blend: AUG-CC-PVTZ-JKFIT
  @DF-RHF Final Energy:  -380.27899838127593
    Total Energy =                       -380.2789983812759260
 Dipole X            :        -14.9239236           13.5589664           -1.3649573
 Dipole Y            :         10.4660086          -10.9683370           -0.5023284
 Dipole Z            :         44.5365319          -42.9196903            1.6168416
 Magnitude           :                                                    2.1747687
  Basis Set: (AUG-CC-PVTZ AUX)
    Blend: AUG-CC-PVTZ-RI
	 Reference Energy          =    -380.2789983812759260 [Eh]
	 Singles Energy            =      -0.0000000000000000 [Eh]
	 Same-Spin Energy          =      -0.3442388189140039 [Eh]
	 Opposite-Spin Energy      =      -1.0830717657819382 [Eh]
	 Correlation Energy        =      -1.4273105846959422 [Eh]
	 Total Energy              =    -381.7063089659718571 [Eh]
	 SCS Total Energy          =    -381.6934307731855824 [Eh]
                               Psi4 1.9 release
    Molecular point group: c1
  Multiplicity = 1
  Basis Set: AUG-CC-PVTZ
    Blend: AUG-CC-PVTZ
  Basis Set: (AUG-CC-PVTZ AUX)
    Blend: AUG-CC-PVTZ-JKFIT
  @DF-RHF Final Energy:   -99.45110367687323
    Total Energy =                        -99.4511036768732311
  Basis Set: (AUG-CC-PVTZ AUX)
	 Singles Energy            =      -0.0000000000000000 [Eh]
	 Same-Spin Energy          =      -0.0820264169618795 [Eh]
	 Opposite-Spin Energy      =      -0.2298440772376097 [Eh]
	 Correlation Energy        =      -0.3118704941994893 [Eh]
	 Total Energy              =     -99.7629741710727274 [Eh]
	 SCS Total Energy          =     -99.7542587085456489 [Eh]
                               Psi4 1.9 release
    Molecular point group: c1

    Geometry (in Bohr), charge = -1, multiplicity = 1:

       Center              X                  Y                   Z               Mass
    ------------   -----------------  -----------------  -----------------  -----------------
         F            0.000000000000     0.000000000000     0.000000000000    18.998403162730
         O            3.389170893677    -4.283085050338    -0.175532880342    15.994914619570
         H            3.333183977758    -4.530291463165     1.597963750044     1.007825032230
         H            1.849206617876    -3.257455093007    -0.479174074180     1.007825032230
         O            1.247574511314     1.876913782327     4.712153036301    15.994914619570
         H           -0.231310036661     2.021797194640     5.722045354459     1.007825032230
         H            0.952333150103     0.352830764884     3.703517386016     1.007825032230
         O           -1.304651799207    -2.781499222418    -4.463415945312    15.994914619570
         H           -1.052420604612    -2.124235468449    -2.850513910246     1.007825032230
         H           -1.363401494721    -4.598784586583    -4.391205730606     1.007825032230
         O            2.892318431593     1.973352175688    -3.926403023610    15.994914619570
         H            2.098348110256     2.739930916836    -5.300587295603     1.007825032230
         H            1.586559252877     1.536307655749    -2.638605691716     1.007825032230
         O           -4.454827140071     2.261336988577    -0.934170992311    15.994914619570
         H           -4.804562533562     3.149508267542     0.592226939636     1.007825032230
         H           -2.965649253892     1.365905381838    -0.576398593609     1.007825032230

  Charge       = -1
  Multiplicity = 1
  Basis Set: AUG-CC-PVTZ
    Blend: AUG-CC-PVTZ
  Basis Set: (AUG-CC-PVTZ AUX)
    Blend: AUG-CC-PVTZ-JKFIT

    Orbital Energies [Eh]
    ---------------------

    Doubly Occupied:

       1A    -25.980510     2A    -20.416062     3A    -20.408552
       4A    -20.401162     5A    -20.391377     6A    -20.375420
       7A     -1.247486     8A     -1.199295     9A     -1.195799
      10A     -1.190472    11A     -1.188519    12A     -1.160939
      13A     -0.578873    14A     -0.563073    15A     -0.558512
      16A     -0.548472    17A     -0.538212    18A     -0.438329
      19A     -0.436987    20A     -0.426997    21A     -0.420476
      22A     -0.397579    23A     -0.365787    24A     -0.354547
      25A     -0.352703    26A     -0.346167    27A     -0.334516
      28A     -0.332054    29A     -0.330821    30A     -0.320058

  @DF-RHF Final Energy:  -479.84748589243861

   => Energetics <=

    Nuclear Repulsion Energy =            263.3003914802449685
    One-Electron Energy =               -1200.6962347009368841
    Two-Electron Energy =                 457.5483573282532461
    Total Energy =                       -479.8474858924386126
 Dipole X            :        -14.9258441           13.5589664           -1.3668777
 Dipole Y            :         10.4990498          -10.9683370           -0.4692872
 Dipole Z            :         44.8689942          -42.9196903            1.9493039
 Magnitude           :                                                    2.4265965
  Basis Set: (AUG-CC-PVTZ AUX)
    Blend: AUG-CC-PVTZ-RI
	 Reference Energy          =    -479.8474858924386126 [Eh]
	 Singles Energy            =      -0.0000000000000000 [Eh]
	 Same-Spin Energy          =      -0.4314623116124978 [Eh]
	 Opposite-Spin Energy      =      -1.3125772640531104 [Eh]
	 Correlation Energy        =      -1.7440395756656082 [Eh]
	 Total Energy              =    -481.5915254681042370 [Eh]

	 ================> DF-SCS-MP2 Energies <==================
	-----------------------------------------------------------
	 SCS Same-Spin Scale       =       0.3333333333333333 [-]
	 SCS Opposite-Spin Scale   =       1.2000000000000000 [-]
	 SCS Same-Spin Energy      =      -0.1438207705374993 [Eh]
	 SCS Opposite-Spin Energy  =      -1.5750927168637323 [Eh]
	 SCS Correlation Energy    =      -1.7189134874012315 [Eh]
	 SCS Total Energy          =    -481.5663993798398224 [Eh]
	-----------------------------------------------------------

*** Psi4 exiting successfully. Buy a developer a beer!
