                               Psi4 1.8.2 release

  ==> Input File <==

--------------------------------------------------------------------------
MEMORY 60 GB

molecule dimer {
0 1
Gh(F)      0.000000     0.000000     0.000000
Gh(O)     -2.498532    -0.881431    -0.464596
Gh(H)     -3.244844    -0.373050    -0.742977
Gh(H)     -1.787443    -0.231783    -0.439473
Gh(O)      0.821961    -0.941013    -2.487806
Gh(H)      0.553219    -0.751966    -1.546993
Gh(H)      0.984333    -1.880222    -2.681248
Gh(O)      2.741876     1.268113     0.623068
Gh(H)      1.805546     0.967787     0.731277
Gh(H)      2.912001     1.778305     1.404663
O          0.039880    -2.040644     1.862439
H         -0.844297    -2.487575     1.683009
H          0.092425    -1.237739     1.280131
Gh(O)     -0.422554     1.200836     2.437095
Gh(H)     -0.724798     2.111332     2.489843
Gh(H)     -0.282246     0.936943     1.519701

units ang
no_reorient
no_com
symmetry c1
}

set {
basis        aug-cc-pVTZ
scf_type     df
}

energy("mp2")
--------------------------------------------------------------------------

    Molecular point group: c1

    Geometry (in Angstrom), charge = 0, multiplicity = 1:

       Center              X                  Y                   Z               Mass
    ------------   -----------------  -----------------  -----------------  -----------------
      Gh(F)           0.000000000000     0.000000000000     0.000000000000    18.998403162730
      Gh(O)          -2.498532000000    -0.881431000000    -0.464596000000    15.994914619570
      Gh(H)          -3.244844000000    -0.373050000000    -0.742977000000     1.007825032230
      Gh(H)          -1.787443000000    -0.231783000000    -0.439473000000     1.007825032230
      Gh(O)           0.821961000000    -0.941013000000    -2.487806000000    15.994914619570
      Gh(H)           0.553219000000    -0.751966000000    -1.546993000000     1.007825032230
      Gh(H)           0.984333000000    -1.880222000000    -2.681248000000     1.007825032230
      Gh(O)           2.741876000000     1.268113000000     0.623068000000    15.994914619570
      Gh(H)           1.805546000000     0.967787000000     0.731277000000     1.007825032230
      Gh(H)           2.912001000000     1.778305000000     1.404663000000     1.007825032230
         O            0.039880000000    -2.040644000000     1.862439000000    15.994914619570
         H           -0.844297000000    -2.487575000000     1.683009000000     1.007825032230
         H            0.092425000000    -1.237739000000     1.280131000000     1.007825032230
      Gh(O)          -0.422554000000     1.200836000000     2.437095000000    15.994914619570
      Gh(H)          -0.724798000000     2.111332000000     2.489843000000     1.007825032230
      Gh(H)          -0.282246000000     0.936943000000     1.519701000000     1.007825032230

  Charge       = 0
  Multiplicity = 1
  Basis Set: AUG-CC-PVTZ
    Blend: AUG-CC-PVTZ
  Basis Set: (AUG-CC-PVTZ AUX)
    Blend: AUG-CC-PVTZ-JKFIT

    Orbital Energies [Eh]
    ---------------------

    Doubly Occupied:

       1A    -20.572957     2A     -1.330597     3A     -0.700161
       4A     -0.570923     5A     -0.506025

  @DF-RHF Final Energy:   -76.05429281809015

   => Energetics <=

    Nuclear Repulsion Energy =              8.7950406921157285
    One-Electron Energy =                -122.3373371679794843
    Two-Electron Energy =                  37.4880036577736035
    Total Energy =                        -76.0542928180901470
 Dipole X            :          0.2759217           -0.8179339           -0.5420123
 Dipole Y            :         38.1245453          -37.8898894            0.2346559
 Dipole Z            :        -34.2541314           33.7555202           -0.4986112
 Magnitude           :                                                    0.7729514
  Basis Set: (AUG-CC-PVTZ AUX)
    Blend: AUG-CC-PVTZ-RI
	 Reference Energy          =     -76.0542928180901470 [Eh]
	 Singles Energy            =      -0.0000000000000000 [Eh]
	 Same-Spin Energy          =      -0.0691088708098389 [Eh]
	 Opposite-Spin Energy      =      -0.2183327367895810 [Eh]
	 Correlation Energy        =      -0.2874416075994198 [Eh]
	 Total Energy              =     -76.3417344256895660 [Eh]

	 ================> DF-SCS-MP2 Energies <==================
	-----------------------------------------------------------
	 SCS Same-Spin Scale       =       0.3333333333333333 [-]
	 SCS Opposite-Spin Scale   =       1.2000000000000000 [-]
	 SCS Same-Spin Energy      =      -0.0230362902699463 [Eh]
	 SCS Opposite-Spin Energy  =      -0.2619992841474972 [Eh]
	 SCS Correlation Energy    =      -0.2850355744174435 [Eh]
	 SCS Total Energy          =     -76.3393283925075963 [Eh]
	-----------------------------------------------------------

*** Psi4 exiting successfully. Buy a developer a beer!
