                               Psi4 1.8.2 release

  ==> Input File <==

--------------------------------------------------------------------------
MEMORY 60 GB

molecule dimer {
0 1
Gh(F)      0.000000     0.000000     0.000000
Gh(O)      2.400550     0.878111     1.258466
Gh(H)      1.541205     0.949633     0.811432
Gh(H)      2.699131     1.774987     1.477501
Gh(O)     -2.134479     1.075150     1.390297
Gh(H)     -2.935259     0.501464     1.548356
Gh(H)     -1.522539     0.602603     0.828169
O         -2.058570    -0.966210    -1.758447
H         -1.269903    -0.802439    -1.187441
H         -2.168440    -1.875697    -2.119616
Gh(O)      2.056294    -1.500050    -1.140092
Gh(H)      1.522958    -0.799826    -0.738451
Gh(H)      2.773549    -1.554714    -0.462578
Gh(O)     -0.008638     2.314735    -1.744331
Gh(H)     -0.015099     1.517325    -1.142884
Gh(H)     -0.979067     2.389768    -1.960602
Gh(O)      0.111329    -1.229377     2.544786
Gh(H)     -0.031102    -0.875406     1.676046
Gh(H)      0.128193    -0.452941     3.103989

units ang
no_reorient
no_com
symmetry c1
}

set {
basis        aug-cc-pVTZ
scf_type     df
}

energy("mp2")
--------------------------------------------------------------------------

    Molecular point group: c1

    Geometry (in Angstrom), charge = 0, multiplicity = 1:

       Center              X                  Y                   Z               Mass
    ------------   -----------------  -----------------  -----------------  -----------------
      Gh(F)           0.000000000000     0.000000000000     0.000000000000    18.998403162730
      Gh(O)           2.400550000000     0.878111000000     1.258466000000    15.994914619570
      Gh(H)           1.541205000000     0.949633000000     0.811432000000     1.007825032230
      Gh(H)           2.699131000000     1.774987000000     1.477501000000     1.007825032230
      Gh(O)          -2.134479000000     1.075150000000     1.390297000000    15.994914619570
      Gh(H)          -2.935259000000     0.501464000000     1.548356000000     1.007825032230
      Gh(H)          -1.522539000000     0.602603000000     0.828169000000     1.007825032230
         O           -2.058570000000    -0.966210000000    -1.758447000000    15.994914619570
         H           -1.269903000000    -0.802439000000    -1.187441000000     1.007825032230
         H           -2.168440000000    -1.875697000000    -2.119616000000     1.007825032230
      Gh(O)           2.056294000000    -1.500050000000    -1.140092000000    15.994914619570
      Gh(H)           1.522958000000    -0.799826000000    -0.738451000000     1.007825032230
      Gh(H)           2.773549000000    -1.554714000000    -0.462578000000     1.007825032230
      Gh(O)          -0.008638000000     2.314735000000    -1.744331000000    15.994914619570
      Gh(H)          -0.015099000000     1.517325000000    -1.142884000000     1.007825032230
      Gh(H)          -0.979067000000     2.389768000000    -1.960602000000     1.007825032230
      Gh(O)           0.111329000000    -1.229377000000     2.544786000000    15.994914619570
      Gh(H)          -0.031102000000    -0.875406000000     1.676046000000     1.007825032230
      Gh(H)           0.128193000000    -0.452941000000     3.103989000000     1.007825032230

  Charge       = 0
  Multiplicity = 1
  Basis Set: AUG-CC-PVTZ
    Blend: AUG-CC-PVTZ
  Basis Set: (AUG-CC-PVTZ AUX)
    Blend: AUG-CC-PVTZ-JKFIT

    Orbital Energies [Eh]
    ---------------------

    Doubly Occupied:

       1A    -20.565744     2A     -1.331016     3A     -0.723098
       4A     -0.555708     5A     -0.503898

  @DF-RHF Final Energy:   -76.05362034806006

   => Energetics <=

    Nuclear Repulsion Energy =              8.9014012757781682
    One-Electron Energy =                -122.5511117546253530
    Two-Electron Energy =                  37.5960901307871254
    Total Energy =                        -76.0536203480600648
 Dipole X            :         38.0803969          -37.6185947            0.4618022
 Dipole Y            :         19.1606278          -19.6679218           -0.5072940
 Dipole Z            :         32.9758954          -32.8332979            0.1425975
 Magnitude           :                                                    0.7006729
  Basis Set: (AUG-CC-PVTZ AUX)
    Blend: AUG-CC-PVTZ-RI
	 Reference Energy          =     -76.0536203480600648 [Eh]
	 Singles Energy            =      -0.0000000000000000 [Eh]
	 Same-Spin Energy          =      -0.0688367081051940 [Eh]
	 Opposite-Spin Energy      =      -0.2170547691233878 [Eh]
	 Correlation Energy        =      -0.2858914772285818 [Eh]
	 Total Energy              =     -76.3395118252886533 [Eh]

	 ================> DF-SCS-MP2 Energies <==================
	-----------------------------------------------------------
	 SCS Same-Spin Scale       =       0.3333333333333333 [-]
	 SCS Opposite-Spin Scale   =       1.2000000000000000 [-]
	 SCS Same-Spin Energy      =      -0.0229455693683980 [Eh]
	 SCS Opposite-Spin Energy  =      -0.2604657229480654 [Eh]
	 SCS Correlation Energy    =      -0.2834112923164634 [Eh]
	 SCS Total Energy          =     -76.3370316403765230 [Eh]
	-----------------------------------------------------------

*** Psi4 exiting successfully. Buy a developer a beer!
