                               Psi4 1.8.2 release

  ==> Input File <==

--------------------------------------------------------------------------
MEMORY 60 GB

molecule dimer {
0 1
Gh(F)      0.000000     0.000000     0.000000
Gh(O)      1.971504     0.778934    -2.233992
Gh(H)      1.421744     0.533620    -1.441250
Gh(H)      1.572619     1.611941    -2.531674
Gh(O)     -1.476799    -0.971779     2.173047
Gh(H)     -0.763475    -0.799020     1.503018
Gh(H)     -2.272405    -1.219825     1.750427
O          0.333062    -2.976735    -0.174837
H         -0.098199    -2.079413    -0.145803
H          0.476164    -3.295494    -1.075675
Gh(O)     -1.184434    -0.992125    -2.284703
Gh(H)     -0.442796    -1.357866    -2.756262
Gh(H)     -0.749991    -0.519603    -1.515135
Gh(O)     -1.475690     2.261424    -0.261281
Gh(H)     -0.726698     1.695967    -0.017738
Gh(H)     -1.859554     2.591371     0.552832

units ang
no_reorient
no_com
symmetry c1
}

set {
basis        aug-cc-pVTZ
scf_type     df
}

energy("mp2")
--------------------------------------------------------------------------

    Molecular point group: c1

    Geometry (in Angstrom), charge = 0, multiplicity = 1:

       Center              X                  Y                   Z               Mass
    ------------   -----------------  -----------------  -----------------  -----------------
      Gh(F)           0.000000000000     0.000000000000     0.000000000000    18.998403162730
      Gh(O)           1.971504000000     0.778934000000    -2.233992000000    15.994914619570
      Gh(H)           1.421744000000     0.533620000000    -1.441250000000     1.007825032230
      Gh(H)           1.572619000000     1.611941000000    -2.531674000000     1.007825032230
      Gh(O)          -1.476799000000    -0.971779000000     2.173047000000    15.994914619570
      Gh(H)          -0.763475000000    -0.799020000000     1.503018000000     1.007825032230
      Gh(H)          -2.272405000000    -1.219825000000     1.750427000000     1.007825032230
         O            0.333062000000    -2.976735000000    -0.174837000000    15.994914619570
         H           -0.098199000000    -2.079413000000    -0.145803000000     1.007825032230
         H            0.476164000000    -3.295494000000    -1.075675000000     1.007825032230
      Gh(O)          -1.184434000000    -0.992125000000    -2.284703000000    15.994914619570
      Gh(H)          -0.442796000000    -1.357866000000    -2.756262000000     1.007825032230
      Gh(H)          -0.749991000000    -0.519603000000    -1.515135000000     1.007825032230
      Gh(O)          -1.475690000000     2.261424000000    -0.261281000000    15.994914619570
      Gh(H)          -0.726698000000     1.695967000000    -0.017738000000     1.007825032230
      Gh(H)          -1.859554000000     2.591371000000     0.552832000000     1.007825032230

  Charge       = 0
  Multiplicity = 1
  Basis Set: AUG-CC-PVTZ
    Blend: AUG-CC-PVTZ
  Basis Set: (AUG-CC-PVTZ AUX)
    Blend: AUG-CC-PVTZ-JKFIT

    Orbital Energies [Eh]
    ---------------------

    Doubly Occupied:

       1A    -20.567143     2A     -1.336193     3A     -0.719457
       4A     -0.564304     5A     -0.505756

  @DF-RHF Final Energy:   -76.05611154131029

   => Energetics <=

    Nuclear Repulsion Energy =              8.9554549784844539
    One-Electron Energy =                -122.6374244653439547
    Two-Electron Energy =                  37.6258579455492068
    Total Energy =                        -76.0561115413102868
 Dipole X            :         -5.9422564            5.7494180           -0.1928384
 Dipole Y            :         55.5455128          -55.1588134            0.3866994
 Dipole Z            :          4.3628098           -4.9514113           -0.5886015
 Magnitude           :                                                    0.7301882
  Basis Set: (AUG-CC-PVTZ AUX)
    Blend: AUG-CC-PVTZ-RI
	 Reference Energy          =     -76.0561115413102868 [Eh]
	 Singles Energy            =      -0.0000000000000000 [Eh]
	 Same-Spin Energy          =      -0.0687262770676740 [Eh]
	 Opposite-Spin Energy      =      -0.2167890098386831 [Eh]
	 Correlation Energy        =      -0.2855152869063571 [Eh]
	 Total Energy              =     -76.3416268282166470 [Eh]

	 ================> DF-SCS-MP2 Energies <==================
	-----------------------------------------------------------
	 SCS Same-Spin Scale       =       0.3333333333333333 [-]
	 SCS Opposite-Spin Scale   =       1.2000000000000000 [-]
	 SCS Same-Spin Energy      =      -0.0229087590225580 [Eh]
	 SCS Opposite-Spin Energy  =      -0.2601468118064197 [Eh]
	 SCS Correlation Energy    =      -0.2830555708289778 [Eh]
	 SCS Total Energy          =     -76.3391671121392648 [Eh]
	-----------------------------------------------------------

*** Psi4 exiting successfully. Buy a developer a beer!
