                               Psi4 1.8.2 release

  ==> Input File <==

--------------------------------------------------------------------------
MEMORY 60 GB

molecule dimer {
-1 1
F          0.000000     0.000000     0.000000
O         -1.251116    -1.324241     1.858701
H         -0.644750    -1.144723     1.133580
H         -1.241253    -0.487636     2.348342
O         -0.962366    -2.269385    -1.669304
H         -0.867402    -1.542612    -1.090180
H         -1.783634    -2.711967    -1.474651
O          2.005604    -2.181428    -0.280141
H          1.372139    -1.457922    -0.354971
H          2.139229    -2.266705     0.685608
O         -0.128590     2.176756     1.552053
H         -0.060687     1.399457     1.025673
H         -0.705954     2.013435     2.266419
O         -2.791118     0.791832    -0.581116
H         -1.861301     0.475451    -0.426954
H         -2.961146     1.432019     0.088729

units ang
no_reorient
no_com
symmetry c1
}

set {
basis        aug-cc-pVTZ
scf_type     df
}

energy("mp2")
--------------------------------------------------------------------------

    Molecular point group: c1

    Geometry (in Angstrom), charge = -1, multiplicity = 1:

       Center              X                  Y                   Z               Mass
    ------------   -----------------  -----------------  -----------------  -----------------
         F            0.000000000000     0.000000000000     0.000000000000    18.998403162730
         O           -1.251116000000    -1.324241000000     1.858701000000    15.994914619570
         H           -0.644750000000    -1.144723000000     1.133580000000     1.007825032230
         H           -1.241253000000    -0.487636000000     2.348342000000     1.007825032230
         O           -0.962366000000    -2.269385000000    -1.669304000000    15.994914619570
         H           -0.867402000000    -1.542612000000    -1.090180000000     1.007825032230
         H           -1.783634000000    -2.711967000000    -1.474651000000     1.007825032230
         O            2.005604000000    -2.181428000000    -0.280141000000    15.994914619570
         H            1.372139000000    -1.457922000000    -0.354971000000     1.007825032230
         H            2.139229000000    -2.266705000000     0.685608000000     1.007825032230
         O           -0.128590000000     2.176756000000     1.552053000000    15.994914619570
         H           -0.060687000000     1.399457000000     1.025673000000     1.007825032230
         H           -0.705954000000     2.013435000000     2.266419000000     1.007825032230
         O           -2.791118000000     0.791832000000    -0.581116000000    15.994914619570
         H           -1.861301000000     0.475451000000    -0.426954000000     1.007825032230
         H           -2.961146000000     1.432019000000     0.088729000000     1.007825032230

  Charge       = -1
  Multiplicity = 1
  Basis Set: AUG-CC-PVTZ
    Blend: AUG-CC-PVTZ
  Basis Set: (AUG-CC-PVTZ AUX)
    Blend: AUG-CC-PVTZ-JKFIT

    Orbital Energies [Eh]
    ---------------------

    Doubly Occupied:

       1A    -25.994089     2A    -20.408599     3A    -20.406702
       4A    -20.405341     5A    -20.403870     6A    -20.402857
       7A     -1.262884     8A     -1.208166     9A     -1.200566
      10A     -1.191650    11A     -1.188636    12A     -1.185913
      13A     -0.590804    14A     -0.579577    15A     -0.561162
      16A     -0.554147    17A     -0.547753    18A     -0.449079
      19A     -0.436351    20A     -0.430569    21A     -0.427658
      22A     -0.424491    23A     -0.363116    24A     -0.361228
      25A     -0.359095    26A     -0.351526    27A     -0.349464
      28A     -0.346145    29A     -0.344047    30A     -0.338991

  @DF-RHF Final Energy:  -479.85908490578925

   => Energetics <=

    Nuclear Repulsion Energy =            267.9444377084224129
    One-Electron Energy =               -1209.4580910303870951
    Two-Electron Energy =                 461.6545684161754934
    Total Energy =                       -479.8590849057892456
 Dipole X            :         59.9507151          -59.7823307            0.1683844
 Dipole Y            :         51.5443862          -50.5368154            1.0075709
 Dipole Z            :        -20.0448011           21.2464535            1.2016524
 Magnitude           :                                                    1.5771876
  Basis Set: (AUG-CC-PVTZ AUX)
    Blend: AUG-CC-PVTZ-RI
	 Reference Energy          =    -479.8590849057892456 [Eh]
	 Singles Energy            =      -0.0000000000000000 [Eh]
	 Same-Spin Energy          =      -0.4315298131409390 [Eh]
	 Opposite-Spin Energy      =      -1.3127568566877073 [Eh]
	 Correlation Energy        =      -1.7442866698286461 [Eh]
	 Total Energy              =    -481.6033715756178708 [Eh]

	 ================> DF-SCS-MP2 Energies <==================
	-----------------------------------------------------------
	 SCS Same-Spin Scale       =       0.3333333333333333 [-]
	 SCS Opposite-Spin Scale   =       1.2000000000000000 [-]
	 SCS Same-Spin Energy      =      -0.1438432710469796 [Eh]
	 SCS Opposite-Spin Energy  =      -1.5753082280252486 [Eh]
	 SCS Correlation Energy    =      -1.7191514990722283 [Eh]
	 SCS Total Energy          =    -481.5782364048614568 [Eh]
	-----------------------------------------------------------

*** Psi4 exiting successfully. Buy a developer a beer!
