                               Psi4 1.8.2 release

  ==> Input File <==

--------------------------------------------------------------------------
MEMORY 60 GB

molecule dimer {
-1 1
F          0.000000     0.000000     0.000000
Gh(O)     -2.535941    -0.518749    -0.841397
Gh(H)     -2.920259     0.371723    -0.962405
Gh(H)     -1.599270    -0.369082    -0.662928
Gh(O)      1.559802     1.999498     1.426683
Gh(H)      1.052305     1.577903     0.700547
Gh(H)      2.485581     1.914871     1.234694
Gh(O)      1.354501    -1.676034    -1.827240
Gh(H)      2.081264    -1.020441    -1.804735
Gh(H)      0.735366    -1.229436    -1.225870
Gh(O)      2.371662    -0.821742     1.847114
Gh(H)      1.868561    -0.165946     1.393601
Gh(H)      2.048718    -0.788545     2.707674
Gh(O)     -0.396813    -1.938838     2.239603
Gh(H)     -0.284999    -1.373573     1.502641
Gh(H)     -1.382193    -1.991135     2.209240
Gh(O)     -2.085558     1.288771     1.727221
Gh(H)     -1.503937     2.039451     1.584522
Gh(H)     -1.562251     0.562158     1.399159
Gh(O)     -0.164884     1.767301    -2.325383
Gh(H)     -0.793236     1.519173    -3.058380
Gh(H)     -0.020245     1.007979    -1.706815

units ang
no_reorient
no_com
symmetry c1
}

set {
basis        aug-cc-pVTZ
scf_type     df
}

energy("mp2")
--------------------------------------------------------------------------

    Molecular point group: c1

    Geometry (in Angstrom), charge = -1, multiplicity = 1:

       Center              X                  Y                   Z               Mass
    ------------   -----------------  -----------------  -----------------  -----------------
         F            0.000000000000     0.000000000000     0.000000000000    18.998403162730
      Gh(O)          -2.535941000000    -0.518749000000    -0.841397000000    15.994914619570
      Gh(H)          -2.920259000000     0.371723000000    -0.962405000000     1.007825032230
      Gh(H)          -1.599270000000    -0.369082000000    -0.662928000000     1.007825032230
      Gh(O)           1.559802000000     1.999498000000     1.426683000000    15.994914619570
      Gh(H)           1.052305000000     1.577903000000     0.700547000000     1.007825032230
      Gh(H)           2.485581000000     1.914871000000     1.234694000000     1.007825032230
      Gh(O)           1.354501000000    -1.676034000000    -1.827240000000    15.994914619570
      Gh(H)           2.081264000000    -1.020441000000    -1.804735000000     1.007825032230
      Gh(H)           0.735366000000    -1.229436000000    -1.225870000000     1.007825032230
      Gh(O)           2.371662000000    -0.821742000000     1.847114000000    15.994914619570
      Gh(H)           1.868561000000    -0.165946000000     1.393601000000     1.007825032230
      Gh(H)           2.048718000000    -0.788545000000     2.707674000000     1.007825032230
      Gh(O)          -0.396813000000    -1.938838000000     2.239603000000    15.994914619570
      Gh(H)          -0.284999000000    -1.373573000000     1.502641000000     1.007825032230
      Gh(H)          -1.382193000000    -1.991135000000     2.209240000000     1.007825032230
      Gh(O)          -2.085558000000     1.288771000000     1.727221000000    15.994914619570
      Gh(H)          -1.503937000000     2.039451000000     1.584522000000     1.007825032230
      Gh(H)          -1.562251000000     0.562158000000     1.399159000000     1.007825032230
      Gh(O)          -0.164884000000     1.767301000000    -2.325383000000    15.994914619570
      Gh(H)          -0.793236000000     1.519173000000    -3.058380000000     1.007825032230
      Gh(H)          -0.020245000000     1.007979000000    -1.706815000000     1.007825032230

  Charge       = -1
  Multiplicity = 1
  Basis Set: AUG-CC-PVTZ
    Blend: AUG-CC-PVTZ
  Basis Set: (AUG-CC-PVTZ AUX)
    Blend: AUG-CC-PVTZ-JKFIT

    Orbital Energies [Eh]
    ---------------------

    Doubly Occupied:

       1A    -25.833490     2A     -1.075847     3A     -0.180894
       4A     -0.180883     5A     -0.180869

  @DF-RHF Final Energy:   -99.45117341975285

   => Energetics <=

    Nuclear Repulsion Energy =              0.0000000000000000
    One-Electron Energy =                -143.9983758894775292
    Two-Electron Energy =                  44.5472024697246809
    Total Energy =                        -99.4511734197528483
 Dipole X            :         -0.0000748            0.0000000           -0.0000748
 Dipole Y            :         -0.0000067            0.0000000           -0.0000067
 Dipole Z            :         -0.0000433            0.0000000           -0.0000433
 Magnitude           :                                                    0.0000866
  Basis Set: (AUG-CC-PVTZ AUX)
    Blend: AUG-CC-PVTZ-RI
	 Reference Energy          =     -99.4511734197528483 [Eh]
	 Singles Energy            =      -0.0000000000000000 [Eh]
	 Same-Spin Energy          =      -0.0820679419846575 [Eh]
	 Opposite-Spin Energy      =      -0.2301824419420684 [Eh]
	 Correlation Energy        =      -0.3122503839267258 [Eh]
	 Total Energy              =     -99.7634238036795722 [Eh]

	 ================> DF-SCS-MP2 Energies <==================
	-----------------------------------------------------------
	 SCS Same-Spin Scale       =       0.3333333333333333 [-]
	 SCS Opposite-Spin Scale   =       1.2000000000000000 [-]
	 SCS Same-Spin Energy      =      -0.0273559806615525 [Eh]
	 SCS Opposite-Spin Energy  =      -0.2762189303304821 [Eh]
	 SCS Correlation Energy    =      -0.3035749109920345 [Eh]
	 SCS Total Energy          =     -99.7547483307448886 [Eh]
	-----------------------------------------------------------

*** Psi4 exiting successfully. Buy a developer a beer!
