                               Psi4 1.8.2 release

  ==> Input File <==

--------------------------------------------------------------------------
MEMORY 60 GB

molecule dimer {
0 1
Gh(F)      0.000000     0.000000     0.000000
O          2.576276    -1.171167     0.788022
H          1.776637    -0.888891     0.309615
H          2.425614    -0.738698     1.637671
Gh(O)     -1.663160     2.156415    -0.956164
Gh(H)     -1.185016     1.364115    -0.671662
Gh(H)     -0.910896     2.670637    -1.306306
Gh(O)     -0.927145    -2.816455     0.085393
Gh(H)     -0.124316    -3.201248    -0.375297
Gh(H)     -0.626505    -1.865791     0.240029
Gh(O)      0.340789    -1.534314    -2.302097
Gh(H)     -0.428489    -1.936195    -2.722286
Gh(H)      0.080620    -0.911681    -1.592949
Gh(O)      1.519278     2.030340     1.236737
Gh(H)      1.945345     2.457646     0.452984
Gh(H)      0.951977     1.348919     0.894026

units ang
no_reorient
no_com
symmetry c1
}

set {
basis        aug-cc-pVTZ
scf_type     df
}

energy("mp2")
--------------------------------------------------------------------------

    Molecular point group: c1

    Geometry (in Angstrom), charge = 0, multiplicity = 1:

       Center              X                  Y                   Z               Mass
    ------------   -----------------  -----------------  -----------------  -----------------
      Gh(F)           0.000000000000     0.000000000000     0.000000000000    18.998403162730
         O            2.576276000000    -1.171167000000     0.788022000000    15.994914619570
         H            1.776637000000    -0.888891000000     0.309615000000     1.007825032230
         H            2.425614000000    -0.738698000000     1.637671000000     1.007825032230
      Gh(O)          -1.663160000000     2.156415000000    -0.956164000000    15.994914619570
      Gh(H)          -1.185016000000     1.364115000000    -0.671662000000     1.007825032230
      Gh(H)          -0.910896000000     2.670637000000    -1.306306000000     1.007825032230
      Gh(O)          -0.927145000000    -2.816455000000     0.085393000000    15.994914619570
      Gh(H)          -0.124316000000    -3.201248000000    -0.375297000000     1.007825032230
      Gh(H)          -0.626505000000    -1.865791000000     0.240029000000     1.007825032230
      Gh(O)           0.340789000000    -1.534314000000    -2.302097000000    15.994914619570
      Gh(H)          -0.428489000000    -1.936195000000    -2.722286000000     1.007825032230
      Gh(H)           0.080620000000    -0.911681000000    -1.592949000000     1.007825032230
      Gh(O)           1.519278000000     2.030340000000     1.236737000000    15.994914619570
      Gh(H)           1.945345000000     2.457646000000     0.452984000000     1.007825032230
      Gh(H)           0.951977000000     1.348919000000     0.894026000000     1.007825032230

  Charge       = 0
  Multiplicity = 1
  Basis Set: AUG-CC-PVTZ
    Blend: AUG-CC-PVTZ
  Basis Set: (AUG-CC-PVTZ AUX)
    Blend: AUG-CC-PVTZ-JKFIT

    Orbital Energies [Eh]
    ---------------------

    Doubly Occupied:

       1A    -20.571182     2A     -1.350542     3A     -0.702404
       4A     -0.591286     5A     -0.510653

  @DF-RHF Final Energy:   -76.05885557097142

   => Energetics <=

    Nuclear Repulsion Energy =              9.0902011555997397
    One-Electron Energy =                -122.8459769011336533
    Two-Electron Energy =                  37.6969201745624858
    Total Energy =                        -76.0588555709714171
 Dipole X            :        -47.5076559           46.8887520           -0.6189039
 Dipole Y            :         21.2475215          -20.7811765            0.4663450
 Dipole Z            :        -15.3498760           15.5930033            0.2431273
 Magnitude           :                                                    0.8121765
  Basis Set: (AUG-CC-PVTZ AUX)
    Blend: AUG-CC-PVTZ-RI
	 Reference Energy          =     -76.0588555709714171 [Eh]
	 Singles Energy            =      -0.0000000000000000 [Eh]
	 Same-Spin Energy          =      -0.0687246283484558 [Eh]
	 Opposite-Spin Energy      =      -0.2168849690658531 [Eh]
	 Correlation Energy        =      -0.2856095974143090 [Eh]
	 Total Energy              =     -76.3444651683857245 [Eh]

	 ================> DF-SCS-MP2 Energies <==================
	-----------------------------------------------------------
	 SCS Same-Spin Scale       =       0.3333333333333333 [-]
	 SCS Opposite-Spin Scale   =       1.2000000000000000 [-]
	 SCS Same-Spin Energy      =      -0.0229082094494853 [Eh]
	 SCS Opposite-Spin Energy  =      -0.2602619628790238 [Eh]
	 SCS Correlation Energy    =      -0.2831701723285091 [Eh]
	 SCS Total Energy          =     -76.3420257432999279 [Eh]
	-----------------------------------------------------------

*** Psi4 exiting successfully. Buy a developer a beer!
