                               Psi4 1.8.2 release

  ==> Input File <==

--------------------------------------------------------------------------
MEMORY 60 GB

molecule dimer {
0 1
Gh(F)      0.000000     0.000000     0.000000
Gh(O)     -2.554885    -0.515321     0.758406
Gh(H)     -1.612284    -0.473038     0.582957
Gh(H)     -2.842041    -1.403277     1.084241
Gh(O)      1.083037     2.154867     1.385653
Gh(H)      0.609748     1.409713     0.882328
Gh(H)      1.632519     2.510959     0.665831
Gh(O)      0.426737    -2.496911    -0.665385
Gh(H)      0.303600    -3.137566     0.078614
Gh(H)     -0.052202    -1.707756    -0.340693
O         -1.104728     2.400067    -1.171868
H         -1.500405     1.941350    -1.947783
H         -0.886647     1.656492    -0.613653

units ang
no_reorient
no_com
symmetry c1
}

set {
basis        aug-cc-pVTZ
scf_type     df
}

energy("mp2")
--------------------------------------------------------------------------

    Molecular point group: c1

    Geometry (in Angstrom), charge = 0, multiplicity = 1:

       Center              X                  Y                   Z               Mass
    ------------   -----------------  -----------------  -----------------  -----------------
      Gh(F)           0.000000000000     0.000000000000     0.000000000000    18.998403162730
      Gh(O)          -2.554885000000    -0.515321000000     0.758406000000    15.994914619570
      Gh(H)          -1.612284000000    -0.473038000000     0.582957000000     1.007825032230
      Gh(H)          -2.842041000000    -1.403277000000     1.084241000000     1.007825032230
      Gh(O)           1.083037000000     2.154867000000     1.385653000000    15.994914619570
      Gh(H)           0.609748000000     1.409713000000     0.882328000000     1.007825032230
      Gh(H)           1.632519000000     2.510959000000     0.665831000000     1.007825032230
      Gh(O)           0.426737000000    -2.496911000000    -0.665385000000    15.994914619570
      Gh(H)           0.303600000000    -3.137566000000     0.078614000000     1.007825032230
      Gh(H)          -0.052202000000    -1.707756000000    -0.340693000000     1.007825032230
         O           -1.104728000000     2.400067000000    -1.171868000000    15.994914619570
         H           -1.500405000000     1.941350000000    -1.947783000000     1.007825032230
         H           -0.886647000000     1.656492000000    -0.613653000000     1.007825032230

  Charge       = 0
  Multiplicity = 1
  Basis Set: AUG-CC-PVTZ
    Blend: AUG-CC-PVTZ
  Basis Set: (AUG-CC-PVTZ AUX)
    Blend: AUG-CC-PVTZ-JKFIT

    Orbital Energies [Eh]
    ---------------------

    Doubly Occupied:

       1A    -20.570829     2A     -1.349945     3A     -0.704129
       4A     -0.589407     5A     -0.510395

  @DF-RHF Final Energy:   -76.05868295612426

   => Energetics <=

    Nuclear Repulsion Energy =              9.0870900955934086
    One-Electron Energy =                -122.8421326020191344
    Two-Electron Energy =                  37.6963595503014659
    Total Energy =                        -76.0586829561242581
 Dipole X            :         21.0981018          -21.2119414           -0.1138397
 Dipole Y            :        -43.8698058           43.0826905           -0.7871153
 Dipole Z            :         22.4194415          -22.5564891           -0.1370477
 Magnitude           :                                                    0.8070266
  Basis Set: (AUG-CC-PVTZ AUX)
    Blend: AUG-CC-PVTZ-RI
	 Reference Energy          =     -76.0586829561242581 [Eh]
	 Singles Energy            =      -0.0000000000000000 [Eh]
	 Same-Spin Energy          =      -0.0686986017332592 [Eh]
	 Opposite-Spin Energy      =      -0.2168347075059426 [Eh]
	 Correlation Energy        =      -0.2855333092392018 [Eh]
	 Total Energy              =     -76.3442162653634568 [Eh]

	 ================> DF-SCS-MP2 Energies <==================
	-----------------------------------------------------------
	 SCS Same-Spin Scale       =       0.3333333333333333 [-]
	 SCS Opposite-Spin Scale   =       1.2000000000000000 [-]
	 SCS Same-Spin Energy      =      -0.0228995339110864 [Eh]
	 SCS Opposite-Spin Energy  =      -0.2602016490071312 [Eh]
	 SCS Correlation Energy    =      -0.2831011829182176 [Eh]
	 SCS Total Energy          =     -76.3417841390424741 [Eh]
	-----------------------------------------------------------

*** Psi4 exiting successfully. Buy a developer a beer!
