                               Psi4 1.8.2 release

  ==> Input File <==

--------------------------------------------------------------------------
MEMORY 60 GB

molecule dimer {
-1 1
F          0.000000     0.000000     0.000000
O          0.165293     0.083255    -2.915176
H          0.664980    -0.212970    -2.135442
H          0.048059     1.049442    -2.946154
O          2.475389    -0.135408     1.309999
H          1.638586    -0.214168     0.812850
H          2.520190    -0.810723     1.984287
O         -0.309101    -2.782394     0.154485
H         -0.245961    -1.824650     0.054161
H         -1.220250    -2.823525     0.267269
O         -0.285980     0.810005     2.492737
H         -0.177233     0.310410     1.663910
H          0.145263     0.356847     3.231122
O         -2.747590     0.888238    -0.575196
H         -1.860637     0.738560    -0.236004
H         -3.372019     0.406963     0.065585
O          0.830527     2.959937    -0.256319
H          0.269201     2.193067    -0.063366
H          1.737656     2.830104     0.006673

units ang
no_reorient
no_com
symmetry c1
}

set {
basis        aug-cc-pVTZ
scf_type     df
}

energy("mp2")
--------------------------------------------------------------------------

    Molecular point group: c1

    Geometry (in Angstrom), charge = -1, multiplicity = 1:

       Center              X                  Y                   Z               Mass
    ------------   -----------------  -----------------  -----------------  -----------------
         F            0.000000000000     0.000000000000     0.000000000000    18.998403162730
         O            0.165293000000     0.083255000000    -2.915176000000    15.994914619570
         H            0.664980000000    -0.212970000000    -2.135442000000     1.007825032230
         H            0.048059000000     1.049442000000    -2.946154000000     1.007825032230
         O            2.475389000000    -0.135408000000     1.309999000000    15.994914619570
         H            1.638586000000    -0.214168000000     0.812850000000     1.007825032230
         H            2.520190000000    -0.810723000000     1.984287000000     1.007825032230
         O           -0.309101000000    -2.782394000000     0.154485000000    15.994914619570
         H           -0.245961000000    -1.824650000000     0.054161000000     1.007825032230
         H           -1.220250000000    -2.823525000000     0.267269000000     1.007825032230
         O           -0.285980000000     0.810005000000     2.492737000000    15.994914619570
         H           -0.177233000000     0.310410000000     1.663910000000     1.007825032230
         H            0.145263000000     0.356847000000     3.231122000000     1.007825032230
         O           -2.747590000000     0.888238000000    -0.575196000000    15.994914619570
         H           -1.860637000000     0.738560000000    -0.236004000000     1.007825032230
         H           -3.372019000000     0.406963000000     0.065585000000     1.007825032230
         O            0.830527000000     2.959937000000    -0.256319000000    15.994914619570
         H            0.269201000000     2.193067000000    -0.063366000000     1.007825032230
         H            1.737656000000     2.830104000000     0.006673000000     1.007825032230

  Charge       = -1
  Multiplicity = 1
  Basis Set: AUG-CC-PVTZ
    Blend: AUG-CC-PVTZ
  Basis Set: (AUG-CC-PVTZ AUX)
    Blend: AUG-CC-PVTZ-JKFIT

    Orbital Energies [Eh]
    ---------------------

    Doubly Occupied:

       1A    -26.006710     2A    -20.420402     3A    -20.413119
       4A    -20.411830     5A    -20.410094     6A    -20.408376
       7A    -20.401403     8A     -1.275018     9A     -1.216334
      10A     -1.197095    11A     -1.193410    12A     -1.187992
      13A     -1.183864    14A     -1.182201    15A     -0.581350
      16A     -0.580349    17A     -0.571123    18A     -0.566519
      19A     -0.562924    20A     -0.555469    21A     -0.460657
      22A     -0.439492    23A     -0.431479    24A     -0.422044
      25A     -0.420034    26A     -0.413268    27A     -0.369769
      28A     -0.368496    29A     -0.363840    30A     -0.361992
      31A     -0.360814    32A     -0.355904    33A     -0.354209
      34A     -0.344023    35A     -0.341562

  @DF-RHF Final Energy:  -555.91964887360439

   => Energetics <=

    Nuclear Repulsion Energy =            349.6588350467782789
    One-Electron Energy =               -1478.8906288935468183
    Two-Electron Energy =                 573.3121449731642087
    Total Energy =                       -555.9196488736043875
 Dipole X            :         -2.2903348            2.2225806           -0.0677542
 Dipole Y            :        -32.4415173           31.3475725           -1.0939448
 Dipole Z            :         -7.0994199            8.2942555            1.1948356
 Magnitude           :                                                    1.6214000
  Basis Set: (AUG-CC-PVTZ AUX)
    Blend: AUG-CC-PVTZ-RI
	 Reference Energy          =    -555.9196488736043875 [Eh]
	 Singles Energy            =      -0.0000000000000000 [Eh]
	 Same-Spin Energy          =      -0.5017177991972764 [Eh]
	 Opposite-Spin Energy      =      -1.5316727727478103 [Eh]
	 Correlation Energy        =      -2.0333905719450867 [Eh]
	 Total Energy              =    -557.9530394455495070 [Eh]

	 ================> DF-SCS-MP2 Energies <==================
	-----------------------------------------------------------
	 SCS Same-Spin Scale       =       0.3333333333333333 [-]
	 SCS Opposite-Spin Scale   =       1.2000000000000000 [-]
	 SCS Same-Spin Energy      =      -0.1672392663990921 [Eh]
	 SCS Opposite-Spin Energy  =      -1.8380073272973723 [Eh]
	 SCS Correlation Energy    =      -2.0052465936964645 [Eh]
	 SCS Total Energy          =    -557.9248954673008711 [Eh]
	-----------------------------------------------------------

*** Psi4 exiting successfully. Buy a developer a beer!
