                               Psi4 1.9 release

  ==> Input File <==

--------------------------------------------------------------------------
MEMORY 60 GB

molecule dimer {
-1 1
F      0.000000     0.000000     0.000000
--
0 1
O     -2.554885    -0.515321     0.758406
H     -1.612284    -0.473038     0.582957
H     -2.842041    -1.403277     1.084241
O      1.083037     2.154867     1.385653
H      0.609748     1.409713     0.882328
H      1.632519     2.510959     0.665831
O      0.426737    -2.496911    -0.665385
H      0.303600    -3.137566     0.078614
H     -0.052202    -1.707756    -0.340693
O     -1.104728     2.400067    -1.171868
H     -1.500405     1.941350    -1.947783
H     -0.886647     1.656492    -0.613653

units ang
no_reorient
no_com
symmetry c1
}

set {
basis        aug-cc-pVTZ
scf_type     df
}

energy("mp2", bsse_type="cp")
--------------------------------------------------------------------------

                               Psi4 1.9 release
    Molecular point group: c1
  Charge       = 0
  Multiplicity = 1
  Basis Set: AUG-CC-PVTZ
    Blend: AUG-CC-PVTZ
  Basis Set: (AUG-CC-PVTZ AUX)
    Blend: AUG-CC-PVTZ-JKFIT
  @DF-RHF Final Energy:  -304.21571720510531
    Total Energy =                       -304.2157172051053067
 Dipole X            :         40.6385577          -40.7168403           -0.0782826
 Dipole Y            :        -26.2820829           24.8281535           -1.4539294
 Dipole Z            :         -5.5015957            5.3787086           -0.1228871
 Magnitude           :                                                    1.4612119
  Basis Set: (AUG-CC-PVTZ AUX)
    Blend: AUG-CC-PVTZ-RI
	 Reference Energy          =    -304.2157172051053067 [Eh]
	 Singles Energy            =      -0.0000000000000000 [Eh]
	 Same-Spin Energy          =      -0.2768044852679444 [Eh]
	 Opposite-Spin Energy      =      -0.8713961524045244 [Eh]
	 Correlation Energy        =      -1.1482006376724687 [Eh]
	 Total Energy              =    -305.3639178427777665 [Eh]
	 SCS Total Energy          =    -305.3536607497467230 [Eh]
                               Psi4 1.9 release
    Molecular point group: c1
  Multiplicity = 1
  Basis Set: AUG-CC-PVTZ
    Blend: AUG-CC-PVTZ
  Basis Set: (AUG-CC-PVTZ AUX)
    Blend: AUG-CC-PVTZ-JKFIT
  @DF-RHF Final Energy:   -99.45106182822096
    Total Energy =                        -99.4510618282209578
  Basis Set: (AUG-CC-PVTZ AUX)
	 Singles Energy            =      -0.0000000000000000 [Eh]
	 Same-Spin Energy          =      -0.0820007875020001 [Eh]
	 Opposite-Spin Energy      =      -0.2296957078272630 [Eh]
	 Correlation Energy        =      -0.3116964953292631 [Eh]
	 Total Energy              =     -99.7627583235502158 [Eh]
	 SCS Total Energy          =     -99.7540302734476683 [Eh]
                               Psi4 1.9 release
    Molecular point group: c1

    Geometry (in Bohr), charge = -1, multiplicity = 1:

       Center              X                  Y                   Z               Mass
    ------------   -----------------  -----------------  -----------------  -----------------
         F            0.000000000000     0.000000000000     0.000000000000    18.998403162730
         O           -4.828032932040    -0.973815556697     1.433179631904    15.994914619570
         H           -3.046775196458    -0.893912266934     1.101629072919     1.007825032230
         H           -5.370679127322    -2.651809208154     2.048918543993     1.007825032230
         O            2.046643313737     4.072108466787     2.618504674919    15.994914619570
         H            1.152256725546     2.663971485498     1.667358272823     1.007825032230
         H            3.085013804606     4.745024822253     1.258238235840     1.007825032230
         O            0.806416057599    -4.718477949643    -1.257395417988    15.994914619570
         H            0.573720851689    -5.929140440548     0.148558929627     1.007825032230
         H           -0.098647483201    -3.227191129107    -0.643816462861     1.007825032230
         O           -2.087633363125     4.535469312749    -2.214509575188    15.994914619570
         H           -2.835354527268     3.668619813658    -3.680776421823     1.007825032230
         H           -1.675519999959     3.130316209012    -1.159636106066     1.007825032230

  Charge       = -1
  Multiplicity = 1
  Basis Set: AUG-CC-PVTZ
    Blend: AUG-CC-PVTZ
  Basis Set: (AUG-CC-PVTZ AUX)
    Blend: AUG-CC-PVTZ-JKFIT

    Orbital Energies [Eh]
    ---------------------

    Doubly Occupied:

       1A    -25.972669     2A    -20.400745     3A    -20.398559
       4A    -20.397860     5A    -20.385042     6A     -1.239965
       7A     -1.179988     8A     -1.177164     9A     -1.169992
      10A     -1.153910    11A     -0.565334    12A     -0.541806
      13A     -0.532073    14A     -0.507861    15A     -0.428929
      16A     -0.423510    17A     -0.412166    18A     -0.408937
      19A     -0.348922    20A     -0.344799    21A     -0.343859
      22A     -0.329597    23A     -0.327649    24A     -0.320472
      25A     -0.319169

  @DF-RHF Final Energy:  -403.77603034139423

   => Energetics <=

    Nuclear Repulsion Energy =            185.5020870327365401
    One-Electron Energy =                -939.2942751876703369
    Two-Electron Energy =                 350.0161578135395644
    Total Energy =                       -403.7760303413942324
 Dipole X            :         40.9719392          -40.7168403            0.2550989
 Dipole Y            :        -26.3706793           24.8281535           -1.5425259
 Dipole Z            :         -5.6177378            5.3787086           -0.2390293
 Magnitude           :                                                    1.5816436
  Basis Set: (AUG-CC-PVTZ AUX)
    Blend: AUG-CC-PVTZ-RI
	 Reference Energy          =    -403.7760303413942324 [Eh]
	 Singles Energy            =      -0.0000000000000000 [Eh]
	 Same-Spin Energy          =      -0.3637722957834916 [Eh]
	 Opposite-Spin Energy      =      -1.1006061999695014 [Eh]
	 Correlation Energy        =      -1.4643784957529928 [Eh]
	 Total Energy              =    -405.2404088371472426 [Eh]

	 ================> DF-SCS-MP2 Energies <==================
	-----------------------------------------------------------
	 SCS Same-Spin Scale       =       0.3333333333333333 [-]
	 SCS Opposite-Spin Scale   =       1.2000000000000000 [-]
	 SCS Same-Spin Energy      =      -0.1212574319278305 [Eh]
	 SCS Opposite-Spin Energy  =      -1.3207274399634017 [Eh]
	 SCS Correlation Energy    =      -1.4419848718912323 [Eh]
	 SCS Total Energy          =    -405.2180152132854687 [Eh]
	-----------------------------------------------------------

*** Psi4 exiting successfully. Buy a developer a beer!
