                               Psi4 1.9 release

  ==> Input File <==

--------------------------------------------------------------------------
MEMORY 60 GB

molecule dimer {
-1 1
F      0.000000     0.000000     0.000000
--
0 1
O     -1.599124     1.023579    -2.267830
H     -1.095004     0.566212    -1.620752
H     -2.338051     0.444325    -2.479137
O     -2.343446    -0.430618     1.559407
H     -1.488327    -0.319284     1.147914
H     -2.658215     0.396947     1.860568
O     -1.204583    -2.106759    -1.342688
H     -2.121289    -2.045476    -1.127318
H     -0.755091    -1.622357    -0.621682
O      1.437032    -1.588073     1.754632
H      0.692906    -2.061247     2.155763
H      1.089729    -0.888662     1.135098
O      2.067070    -0.264464    -2.019076
H      1.308735    -0.187229    -1.415516
H      2.146809     0.663476    -2.287155

units ang
no_reorient
no_com
symmetry c1
}

set {
basis        aug-cc-pVTZ
scf_type     df
}

energy("mp2", bsse_type="cp")
--------------------------------------------------------------------------

                               Psi4 1.9 release
    Molecular point group: c1
  Charge       = 0
  Multiplicity = 1
  Basis Set: AUG-CC-PVTZ
    Blend: AUG-CC-PVTZ
  Basis Set: (AUG-CC-PVTZ AUX)
    Blend: AUG-CC-PVTZ-JKFIT
  @DF-RHF Final Energy:  -380.28293560189076
    Total Energy =                       -380.2829356018907561
 Dipole X            :         33.4062129          -34.6995404           -1.2933275
 Dipole Y            :         61.4089183          -60.4409532            0.9679652
 Dipole Z            :         42.0296117          -41.1519177            0.8776940
 Magnitude           :                                                    1.8384775
  Basis Set: (AUG-CC-PVTZ AUX)
    Blend: AUG-CC-PVTZ-RI
	 Reference Energy          =    -380.2829356018907561 [Eh]
	 Singles Energy            =      -0.0000000000000000 [Eh]
	 Same-Spin Energy          =      -0.3447954439985851 [Eh]
	 Opposite-Spin Energy      =      -1.0844182259589361 [Eh]
	 Correlation Energy        =      -1.4292136699575213 [Eh]
	 Total Energy              =    -381.7121492718482614 [Eh]
	 SCS Total Energy          =    -381.6991692877076616 [Eh]
                               Psi4 1.9 release
    Molecular point group: c1
  Multiplicity = 1
  Basis Set: AUG-CC-PVTZ
    Blend: AUG-CC-PVTZ
  Basis Set: (AUG-CC-PVTZ AUX)
    Blend: AUG-CC-PVTZ-JKFIT
  @DF-RHF Final Energy:   -99.45109664025108
    Total Energy =                        -99.4510966402510803
  Basis Set: (AUG-CC-PVTZ AUX)
	 Singles Energy            =      -0.0000000000000000 [Eh]
	 Same-Spin Energy          =      -0.0820243677665532 [Eh]
	 Opposite-Spin Energy      =      -0.2298073073912695 [Eh]
	 Correlation Energy        =      -0.3118316751578227 [Eh]
	 Total Energy              =     -99.7629283154088995 [Eh]
	 SCS Total Energy          =     -99.7542068650427893 [Eh]
                               Psi4 1.9 release
    Molecular point group: c1

    Geometry (in Bohr), charge = -1, multiplicity = 1:

       Center              X                  Y                   Z               Mass
    ------------   -----------------  -----------------  -----------------  -----------------
         F            0.000000000000     0.000000000000     0.000000000000    18.998403162730
         O           -3.021906400647     1.934283977770    -4.285577599097    15.994914619570
         H           -2.069257666281     1.069985608948    -3.062777397288     1.007825032230
         H           -4.418276057353     0.839652560694    -4.684889957489     1.007825032230
         O           -4.428471129800    -0.813750084692     2.946852148122    15.994914619570
         H           -2.812530415124    -0.603359316241     2.169243075579     1.007825032230
         H           -5.023298332584     0.750121116322     3.515963957791     1.007825032230
         O           -2.276331965382    -3.981197522343    -2.537312591939    15.994914619570
         H           -4.008655242946    -3.865389436197    -2.130322276299     1.007825032230
         H           -1.426915189798    -3.065810407719    -1.174808717127     1.007825032230
         O            2.715596913519    -3.001023037234     3.315773930964    15.994914619570
         H            1.309402570686    -3.895192306922     4.073801661395     1.007825032230
         H            2.059289360969    -1.679327798102     2.145024345555     1.007825032230
         O            3.906196182150    -0.499764530043    -3.815500666485    15.994914619570
         H            2.473150720801    -0.353811532743    -2.674937566204     1.007825032230
         H            4.056881053668     1.253787930814    -4.322096556471     1.007825032230

  Charge       = -1
  Multiplicity = 1
  Basis Set: AUG-CC-PVTZ
    Blend: AUG-CC-PVTZ
  Basis Set: (AUG-CC-PVTZ AUX)
    Blend: AUG-CC-PVTZ-JKFIT

    Orbital Energies [Eh]
    ---------------------

    Doubly Occupied:

       1A    -25.990795     2A    -20.416478     3A    -20.406423
       4A    -20.403966     5A    -20.399948     6A    -20.394803
       7A     -1.255878     8A     -1.212708     9A     -1.199185
      10A     -1.192289    11A     -1.181581    12A     -1.167936
      13A     -0.594285    14A     -0.569694    15A     -0.558456
      16A     -0.547042    17A     -0.533962    18A     -0.442476
      19A     -0.437296    20A     -0.431632    21A     -0.429194
      22A     -0.414214    23A     -0.369082    24A     -0.360498
      25A     -0.353084    26A     -0.348585    27A     -0.345051
      28A     -0.342220    29A     -0.337132    30A     -0.334413

  @DF-RHF Final Energy:  -479.86281875607222

   => Energetics <=

    Nuclear Repulsion Energy =            264.9960030529820187
    One-Electron Energy =               -1203.7770271965268876
    Two-Electron Energy =                 458.9182053874726535
    Total Energy =                       -479.8628187560722154
 Dipole X            :         33.6327981          -34.6995404           -1.0667423
 Dipole Y            :         61.9362025          -60.4409532            1.4952494
 Dipole Z            :         42.1923582          -41.1519177            1.0404405
 Magnitude           :                                                    2.1109776
  Basis Set: (AUG-CC-PVTZ AUX)
    Blend: AUG-CC-PVTZ-RI
	 Reference Energy          =    -479.8628187560722154 [Eh]
	 Singles Energy            =      -0.0000000000000000 [Eh]
	 Same-Spin Energy          =      -0.4315478846056683 [Eh]
	 Opposite-Spin Energy      =      -1.3130144665599970 [Eh]
	 Correlation Energy        =      -1.7445623511656652 [Eh]
	 Total Energy              =    -481.6073811072378703 [Eh]

	 ================> DF-SCS-MP2 Energies <==================
	-----------------------------------------------------------
	 SCS Same-Spin Scale       =       0.3333333333333333 [-]
	 SCS Opposite-Spin Scale   =       1.2000000000000000 [-]
	 SCS Same-Spin Energy      =      -0.1438492948685561 [Eh]
	 SCS Opposite-Spin Energy  =      -1.5756173598719962 [Eh]
	 SCS Correlation Energy    =      -1.7194666547405524 [Eh]
	 SCS Total Energy          =    -481.5822854108127444 [Eh]
	-----------------------------------------------------------

*** Psi4 exiting successfully. Buy a developer a beer!
