                               Psi4 1.8.2 release

  ==> Input File <==

--------------------------------------------------------------------------
MEMORY 60 GB

molecule dimer {
-1 1
F          0.000000     0.000000     0.000000
Gh(O)      2.087812    -2.235654    -0.550394
Gh(H)      2.423601    -2.899671    -1.150602
Gh(H)      2.190875    -1.369155    -0.929071
Gh(O)      0.415489    -2.119119     2.070246
Gh(H)      0.482112    -2.996680     1.655893
Gh(H)      0.091966    -1.548601     1.375700
Gh(O)     -0.730006     1.647225     1.930793
Gh(H)     -0.321923     1.147844     1.188363
Gh(H)     -1.196312     2.375028     1.563056
Gh(O)      2.361343     1.061093     0.316103
Gh(H)      2.099324     1.707318     0.957043
Gh(H)      1.582739     0.514063     0.417266
Gh(O)      0.150347     2.501610    -1.052386
Gh(H)      0.710848     3.031242    -0.538799
Gh(H)      0.364562     1.585555    -0.826675
Gh(O)     -1.585915    -0.182921    -2.257821
Gh(H)     -0.843561    -0.199899    -1.588493
Gh(H)     -2.094702    -1.043463    -2.099459

units ang
no_reorient
no_com
symmetry c1
}

set {
basis        aug-cc-pVTZ
scf_type     df
}

energy("mp2")
--------------------------------------------------------------------------

    Molecular point group: c1

    Geometry (in Angstrom), charge = -1, multiplicity = 1:

       Center              X                  Y                   Z               Mass
    ------------   -----------------  -----------------  -----------------  -----------------
         F            0.000000000000     0.000000000000     0.000000000000    18.998403162730
      Gh(O)           2.087812000000    -2.235654000000    -0.550394000000    15.994914619570
      Gh(H)           2.423601000000    -2.899671000000    -1.150602000000     1.007825032230
      Gh(H)           2.190875000000    -1.369155000000    -0.929071000000     1.007825032230
      Gh(O)           0.415489000000    -2.119119000000     2.070246000000    15.994914619570
      Gh(H)           0.482112000000    -2.996680000000     1.655893000000     1.007825032230
      Gh(H)           0.091966000000    -1.548601000000     1.375700000000     1.007825032230
      Gh(O)          -0.730006000000     1.647225000000     1.930793000000    15.994914619570
      Gh(H)          -0.321923000000     1.147844000000     1.188363000000     1.007825032230
      Gh(H)          -1.196312000000     2.375028000000     1.563056000000     1.007825032230
      Gh(O)           2.361343000000     1.061093000000     0.316103000000    15.994914619570
      Gh(H)           2.099324000000     1.707318000000     0.957043000000     1.007825032230
      Gh(H)           1.582739000000     0.514063000000     0.417266000000     1.007825032230
      Gh(O)           0.150347000000     2.501610000000    -1.052386000000    15.994914619570
      Gh(H)           0.710848000000     3.031242000000    -0.538799000000     1.007825032230
      Gh(H)           0.364562000000     1.585555000000    -0.826675000000     1.007825032230
      Gh(O)          -1.585915000000    -0.182921000000    -2.257821000000    15.994914619570
      Gh(H)          -0.843561000000    -0.199899000000    -1.588493000000     1.007825032230
      Gh(H)          -2.094702000000    -1.043463000000    -2.099459000000     1.007825032230

  Charge       = -1
  Multiplicity = 1
  Basis Set: AUG-CC-PVTZ
    Blend: AUG-CC-PVTZ
  Basis Set: (AUG-CC-PVTZ AUX)
    Blend: AUG-CC-PVTZ-JKFIT

    Orbital Energies [Eh]
    ---------------------

    Doubly Occupied:

       1A    -25.833559     2A     -1.075866     3A     -0.180908
       4A     -0.180905     5A     -0.180872

  @DF-RHF Final Energy:   -99.45115625529581

   => Energetics <=

    Nuclear Repulsion Energy =              0.0000000000000000
    One-Electron Energy =                -143.9980850695174865
    Two-Electron Energy =                  44.5469288142216868
    Total Energy =                        -99.4511562552957997
 Dipole X            :          0.0000727            0.0000000            0.0000727
 Dipole Y            :          0.0001891            0.0000000            0.0001891
 Dipole Z            :          0.0000075            0.0000000            0.0000075
 Magnitude           :                                                    0.0002028
  Basis Set: (AUG-CC-PVTZ AUX)
    Blend: AUG-CC-PVTZ-RI
	 Reference Energy          =     -99.4511562552958139 [Eh]
	 Singles Energy            =      -0.0000000000000000 [Eh]
	 Same-Spin Energy          =      -0.0820957493559956 [Eh]
	 Opposite-Spin Energy      =      -0.2305665641090733 [Eh]
	 Correlation Energy        =      -0.3126623134650690 [Eh]
	 Total Energy              =     -99.7638185687608825 [Eh]

	 ================> DF-SCS-MP2 Energies <==================
	-----------------------------------------------------------
	 SCS Same-Spin Scale       =       0.3333333333333333 [-]
	 SCS Opposite-Spin Scale   =       1.2000000000000000 [-]
	 SCS Same-Spin Energy      =      -0.0273652497853319 [Eh]
	 SCS Opposite-Spin Energy  =      -0.2766798769308880 [Eh]
	 SCS Correlation Energy    =      -0.3040451267162199 [Eh]
	 SCS Total Energy          =     -99.7552013820120322 [Eh]
	-----------------------------------------------------------

*** Psi4 exiting successfully. Buy a developer a beer!
