                               Psi4 1.8.2 release

  ==> Input File <==

--------------------------------------------------------------------------
MEMORY 60 GB

molecule dimer {
0 1
Gh(F)      0.000000     0.000000     0.000000
Gh(O)     -0.594284    -0.634372    -2.562911
Gh(H)     -0.497083    -0.431183    -1.650200
Gh(H)     -1.006656    -1.548570    -2.604579
Gh(O)     -1.938246     2.105808    -0.043070
Gh(H)     -1.889287     2.428560    -0.934253
Gh(H)     -1.298126     1.315153    -0.005089
O          2.410889    -1.157179    -0.315817
H          2.529967    -1.073339    -1.271904
H          1.596731    -0.690599    -0.141440
Gh(O)     -2.082039    -1.493757     1.208536
Gh(H)     -1.903126    -2.455205     1.406995
Gh(H)     -1.292528    -1.067209     0.789863

units ang
no_reorient
no_com
symmetry c1
}

set {
basis        aug-cc-pVTZ
scf_type     df
}

energy("mp2")
--------------------------------------------------------------------------

    Molecular point group: c1

    Geometry (in Angstrom), charge = 0, multiplicity = 1:

       Center              X                  Y                   Z               Mass
    ------------   -----------------  -----------------  -----------------  -----------------
      Gh(F)           0.000000000000     0.000000000000     0.000000000000    18.998403162730
      Gh(O)          -0.594284000000    -0.634372000000    -2.562911000000    15.994914619570
      Gh(H)          -0.497083000000    -0.431183000000    -1.650200000000     1.007825032230
      Gh(H)          -1.006656000000    -1.548570000000    -2.604579000000     1.007825032230
      Gh(O)          -1.938246000000     2.105808000000    -0.043070000000    15.994914619570
      Gh(H)          -1.889287000000     2.428560000000    -0.934253000000     1.007825032230
      Gh(H)          -1.298126000000     1.315153000000    -0.005089000000     1.007825032230
         O            2.410889000000    -1.157179000000    -0.315817000000    15.994914619570
         H            2.529967000000    -1.073339000000    -1.271904000000     1.007825032230
         H            1.596731000000    -0.690599000000    -0.141440000000     1.007825032230
      Gh(O)          -2.082039000000    -1.493757000000     1.208536000000    15.994914619570
      Gh(H)          -1.903126000000    -2.455205000000     1.406995000000     1.007825032230
      Gh(H)          -1.292528000000    -1.067209000000     0.789863000000     1.007825032230

  Charge       = 0
  Multiplicity = 1
  Basis Set: AUG-CC-PVTZ
    Blend: AUG-CC-PVTZ
  Basis Set: (AUG-CC-PVTZ AUX)
    Blend: AUG-CC-PVTZ-JKFIT

    Orbital Energies [Eh]
    ---------------------

    Doubly Occupied:

       1A    -20.567946     2A     -1.352072     3A     -0.715025
       4A     -0.585052     5A     -0.510175

  @DF-RHF Final Energy:   -76.06031993482017

   => Energetics <=

    Nuclear Repulsion Energy =              9.1621439505384998
    One-Electron Energy =                -122.9843856807669766
    Two-Electron Energy =                  37.7619217954083197
    Total Energy =                        -76.0603199348201713
 Dipole X            :        -44.7081405           44.2456885           -0.4624520
 Dipole Y            :         21.1931171          -20.8273708            0.3657463
 Dipole Z            :          6.9287509           -7.4452942           -0.5165432
 Magnitude           :                                                    0.7838681
  Basis Set: (AUG-CC-PVTZ AUX)
    Blend: AUG-CC-PVTZ-RI
	 Reference Energy          =     -76.0603199348201713 [Eh]
	 Singles Energy            =      -0.0000000000000000 [Eh]
	 Same-Spin Energy          =      -0.0684681103888597 [Eh]
	 Opposite-Spin Energy      =      -0.2162688936422890 [Eh]
	 Correlation Energy        =      -0.2847370040311487 [Eh]
	 Total Energy              =     -76.3450569388513145 [Eh]

	 ================> DF-SCS-MP2 Energies <==================
	-----------------------------------------------------------
	 SCS Same-Spin Scale       =       0.3333333333333333 [-]
	 SCS Opposite-Spin Scale   =       1.2000000000000000 [-]
	 SCS Same-Spin Energy      =      -0.0228227034629532 [Eh]
	 SCS Opposite-Spin Energy  =      -0.2595226723707468 [Eh]
	 SCS Correlation Energy    =      -0.2823453758337001 [Eh]
	 SCS Total Energy          =     -76.3426653106538708 [Eh]
	-----------------------------------------------------------

*** Psi4 exiting successfully. Buy a developer a beer!
