                               Psi4 1.8.2 release

  ==> Input File <==

--------------------------------------------------------------------------
MEMORY 60 GB

molecule dimer {
-1 1
F          0.000000     0.000000     0.000000
O          2.576276    -1.171167     0.788022
H          1.776637    -0.888891     0.309615
H          2.425614    -0.738698     1.637671
O         -1.663160     2.156415    -0.956164
H         -1.185016     1.364115    -0.671662
H         -0.910896     2.670637    -1.306306
O         -0.927145    -2.816455     0.085393
H         -0.124316    -3.201248    -0.375297
H         -0.626505    -1.865791     0.240029
O          0.340789    -1.534314    -2.302097
H         -0.428489    -1.936195    -2.722286
H          0.080620    -0.911681    -1.592949
O          1.519278     2.030340     1.236737
H          1.945345     2.457646     0.452984
H          0.951977     1.348919     0.894026

units ang
no_reorient
no_com
symmetry c1
}

set {
basis        aug-cc-pVTZ
scf_type     df
}

energy("mp2")
--------------------------------------------------------------------------

    Molecular point group: c1

    Geometry (in Angstrom), charge = -1, multiplicity = 1:

       Center              X                  Y                   Z               Mass
    ------------   -----------------  -----------------  -----------------  -----------------
         F            0.000000000000     0.000000000000     0.000000000000    18.998403162730
         O            2.576276000000    -1.171167000000     0.788022000000    15.994914619570
         H            1.776637000000    -0.888891000000     0.309615000000     1.007825032230
         H            2.425614000000    -0.738698000000     1.637671000000     1.007825032230
         O           -1.663160000000     2.156415000000    -0.956164000000    15.994914619570
         H           -1.185016000000     1.364115000000    -0.671662000000     1.007825032230
         H           -0.910896000000     2.670637000000    -1.306306000000     1.007825032230
         O           -0.927145000000    -2.816455000000     0.085393000000    15.994914619570
         H           -0.124316000000    -3.201248000000    -0.375297000000     1.007825032230
         H           -0.626505000000    -1.865791000000     0.240029000000     1.007825032230
         O            0.340789000000    -1.534314000000    -2.302097000000    15.994914619570
         H           -0.428489000000    -1.936195000000    -2.722286000000     1.007825032230
         H            0.080620000000    -0.911681000000    -1.592949000000     1.007825032230
         O            1.519278000000     2.030340000000     1.236737000000    15.994914619570
         H            1.945345000000     2.457646000000     0.452984000000     1.007825032230
         H            0.951977000000     1.348919000000     0.894026000000     1.007825032230

  Charge       = -1
  Multiplicity = 1
  Basis Set: AUG-CC-PVTZ
    Blend: AUG-CC-PVTZ
  Basis Set: (AUG-CC-PVTZ AUX)
    Blend: AUG-CC-PVTZ-JKFIT

    Orbital Energies [Eh]
    ---------------------

    Doubly Occupied:

       1A    -25.998109     2A    -20.414648     3A    -20.413787
       4A    -20.409382     5A    -20.407087     6A    -20.407011
       7A     -1.261521     8A     -1.195443     9A     -1.194734
      10A     -1.189358    11A     -1.187786    12A     -1.169021
      13A     -0.574197    14A     -0.565367    15A     -0.548576
      16A     -0.542905    17A     -0.526256    18A     -0.449100
      19A     -0.440585    20A     -0.436282    21A     -0.429200
      22A     -0.420145    23A     -0.364511    24A     -0.361471
      25A     -0.358482    26A     -0.353985    27A     -0.352494
      28A     -0.348646    29A     -0.345920    30A     -0.337107

  @DF-RHF Final Energy:  -479.86024119430772

   => Energetics <=

    Nuclear Repulsion Energy =            260.6121078586126600
    One-Electron Energy =               -1194.9384695556614133
    Two-Electron Energy =                 454.4661205027409778
    Total Energy =                       -479.8602411943077186
 Dipole X            :        -35.3979898           35.2873756           -0.1106142
 Dipole Y            :         24.1407608          -23.3997889            0.7409719
 Dipole Z            :         22.9306023          -23.2796250           -0.3490227
 Magnitude           :                                                    0.8264937
  Basis Set: (AUG-CC-PVTZ AUX)
    Blend: AUG-CC-PVTZ-RI
	 Reference Energy          =    -479.8602411943077186 [Eh]
	 Singles Energy            =      -0.0000000000000000 [Eh]
	 Same-Spin Energy          =      -0.4330427123922816 [Eh]
	 Opposite-Spin Energy      =      -1.3173227730741059 [Eh]
	 Correlation Energy        =      -1.7503654854663875 [Eh]
	 Total Energy              =    -481.6106066797740937 [Eh]

	 ================> DF-SCS-MP2 Energies <==================
	-----------------------------------------------------------
	 SCS Same-Spin Scale       =       0.3333333333333333 [-]
	 SCS Opposite-Spin Scale   =       1.2000000000000000 [-]
	 SCS Same-Spin Energy      =      -0.1443475707974272 [Eh]
	 SCS Opposite-Spin Energy  =      -1.5807873276889270 [Eh]
	 SCS Correlation Energy    =      -1.7251348984863542 [Eh]
	 SCS Total Energy          =    -481.5853760927940925 [Eh]
	-----------------------------------------------------------

*** Psi4 exiting successfully. Buy a developer a beer!
