                               Psi4 1.8.2 release

  ==> Input File <==

--------------------------------------------------------------------------
MEMORY 60 GB

molecule dimer {
0 1
Gh(F)      0.000000     0.000000     0.000000
Gh(O)      0.845562    -0.845142    -2.624376
Gh(H)      0.611386    -0.330636    -3.393450
Gh(H)      0.621838    -0.297746    -1.856041
Gh(O)     -1.432887    -0.201644     2.286168
Gh(H)     -0.868654    -0.102721     1.510265
Gh(H)     -2.122142     0.377979     2.070333
Gh(O)      2.434561    -1.422362     0.673959
Gh(H)      1.818504    -0.731838     0.351774
Gh(H)      2.614628    -2.112905    -0.060771
O          1.046966     1.802363     1.828080
H          0.810625     1.228982     2.579401
H          0.730030     1.314833     1.056170
Gh(O)     -1.110680    -2.734785    -0.820393
Gh(H)     -0.634442    -1.868649    -0.819997
Gh(H)     -1.235246    -2.898655    -1.759953
Gh(O)     -1.419169     2.399701    -0.513219
Gh(H)     -0.863137     1.660037    -0.332687
Gh(H)     -1.453857     2.952655     0.363362

units ang
no_reorient
no_com
symmetry c1
}

set {
basis        aug-cc-pVTZ
scf_type     df
}

energy("mp2")
--------------------------------------------------------------------------

    Molecular point group: c1

    Geometry (in Angstrom), charge = 0, multiplicity = 1:

       Center              X                  Y                   Z               Mass
    ------------   -----------------  -----------------  -----------------  -----------------
      Gh(F)           0.000000000000     0.000000000000     0.000000000000    18.998403162730
      Gh(O)           0.845562000000    -0.845142000000    -2.624376000000    15.994914619570
      Gh(H)           0.611386000000    -0.330636000000    -3.393450000000     1.007825032230
      Gh(H)           0.621838000000    -0.297746000000    -1.856041000000     1.007825032230
      Gh(O)          -1.432887000000    -0.201644000000     2.286168000000    15.994914619570
      Gh(H)          -0.868654000000    -0.102721000000     1.510265000000     1.007825032230
      Gh(H)          -2.122142000000     0.377979000000     2.070333000000     1.007825032230
      Gh(O)           2.434561000000    -1.422362000000     0.673959000000    15.994914619570
      Gh(H)           1.818504000000    -0.731838000000     0.351774000000     1.007825032230
      Gh(H)           2.614628000000    -2.112905000000    -0.060771000000     1.007825032230
         O            1.046966000000     1.802363000000     1.828080000000    15.994914619570
         H            0.810625000000     1.228982000000     2.579401000000     1.007825032230
         H            0.730030000000     1.314833000000     1.056170000000     1.007825032230
      Gh(O)          -1.110680000000    -2.734785000000    -0.820393000000    15.994914619570
      Gh(H)          -0.634442000000    -1.868649000000    -0.819997000000     1.007825032230
      Gh(H)          -1.235246000000    -2.898655000000    -1.759953000000     1.007825032230
      Gh(O)          -1.419169000000     2.399701000000    -0.513219000000    15.994914619570
      Gh(H)          -0.863137000000     1.660037000000    -0.332687000000     1.007825032230
      Gh(H)          -1.453857000000     2.952655000000     0.363362000000     1.007825032230

  Charge       = 0
  Multiplicity = 1
  Basis Set: AUG-CC-PVTZ
    Blend: AUG-CC-PVTZ
  Basis Set: (AUG-CC-PVTZ AUX)
    Blend: AUG-CC-PVTZ-JKFIT

    Orbital Energies [Eh]
    ---------------------

    Doubly Occupied:

       1A    -20.569628     2A     -1.347295     3A     -0.709366
       4A     -0.583606     5A     -0.509447

  @DF-RHF Final Energy:   -76.05949134964996

   => Energetics <=

    Nuclear Repulsion Energy =              9.0722995887684696
    One-Electron Energy =                -122.8248937530944147
    Two-Electron Energy =                  37.6931028146759743
    Total Energy =                        -76.0594913496499601
 Dipole X            :        -19.1034911           18.7392480           -0.3642431
 Dipole Y            :        -32.7534141           32.0548933           -0.6985208
 Dipole Z            :        -34.5222140           34.5067978           -0.0154162
 Magnitude           :                                                    0.7879353
  Basis Set: (AUG-CC-PVTZ AUX)
    Blend: AUG-CC-PVTZ-RI
	 Reference Energy          =     -76.0594913496499601 [Eh]
	 Singles Energy            =      -0.0000000000000000 [Eh]
	 Same-Spin Energy          =      -0.0686714885313427 [Eh]
	 Opposite-Spin Energy      =      -0.2170986638469684 [Eh]
	 Correlation Energy        =      -0.2857701523783111 [Eh]
	 Total Energy              =     -76.3452615020282650 [Eh]

	 ================> DF-SCS-MP2 Energies <==================
	-----------------------------------------------------------
	 SCS Same-Spin Scale       =       0.3333333333333333 [-]
	 SCS Opposite-Spin Scale   =       1.2000000000000000 [-]
	 SCS Same-Spin Energy      =      -0.0228904961771142 [Eh]
	 SCS Opposite-Spin Energy  =      -0.2605183966163621 [Eh]
	 SCS Correlation Energy    =      -0.2834088927934763 [Eh]
	 SCS Total Energy          =     -76.3429002424434344 [Eh]
	-----------------------------------------------------------

*** Psi4 exiting successfully. Buy a developer a beer!
