                               Psi4 1.8.2 release

  ==> Input File <==

--------------------------------------------------------------------------
MEMORY 60 GB

molecule dimer {
-1 1
F          0.000000     0.000000     0.000000
Gh(O)     -1.254088    -1.142537    -2.417176
Gh(H)     -0.631148    -1.581451    -3.028934
Gh(H)     -0.778164    -0.740928    -1.674863
Gh(O)     -0.057219     2.426383    -1.313720
Gh(H)     -0.057407     1.609916    -0.812182
Gh(H)     -0.845317     2.970306    -1.027585
Gh(O)      2.516034     0.501269    -0.681349
Gh(H)      2.742378    -0.372026    -0.952918
Gh(H)      1.589097     0.394194    -0.467607
Gh(O)     -1.246877     0.634837     2.442815
Gh(H)     -0.668058    -0.102871     2.736022
Gh(H)     -0.910013     0.825774     1.599682
Gh(O)     -0.108124    -2.872909    -0.185625
Gh(H)     -0.484207    -3.076891     0.701130
Gh(H)     -0.163962    -1.865782    -0.238802

units ang
no_reorient
no_com
symmetry c1
}

set {
basis        aug-cc-pVTZ
scf_type     df
}

energy("mp2")
--------------------------------------------------------------------------

    Molecular point group: c1

    Geometry (in Angstrom), charge = -1, multiplicity = 1:

       Center              X                  Y                   Z               Mass
    ------------   -----------------  -----------------  -----------------  -----------------
         F            0.000000000000     0.000000000000     0.000000000000    18.998403162730
      Gh(O)          -1.254088000000    -1.142537000000    -2.417176000000    15.994914619570
      Gh(H)          -0.631148000000    -1.581451000000    -3.028934000000     1.007825032230
      Gh(H)          -0.778164000000    -0.740928000000    -1.674863000000     1.007825032230
      Gh(O)          -0.057219000000     2.426383000000    -1.313720000000    15.994914619570
      Gh(H)          -0.057407000000     1.609916000000    -0.812182000000     1.007825032230
      Gh(H)          -0.845317000000     2.970306000000    -1.027585000000     1.007825032230
      Gh(O)           2.516034000000     0.501269000000    -0.681349000000    15.994914619570
      Gh(H)           2.742378000000    -0.372026000000    -0.952918000000     1.007825032230
      Gh(H)           1.589097000000     0.394194000000    -0.467607000000     1.007825032230
      Gh(O)          -1.246877000000     0.634837000000     2.442815000000    15.994914619570
      Gh(H)          -0.668058000000    -0.102871000000     2.736022000000     1.007825032230
      Gh(H)          -0.910013000000     0.825774000000     1.599682000000     1.007825032230
      Gh(O)          -0.108124000000    -2.872909000000    -0.185625000000    15.994914619570
      Gh(H)          -0.484207000000    -3.076891000000     0.701130000000     1.007825032230
      Gh(H)          -0.163962000000    -1.865782000000    -0.238802000000     1.007825032230

  Charge       = -1
  Multiplicity = 1
  Basis Set: AUG-CC-PVTZ
    Blend: AUG-CC-PVTZ
  Basis Set: (AUG-CC-PVTZ AUX)
    Blend: AUG-CC-PVTZ-JKFIT

    Orbital Energies [Eh]
    ---------------------

    Doubly Occupied:

       1A    -25.833559     2A     -1.075889     3A     -0.180925
       4A     -0.180912     5A     -0.180886

  @DF-RHF Final Energy:   -99.45111652582376

   => Energetics <=

    Nuclear Repulsion Energy =              0.0000000000000000
    One-Electron Energy =                -143.9978844147072721
    Two-Electron Energy =                  44.5467678888835223
    Total Energy =                        -99.4511165258237497
 Dipole X            :          0.0000451            0.0000000            0.0000451
 Dipole Y            :          0.0000030            0.0000000            0.0000030
 Dipole Z            :         -0.0001948            0.0000000           -0.0001948
 Magnitude           :                                                    0.0002000
  Basis Set: (AUG-CC-PVTZ AUX)
    Blend: AUG-CC-PVTZ-RI
	 Reference Energy          =     -99.4511165258237639 [Eh]
	 Singles Energy            =      -0.0000000000000000 [Eh]
	 Same-Spin Energy          =      -0.0820540477453619 [Eh]
	 Opposite-Spin Energy      =      -0.2300896267035862 [Eh]
	 Correlation Energy        =      -0.3121436744489481 [Eh]
	 Total Energy              =     -99.7632602002727111 [Eh]

	 ================> DF-SCS-MP2 Energies <==================
	-----------------------------------------------------------
	 SCS Same-Spin Scale       =       0.3333333333333333 [-]
	 SCS Opposite-Spin Scale   =       1.2000000000000000 [-]
	 SCS Same-Spin Energy      =      -0.0273513492484540 [Eh]
	 SCS Opposite-Spin Energy  =      -0.2761075520443034 [Eh]
	 SCS Correlation Energy    =      -0.3034589012927574 [Eh]
	 SCS Total Energy          =     -99.7545754271165208 [Eh]
	-----------------------------------------------------------

*** Psi4 exiting successfully. Buy a developer a beer!
