                               Psi4 1.9 release

  ==> Input File <==

--------------------------------------------------------------------------
MEMORY 60 GB

molecule dimer {
-1 1
F      0.000000     0.000000     0.000000
--
0 1
O     -0.580884    -1.648700     2.195241
H     -1.020660    -1.208330     2.917618
H     -0.253605    -1.019050     1.524375
O      2.537363    -0.724230     0.693189
H      1.626552    -0.593909     0.467081
H      2.844385    -1.514828     0.175338
O     -2.966082     0.085030    -0.257782
H     -2.046228     0.047434     0.053577
H     -3.144712    -0.828874    -0.456325
O      0.685142     2.385594    -1.181765
H      0.345072     1.543477    -0.827825
H      1.560160     2.607602    -0.897901
O      0.514673     1.946164     2.026000
H      1.317660     1.741717     2.515660
H      0.573925     1.491257     1.189736
O     -0.034012    -0.439230    -2.881590
H     -0.368618    -0.315122    -1.979070
H     -0.049734    -1.427287    -2.983019

units ang
no_reorient
no_com
symmetry c1
}

set {
basis        aug-cc-pVTZ
scf_type     df
}

energy("mp2", bsse_type="cp")
--------------------------------------------------------------------------

                               Psi4 1.9 release
    Molecular point group: c1
  Charge       = 0
  Multiplicity = 1
  Basis Set: AUG-CC-PVTZ
    Blend: AUG-CC-PVTZ
  Basis Set: (AUG-CC-PVTZ AUX)
    Blend: AUG-CC-PVTZ-JKFIT
  @DF-RHF Final Energy:  -456.33145263951786
    Total Energy =                       -456.3314526395178632
 Dipole X            :         -4.2095692            4.9771550            0.7675858
 Dipole Y            :        -26.9096766           25.2488405           -1.6608361
 Dipole Z            :        -11.8339956           12.1803979            0.3464024
 Magnitude           :                                                    1.8621383
  Basis Set: (AUG-CC-PVTZ AUX)
    Blend: AUG-CC-PVTZ-RI
	 Reference Energy          =    -456.3314526395178632 [Eh]
	 Singles Energy            =      -0.0000000000000000 [Eh]
	 Same-Spin Energy          =      -0.4147587997200868 [Eh]
	 Opposite-Spin Energy      =      -1.3036402760681947 [Eh]
	 Correlation Energy        =      -1.7183990757882814 [Eh]
	 Total Energy              =    -458.0498517153061471 [Eh]
	 SCS Total Energy          =    -458.0340739040397011 [Eh]
                               Psi4 1.9 release
    Molecular point group: c1
  Multiplicity = 1
  Basis Set: AUG-CC-PVTZ
    Blend: AUG-CC-PVTZ
  Basis Set: (AUG-CC-PVTZ AUX)
    Blend: AUG-CC-PVTZ-JKFIT
  @DF-RHF Final Energy:   -99.45115514319708
    Total Energy =                        -99.4511551431970986
  Basis Set: (AUG-CC-PVTZ AUX)
	 Singles Energy            =      -0.0000000000000000 [Eh]
	 Same-Spin Energy          =      -0.0820796914476376 [Eh]
	 Opposite-Spin Energy      =      -0.2302817847071562 [Eh]
	 Correlation Energy        =      -0.3123614761547938 [Eh]
	 Total Energy              =     -99.7635166193518756 [Eh]
	 SCS Total Energy          =     -99.7548531819948892 [Eh]
                               Psi4 1.9 release
    Molecular point group: c1

    Geometry (in Bohr), charge = -1, multiplicity = 1:

       Center              X                  Y                   Z               Mass
    ------------   -----------------  -----------------  -----------------  -----------------
         F            0.000000000000     0.000000000000     0.000000000000    18.998403162730
         O           -1.097711670660    -3.115591463042     4.148404269376    15.994914619570
         H           -1.928767867210    -2.283412769174     5.513498958706     1.007825032230
         H           -0.479243994047    -1.925725408148     2.880651262495     1.007825032230
         O            4.794921150870    -1.368596351840     1.309937363180    15.994914619570
         H            3.073737808816    -1.122325353445     0.882655168405     1.007825032230
         H            5.375108645360    -2.862610047175     0.331340799386     1.007825032230
         O           -5.605082645650     0.160683412448    -0.487137380073    15.994914619570
         H           -3.866810510243     0.089637269035     0.101245856624     1.007825032230
         H           -5.942644423441    -1.566344852513    -0.862329274200     1.007825032230
         O            1.294730737048     4.508119306535    -2.233212194652    15.994914619570
         H            0.652091573564     2.916748810943    -1.564362529807     1.007825032230
         H            2.948275111894     4.927653624196    -1.696786977775     1.007825032230
         O            0.972591014168     3.677716955226     3.828585130178    15.994914619570
         H            2.490016526471     3.291368118054     4.753908424769     1.007825032230
         H            1.084561066553     2.818067312672     2.248275201598     1.007825032230
         O           -0.064273364979    -0.830024406085    -5.445415905858    15.994914619570
         H           -0.696587064914    -0.595494276107    -3.739900283110     1.007825032230
         H           -0.093983639124    -2.697181532426    -5.637088937037     1.007825032230

  Charge       = -1
  Multiplicity = 1
  Basis Set: AUG-CC-PVTZ
    Blend: AUG-CC-PVTZ
  Basis Set: (AUG-CC-PVTZ AUX)
    Blend: AUG-CC-PVTZ-JKFIT

    Orbital Energies [Eh]
    ---------------------

    Doubly Occupied:

       1A    -26.011867     2A    -20.420704     3A    -20.417504
       4A    -20.414247     5A    -20.409985     6A    -20.407425
       7A    -20.387746     8A     -1.280934     9A     -1.203999
      10A     -1.198026    11A     -1.195138    12A     -1.192952
      13A     -1.190654    14A     -1.175170    15A     -0.582212
      16A     -0.575689    17A     -0.569283    18A     -0.565802
      19A     -0.561311    20A     -0.551154    21A     -0.447527
      22A     -0.440660    23A     -0.438248    24A     -0.431565
      25A     -0.426314    26A     -0.406950    27A     -0.374941
      28A     -0.370859    29A     -0.363937    30A     -0.361493
      31A     -0.361342    32A     -0.356768    33A     -0.352957
      34A     -0.348577    35A     -0.334185

  @DF-RHF Final Energy:  -555.92542307327778

   => Energetics <=

    Nuclear Repulsion Energy =            353.2428903183335933
    One-Electron Energy =               -1486.0803690047955570
    Two-Electron Energy =                 576.9120556131841795
    Total Energy =                       -555.9254230732777842
 Dipole X            :         -4.3842223            4.9771550            0.5929327
 Dipole Y            :        -27.0337683           25.2488405           -1.7849278
 Dipole Z            :        -11.9598148           12.1803979            0.2205831
 Magnitude           :                                                    1.8937247
  Basis Set: (AUG-CC-PVTZ AUX)
    Blend: AUG-CC-PVTZ-RI
	 Reference Energy          =    -555.9254230732777842 [Eh]
	 Singles Energy            =      -0.0000000000000000 [Eh]
	 Same-Spin Energy          =      -0.5023611127409865 [Eh]
	 Opposite-Spin Energy      =      -1.5327436256929898 [Eh]
	 Correlation Energy        =      -2.0351047384339762 [Eh]
	 Total Energy              =    -557.9605278117118132 [Eh]

	 ================> DF-SCS-MP2 Energies <==================
	-----------------------------------------------------------
	 SCS Same-Spin Scale       =       0.3333333333333333 [-]
	 SCS Opposite-Spin Scale   =       1.2000000000000000 [-]
	 SCS Same-Spin Energy      =      -0.1674537042469955 [Eh]
	 SCS Opposite-Spin Energy  =      -1.8392923508315877 [Eh]
	 SCS Correlation Energy    =      -2.0067460550785832 [Eh]
	 SCS Total Energy          =    -557.9321691283563496 [Eh]
	-----------------------------------------------------------

*** Psi4 exiting successfully. Buy a developer a beer!
