                               Psi4 1.9 release

  ==> Input File <==

--------------------------------------------------------------------------
MEMORY 60 GB

molecule dimer {
-1 1
F      0.000000     0.000000     0.000000
--
0 1
O      1.085350    -0.452967    -2.498595
H      0.740226    -0.290867    -1.628710
H      1.712584     0.278333    -2.718517
O      2.724779     1.025508     1.044409
H      1.842746     0.753869     0.654207
H      2.827630     0.510970     1.864390
O      0.347464     2.793856    -0.347316
H      0.359101     1.813032    -0.464677
H      1.260776     3.131718    -0.519961
O     -0.522190    -0.709648     2.712844
H     -1.491139    -0.927418     2.859256
H     -0.468495    -0.514250     1.793049
O      1.416063    -2.457372     0.057633
H      0.659838    -3.068519     0.149532
H      0.955921    -1.620980    -0.132078
O     -2.262354    -0.569114    -1.491409
H     -1.655329    -0.029416    -0.956922
H     -2.394828    -1.281723    -0.858167

units ang
no_reorient
no_com
symmetry c1
}

set {
basis        aug-cc-pVTZ
scf_type     df
}

energy("mp2", bsse_type="cp")
--------------------------------------------------------------------------

                               Psi4 1.9 release
    Molecular point group: c1
  Charge       = 0
  Multiplicity = 1
  Basis Set: AUG-CC-PVTZ
    Blend: AUG-CC-PVTZ
  Basis Set: (AUG-CC-PVTZ AUX)
    Blend: AUG-CC-PVTZ-JKFIT
  @DF-RHF Final Energy:  -456.31959579966758
    Total Energy =                       -456.3195957996675816
 Dipole X            :        -51.0618013           50.3837400           -0.6780613
 Dipole Y            :          7.5967181           -7.9427967           -0.3460786
 Dipole Z            :          8.4897704           -7.8198190            0.6699514
 Magnitude           :                                                    1.0140870
  Basis Set: (AUG-CC-PVTZ AUX)
    Blend: AUG-CC-PVTZ-RI
	 Reference Energy          =    -456.3195957996675816 [Eh]
	 Singles Energy            =      -0.0000000000000000 [Eh]
	 Same-Spin Energy          =      -0.4161561100274316 [Eh]
	 Opposite-Spin Energy      =      -1.3083721094678455 [Eh]
	 Correlation Energy        =      -1.7245282194952771 [Eh]
	 Total Energy              =    -458.0441240191628367 [Eh]
	 SCS Total Energy          =    -458.0283610343714713 [Eh]
                               Psi4 1.9 release
    Molecular point group: c1
  Multiplicity = 1
  Basis Set: AUG-CC-PVTZ
    Blend: AUG-CC-PVTZ
  Basis Set: (AUG-CC-PVTZ AUX)
    Blend: AUG-CC-PVTZ-JKFIT
  @DF-RHF Final Energy:   -99.45115117333103
    Total Energy =                        -99.4511511733310272
  Basis Set: (AUG-CC-PVTZ AUX)
	 Singles Energy            =      -0.0000000000000000 [Eh]
	 Same-Spin Energy          =      -0.0820811292867317 [Eh]
	 Opposite-Spin Energy      =      -0.2302637460182471 [Eh]
	 Correlation Energy        =      -0.3123448753049787 [Eh]
	 Total Energy              =     -99.7634960486360001 [Eh]
	 SCS Total Energy          =     -99.7548280449818350 [Eh]
                               Psi4 1.9 release
    Molecular point group: c1

    Geometry (in Bohr), charge = -1, multiplicity = 1:

       Center              X                  Y                   Z               Mass
    ------------   -----------------  -----------------  -----------------  -----------------
         F            0.000000000000     0.000000000000     0.000000000000    18.998403162730
         O            2.051014250266    -0.855983573870    -4.721660248438    15.994914619570
         H            1.398824410943    -0.549658968934    -3.077815837794     1.007825032230
         H            3.236314726841     0.525973141677    -5.137252597401     1.007825032230
         O            5.149086062399     1.937929259466     1.973646972963    15.994914619570
         H            3.482285258783     1.424605944473     1.236272059357     1.007825032230
         H            5.343446284128     0.965593358325     3.523186491042     1.007825032230
         O            0.656611798456     5.279622673967    -0.656332118990    15.994914619570
         H            0.678602541378     3.426133936691    -0.878112266799     1.007825032230
         H            2.382521345550     5.918089322167    -0.982583885919     1.007825032230
         O           -0.986796085453    -1.341040365479     5.126532181092    15.994914619570
         H           -2.817844324989    -1.752566023820     5.403210762572     1.007825032230
         H           -0.885327241146    -0.971791660017     3.388371539526     1.007825032230
         O            2.675971246394    -4.643760068369     0.108910585789    15.994914619570
         H            1.246913107170    -5.798660520764     0.282574526992     1.007825032230
         H            1.806428887574    -3.063208254845    -0.249591247198     1.007825032230
         O           -4.275229458834    -1.075469594164    -2.818354551043    15.994914619570
         H           -3.128118457528    -0.055588183706    -1.808320503425     1.007825032230
         H           -4.525569037578    -2.422105438700    -1.621700599906     1.007825032230

  Charge       = -1
  Multiplicity = 1
  Basis Set: AUG-CC-PVTZ
    Blend: AUG-CC-PVTZ
  Basis Set: (AUG-CC-PVTZ AUX)
    Blend: AUG-CC-PVTZ-JKFIT

    Orbital Energies [Eh]
    ---------------------

    Doubly Occupied:

       1A    -26.016895     2A    -20.425731     3A    -20.421856
       4A    -20.416353     5A    -20.413397     6A    -20.408529
       7A    -20.403619     8A     -1.284866     9A     -1.204483
      10A     -1.198279    11A     -1.191346    12A     -1.188311
      13A     -1.184898    14A     -1.184211    15A     -0.572735
      16A     -0.565859    17A     -0.564253    18A     -0.557696
      19A     -0.547986    20A     -0.541752    21A     -0.453686
      22A     -0.447082    23A     -0.439235    24A     -0.434942
      25A     -0.430736    26A     -0.421543    27A     -0.376693
      28A     -0.373844    29A     -0.368818    30A     -0.366684
      31A     -0.363485    32A     -0.356605    33A     -0.353743
      34A     -0.350550    35A     -0.341943

  @DF-RHF Final Energy:  -555.91830827961894

   => Energetics <=

    Nuclear Repulsion Energy =            352.5580949572446912
    One-Electron Energy =               -1484.6075055564344893
    Two-Electron Energy =                 576.1311023195708003
    Total Energy =                       -555.9183082796189410
 Dipole X            :        -51.3620546           50.3837400           -0.9783146
 Dipole Y            :          7.7065022           -7.9427967           -0.2362945
 Dipole Z            :          8.6208000           -7.8198190            0.8009810
 Magnitude           :                                                    1.2862757
  Basis Set: (AUG-CC-PVTZ AUX)
    Blend: AUG-CC-PVTZ-RI
	 Reference Energy          =    -555.9183082796189410 [Eh]
	 Singles Energy            =      -0.0000000000000000 [Eh]
	 Same-Spin Energy          =      -0.5035880822870524 [Eh]
	 Opposite-Spin Energy      =      -1.5370485902638862 [Eh]
	 Correlation Energy        =      -2.0406366725509386 [Eh]
	 Total Energy              =    -557.9589449521698725 [Eh]

	 ================> DF-SCS-MP2 Energies <==================
	-----------------------------------------------------------
	 SCS Same-Spin Scale       =       0.3333333333333333 [-]
	 SCS Opposite-Spin Scale   =       1.2000000000000000 [-]
	 SCS Same-Spin Energy      =      -0.1678626940956841 [Eh]
	 SCS Opposite-Spin Energy  =      -1.8444583083166632 [Eh]
	 SCS Correlation Energy    =      -2.0123210024123472 [Eh]
	 SCS Total Energy          =    -557.9306292820313047 [Eh]
	-----------------------------------------------------------

*** Psi4 exiting successfully. Buy a developer a beer!
