                               Psi4 1.8.2 release

  ==> Input File <==

--------------------------------------------------------------------------
MEMORY 60 GB

molecule dimer {
-1 1
F          0.000000     0.000000     0.000000
O         -1.051876     0.397188    -2.664526
H         -0.485530    -0.258494    -3.098839
H         -0.784316     0.374530    -1.766571
O         -0.548980    -2.889172    -0.876141
H         -0.402675    -1.956604    -0.860721
H          0.114136    -3.180631    -1.543791
O          0.945837     1.626921     2.124282
H          0.821758     1.095363     1.318237
H          0.313788     1.263948     2.804817
O          2.426736     0.456517    -1.371097
H          2.283500     1.268623    -1.938041
H          1.590392     0.293672    -0.864561
O         -2.021952    -0.732353     1.474827
H         -2.053094    -1.698175     1.306604
H         -1.260753    -0.350683     0.971493
O          2.023011    -1.613709     1.503423
H          1.169042    -1.189349     1.339393
H          1.933657    -2.225891     2.263621

units ang
no_reorient
no_com
symmetry c1
}

set {
basis        aug-cc-pVTZ
scf_type     df
}

energy("mp2")
--------------------------------------------------------------------------

    Molecular point group: c1

    Geometry (in Angstrom), charge = -1, multiplicity = 1:

       Center              X                  Y                   Z               Mass
    ------------   -----------------  -----------------  -----------------  -----------------
         F            0.000000000000     0.000000000000     0.000000000000    18.998403162730
         O           -1.051876000000     0.397188000000    -2.664526000000    15.994914619570
         H           -0.485530000000    -0.258494000000    -3.098839000000     1.007825032230
         H           -0.784316000000     0.374530000000    -1.766571000000     1.007825032230
         O           -0.548980000000    -2.889172000000    -0.876141000000    15.994914619570
         H           -0.402675000000    -1.956604000000    -0.860721000000     1.007825032230
         H            0.114136000000    -3.180631000000    -1.543791000000     1.007825032230
         O            0.945837000000     1.626921000000     2.124282000000    15.994914619570
         H            0.821758000000     1.095363000000     1.318237000000     1.007825032230
         H            0.313788000000     1.263948000000     2.804817000000     1.007825032230
         O            2.426736000000     0.456517000000    -1.371097000000    15.994914619570
         H            2.283500000000     1.268623000000    -1.938041000000     1.007825032230
         H            1.590392000000     0.293672000000    -0.864561000000     1.007825032230
         O           -2.021952000000    -0.732353000000     1.474827000000    15.994914619570
         H           -2.053094000000    -1.698175000000     1.306604000000     1.007825032230
         H           -1.260753000000    -0.350683000000     0.971493000000     1.007825032230
         O            2.023011000000    -1.613709000000     1.503423000000    15.994914619570
         H            1.169042000000    -1.189349000000     1.339393000000     1.007825032230
         H            1.933657000000    -2.225891000000     2.263621000000     1.007825032230

  Charge       = -1
  Multiplicity = 1
  Basis Set: AUG-CC-PVTZ
    Blend: AUG-CC-PVTZ
  Basis Set: (AUG-CC-PVTZ AUX)
    Blend: AUG-CC-PVTZ-JKFIT

    Orbital Energies [Eh]
    ---------------------

    Doubly Occupied:

       1A    -26.016702     2A    -20.437338     3A    -20.421693
       4A    -20.420190     5A    -20.411821     6A    -20.407013
       7A    -20.393874     8A     -1.286200     9A     -1.221619
      10A     -1.212076    11A     -1.197393    12A     -1.177796
      13A     -1.175933    14A     -1.167650    15A     -0.580030
      16A     -0.578736    17A     -0.573774    18A     -0.558425
      19A     -0.549144    20A     -0.543457    21A     -0.464845
      22A     -0.450484    23A     -0.433393    24A     -0.432123
      25A     -0.425268    26A     -0.413972    27A     -0.384759
      28A     -0.376550    29A     -0.371590    30A     -0.367549
      31A     -0.364316    32A     -0.354239    33A     -0.349667
      34A     -0.345163    35A     -0.337621

  @DF-RHF Final Energy:  -555.92454226164159

   => Energetics <=

    Nuclear Repulsion Energy =            352.1690300582919235
    One-Electron Energy =               -1483.7823298574317050
    Two-Electron Energy =                 575.6887575374983044
    Total Energy =                       -555.9245422616415908
 Dipole X            :        -33.1538736           32.9230221           -0.2308515
 Dipole Y            :         53.5629419          -54.0472160           -0.4842741
 Dipole Z            :         -3.1394538            2.7548144           -0.3846394
 Magnitude           :                                                    0.6601221
  Basis Set: (AUG-CC-PVTZ AUX)
    Blend: AUG-CC-PVTZ-RI
	 Reference Energy          =    -555.9245422616415908 [Eh]
	 Singles Energy            =      -0.0000000000000000 [Eh]
	 Same-Spin Energy          =      -0.5031761481730040 [Eh]
	 Opposite-Spin Energy      =      -1.5358822656353162 [Eh]
	 Correlation Energy        =      -2.0390584138083203 [Eh]
	 Total Energy              =    -557.9636006754499249 [Eh]

	 ================> DF-SCS-MP2 Energies <==================
	-----------------------------------------------------------
	 SCS Same-Spin Scale       =       0.3333333333333333 [-]
	 SCS Opposite-Spin Scale   =       1.2000000000000000 [-]
	 SCS Same-Spin Energy      =      -0.1677253827243347 [Eh]
	 SCS Opposite-Spin Energy  =      -1.8430587187623793 [Eh]
	 SCS Correlation Energy    =      -2.0107841014867138 [Eh]
	 SCS Total Energy          =    -557.9353263631282971 [Eh]
	-----------------------------------------------------------

*** Psi4 exiting successfully. Buy a developer a beer!
