                               Psi4 1.8.2 release

  ==> Input File <==

--------------------------------------------------------------------------
MEMORY 60 GB

molecule dimer {
0 1
Gh(F)      0.000000     0.000000     0.000000
Gh(O)     -1.757669     1.731762    -1.188806
Gh(H)     -1.054100     1.222666    -0.807146
Gh(H)     -2.431703     1.051578    -1.257114
Gh(O)     -0.820887    -1.641481    -2.008204
Gh(H)     -0.237360    -2.357330    -2.347688
Gh(H)     -0.248955    -1.123146    -1.330694
Gh(O)     -0.048245    -2.492875     1.400940
Gh(H)     -0.330918    -3.382914     1.097712
Gh(H)     -0.433577    -1.797270     0.832638
Gh(O)     -0.132776     0.799660     2.598069
Gh(H)      0.795625     0.856029     2.802210
Gh(H)     -0.046890     0.411235     1.712879
O          1.613949     1.493049    -1.711417
H          1.268428     1.014021    -0.937188
H          2.504434     1.668752    -1.471379

units ang
no_reorient
no_com
symmetry c1
}

set {
basis        aug-cc-pVTZ
scf_type     df
}

energy("mp2")
--------------------------------------------------------------------------

    Molecular point group: c1

    Geometry (in Angstrom), charge = 0, multiplicity = 1:

       Center              X                  Y                   Z               Mass
    ------------   -----------------  -----------------  -----------------  -----------------
      Gh(F)           0.000000000000     0.000000000000     0.000000000000    18.998403162730
      Gh(O)          -1.757669000000     1.731762000000    -1.188806000000    15.994914619570
      Gh(H)          -1.054100000000     1.222666000000    -0.807146000000     1.007825032230
      Gh(H)          -2.431703000000     1.051578000000    -1.257114000000     1.007825032230
      Gh(O)          -0.820887000000    -1.641481000000    -2.008204000000    15.994914619570
      Gh(H)          -0.237360000000    -2.357330000000    -2.347688000000     1.007825032230
      Gh(H)          -0.248955000000    -1.123146000000    -1.330694000000     1.007825032230
      Gh(O)          -0.048245000000    -2.492875000000     1.400940000000    15.994914619570
      Gh(H)          -0.330918000000    -3.382914000000     1.097712000000     1.007825032230
      Gh(H)          -0.433577000000    -1.797270000000     0.832638000000     1.007825032230
      Gh(O)          -0.132776000000     0.799660000000     2.598069000000    15.994914619570
      Gh(H)           0.795625000000     0.856029000000     2.802210000000     1.007825032230
      Gh(H)          -0.046890000000     0.411235000000     1.712879000000     1.007825032230
         O            1.613949000000     1.493049000000    -1.711417000000    15.994914619570
         H            1.268428000000     1.014021000000    -0.937188000000     1.007825032230
         H            2.504434000000     1.668752000000    -1.471379000000     1.007825032230

  Charge       = 0
  Multiplicity = 1
  Basis Set: AUG-CC-PVTZ
    Blend: AUG-CC-PVTZ
  Basis Set: (AUG-CC-PVTZ AUX)
    Blend: AUG-CC-PVTZ-JKFIT

    Orbital Energies [Eh]
    ---------------------

    Doubly Occupied:

       1A    -20.567569     2A     -1.355422     3A     -0.715479
       4A     -0.587894     5A     -0.510881

  @DF-RHF Final Energy:   -76.05994923009565

   => Energetics <=

    Nuclear Repulsion Energy =              9.2098754061540653
    One-Electron Energy =                -123.0651564453367968
    Two-Electron Energy =                  37.7953318090870738
    Total Energy =                        -76.0599492300956541
 Dipole X            :        -31.1625053           31.5290486            0.3665433
 Dipole Y            :        -27.8397447           27.6413358           -0.1984089
 Dipole Z            :         31.0949707          -30.4244073            0.6705633
 Magnitude           :                                                    0.7895412
  Basis Set: (AUG-CC-PVTZ AUX)
    Blend: AUG-CC-PVTZ-RI
	 Reference Energy          =     -76.0599492300956541 [Eh]
	 Singles Energy            =      -0.0000000000000000 [Eh]
	 Same-Spin Energy          =      -0.0684083368967642 [Eh]
	 Opposite-Spin Energy      =      -0.2158560860522889 [Eh]
	 Correlation Energy        =      -0.2842644229490531 [Eh]
	 Total Energy              =     -76.3442136530447044 [Eh]

	 ================> DF-SCS-MP2 Energies <==================
	-----------------------------------------------------------
	 SCS Same-Spin Scale       =       0.3333333333333333 [-]
	 SCS Opposite-Spin Scale   =       1.2000000000000000 [-]
	 SCS Same-Spin Energy      =      -0.0228027789655881 [Eh]
	 SCS Opposite-Spin Energy  =      -0.2590273032627467 [Eh]
	 SCS Correlation Energy    =      -0.2818300822283348 [Eh]
	 SCS Total Energy          =     -76.3417793123239932 [Eh]
	-----------------------------------------------------------

*** Psi4 exiting successfully. Buy a developer a beer!
