                               Psi4 1.8.2 release

  ==> Input File <==

--------------------------------------------------------------------------
MEMORY 60 GB

molecule dimer {
0 1
Gh(F)      0.000000     0.000000     0.000000
Gh(O)      0.845562    -0.845142    -2.624376
Gh(H)      0.611386    -0.330636    -3.393450
Gh(H)      0.621838    -0.297746    -1.856041
Gh(O)     -1.432887    -0.201644     2.286168
Gh(H)     -0.868654    -0.102721     1.510265
Gh(H)     -2.122142     0.377979     2.070333
O          2.434561    -1.422362     0.673959
H          1.818504    -0.731838     0.351774
H          2.614628    -2.112905    -0.060771
Gh(O)      1.046966     1.802363     1.828080
Gh(H)      0.810625     1.228982     2.579401
Gh(H)      0.730030     1.314833     1.056170
Gh(O)     -1.110680    -2.734785    -0.820393
Gh(H)     -0.634442    -1.868649    -0.819997
Gh(H)     -1.235246    -2.898655    -1.759953
Gh(O)     -1.419169     2.399701    -0.513219
Gh(H)     -0.863137     1.660037    -0.332687
Gh(H)     -1.453857     2.952655     0.363362

units ang
no_reorient
no_com
symmetry c1
}

set {
basis        aug-cc-pVTZ
scf_type     df
}

energy("mp2")
--------------------------------------------------------------------------

    Molecular point group: c1

    Geometry (in Angstrom), charge = 0, multiplicity = 1:

       Center              X                  Y                   Z               Mass
    ------------   -----------------  -----------------  -----------------  -----------------
      Gh(F)           0.000000000000     0.000000000000     0.000000000000    18.998403162730
      Gh(O)           0.845562000000    -0.845142000000    -2.624376000000    15.994914619570
      Gh(H)           0.611386000000    -0.330636000000    -3.393450000000     1.007825032230
      Gh(H)           0.621838000000    -0.297746000000    -1.856041000000     1.007825032230
      Gh(O)          -1.432887000000    -0.201644000000     2.286168000000    15.994914619570
      Gh(H)          -0.868654000000    -0.102721000000     1.510265000000     1.007825032230
      Gh(H)          -2.122142000000     0.377979000000     2.070333000000     1.007825032230
         O            2.434561000000    -1.422362000000     0.673959000000    15.994914619570
         H            1.818504000000    -0.731838000000     0.351774000000     1.007825032230
         H            2.614628000000    -2.112905000000    -0.060771000000     1.007825032230
      Gh(O)           1.046966000000     1.802363000000     1.828080000000    15.994914619570
      Gh(H)           0.810625000000     1.228982000000     2.579401000000     1.007825032230
      Gh(H)           0.730030000000     1.314833000000     1.056170000000     1.007825032230
      Gh(O)          -1.110680000000    -2.734785000000    -0.820393000000    15.994914619570
      Gh(H)          -0.634442000000    -1.868649000000    -0.819997000000     1.007825032230
      Gh(H)          -1.235246000000    -2.898655000000    -1.759953000000     1.007825032230
      Gh(O)          -1.419169000000     2.399701000000    -0.513219000000    15.994914619570
      Gh(H)          -0.863137000000     1.660037000000    -0.332687000000     1.007825032230
      Gh(H)          -1.453857000000     2.952655000000     0.363362000000     1.007825032230

  Charge       = 0
  Multiplicity = 1
  Basis Set: AUG-CC-PVTZ
    Blend: AUG-CC-PVTZ
  Basis Set: (AUG-CC-PVTZ AUX)
    Blend: AUG-CC-PVTZ-JKFIT

    Orbital Energies [Eh]
    ---------------------

    Doubly Occupied:

       1A    -20.571663     2A     -1.328165     3A     -0.704150
       4A     -0.564817     5A     -0.504920

  @DF-RHF Final Energy:   -76.05247544630996

   => Energetics <=

    Nuclear Repulsion Energy =              8.7749026397297225
    One-Electron Energy =                -122.3073211955814514
    Two-Electron Energy =                  37.4799431095417788
    Total Energy =                        -76.0524754463099555
 Dipole X            :        -45.4729236           45.1826336           -0.2902901
 Dipole Y            :         26.8844148          -26.8787822            0.0056325
 Dipole Z            :        -11.4335936           10.7386994           -0.6948942
 Magnitude           :                                                    0.7531122
  Basis Set: (AUG-CC-PVTZ AUX)
    Blend: AUG-CC-PVTZ-RI
	 Reference Energy          =     -76.0524754463099555 [Eh]
	 Singles Energy            =      -0.0000000000000000 [Eh]
	 Same-Spin Energy          =      -0.0691006781183528 [Eh]
	 Opposite-Spin Energy      =      -0.2180574200503227 [Eh]
	 Correlation Energy        =      -0.2871580981686755 [Eh]
	 Total Energy              =     -76.3396335444786303 [Eh]

	 ================> DF-SCS-MP2 Energies <==================
	-----------------------------------------------------------
	 SCS Same-Spin Scale       =       0.3333333333333333 [-]
	 SCS Opposite-Spin Scale   =       1.2000000000000000 [-]
	 SCS Same-Spin Energy      =      -0.0230335593727843 [Eh]
	 SCS Opposite-Spin Energy  =      -0.2616689040603872 [Eh]
	 SCS Correlation Energy    =      -0.2847024634331715 [Eh]
	 SCS Total Energy          =     -76.3371779097431329 [Eh]
	-----------------------------------------------------------

*** Psi4 exiting successfully. Buy a developer a beer!
