                               Psi4 1.8.2 release

  ==> Input File <==

--------------------------------------------------------------------------
MEMORY 60 GB

molecule dimer {
0 1
Gh(F)      0.000000     0.000000     0.000000
Gh(O)      2.858282    -0.833213     0.651091
Gh(H)      3.399293     0.024160     0.566205
Gh(H)      1.903206    -0.625238     0.585710
Gh(O)      1.868433     2.058308    -1.208021
Gh(H)      2.540721     2.007336    -0.483762
Gh(H)      1.227009     1.397810    -1.025747
O         -0.032310    -2.129156    -1.895246
H          0.717469    -2.702061    -1.661178
H         -0.051575    -1.419248    -1.207236
Gh(O)     -2.451498    -1.582454    -0.217801
Gh(H)     -1.706112    -0.991466    -0.104451
Gh(H)     -2.028729    -2.422132     0.060201
Gh(O)     -1.886662     1.914792    -0.671064
Gh(H)     -1.332695     2.697518    -0.516387
Gh(H)     -1.209928     1.217135    -0.609328
Gh(O)      0.158118    -2.574331     1.157629
Gh(H)      0.034132    -1.637920     1.237985
Gh(H)     -0.064963    -2.865203     2.037544

units ang
no_reorient
no_com
symmetry c1
}

set {
basis        aug-cc-pVTZ
scf_type     df
}

energy("mp2")
--------------------------------------------------------------------------

    Molecular point group: c1

    Geometry (in Angstrom), charge = 0, multiplicity = 1:

       Center              X                  Y                   Z               Mass
    ------------   -----------------  -----------------  -----------------  -----------------
      Gh(F)           0.000000000000     0.000000000000     0.000000000000    18.998403162730
      Gh(O)           2.858282000000    -0.833213000000     0.651091000000    15.994914619570
      Gh(H)           3.399293000000     0.024160000000     0.566205000000     1.007825032230
      Gh(H)           1.903206000000    -0.625238000000     0.585710000000     1.007825032230
      Gh(O)           1.868433000000     2.058308000000    -1.208021000000    15.994914619570
      Gh(H)           2.540721000000     2.007336000000    -0.483762000000     1.007825032230
      Gh(H)           1.227009000000     1.397810000000    -1.025747000000     1.007825032230
         O           -0.032310000000    -2.129156000000    -1.895246000000    15.994914619570
         H            0.717469000000    -2.702061000000    -1.661178000000     1.007825032230
         H           -0.051575000000    -1.419248000000    -1.207236000000     1.007825032230
      Gh(O)          -2.451498000000    -1.582454000000    -0.217801000000    15.994914619570
      Gh(H)          -1.706112000000    -0.991466000000    -0.104451000000     1.007825032230
      Gh(H)          -2.028729000000    -2.422132000000     0.060201000000     1.007825032230
      Gh(O)          -1.886662000000     1.914792000000    -0.671064000000    15.994914619570
      Gh(H)          -1.332695000000     2.697518000000    -0.516387000000     1.007825032230
      Gh(H)          -1.209928000000     1.217135000000    -0.609328000000     1.007825032230
      Gh(O)           0.158118000000    -2.574331000000     1.157629000000    15.994914619570
      Gh(H)           0.034132000000    -1.637920000000     1.237985000000     1.007825032230
      Gh(H)          -0.064963000000    -2.865203000000     2.037544000000     1.007825032230

  Charge       = 0
  Multiplicity = 1
  Basis Set: AUG-CC-PVTZ
    Blend: AUG-CC-PVTZ
  Basis Set: (AUG-CC-PVTZ AUX)
    Blend: AUG-CC-PVTZ-JKFIT

    Orbital Energies [Eh]
    ---------------------

    Doubly Occupied:

       1A    -20.570528     2A     -1.341035     3A     -0.707359
       4A     -0.578061     5A     -0.508084

  @DF-RHF Final Energy:   -76.05808858635942

   => Energetics <=

    Nuclear Repulsion Energy =              8.9744479612888401
    One-Electron Energy =                -122.6549350616965626
    Two-Electron Energy =                  37.6223985140483066
    Total Energy =                        -76.0580885863594176
 Dipole X            :         -0.2880693            0.7699009            0.4818316
 Dipole Y            :         40.0645395          -39.9763190            0.0882204
 Dipole Z            :         34.6782964          -34.0724839            0.6058125
 Magnitude           :                                                    0.7790721
  Basis Set: (AUG-CC-PVTZ AUX)
    Blend: AUG-CC-PVTZ-RI
	 Reference Energy          =     -76.0580885863594176 [Eh]
	 Singles Energy            =      -0.0000000000000000 [Eh]
	 Same-Spin Energy          =      -0.0688204290693837 [Eh]
	 Opposite-Spin Energy      =      -0.2176108151748103 [Eh]
	 Correlation Energy        =      -0.2864312442441941 [Eh]
	 Total Energy              =     -76.3445198306036161 [Eh]

	 ================> DF-SCS-MP2 Energies <==================
	-----------------------------------------------------------
	 SCS Same-Spin Scale       =       0.3333333333333333 [-]
	 SCS Opposite-Spin Scale   =       1.2000000000000000 [-]
	 SCS Same-Spin Energy      =      -0.0229401430231279 [Eh]
	 SCS Opposite-Spin Energy  =      -0.2611329782097724 [Eh]
	 SCS Correlation Energy    =      -0.2840731212329003 [Eh]
	 SCS Total Energy          =     -76.3421617075923109 [Eh]
	-----------------------------------------------------------

*** Psi4 exiting successfully. Buy a developer a beer!
