                               Psi4 1.8.2 release

  ==> Input File <==

--------------------------------------------------------------------------
MEMORY 60 GB

molecule dimer {
0 1
Gh(F)      0.000000     0.000000     0.000000
Gh(O)      0.242114    -1.452934     2.415504
Gh(H)     -0.616381    -1.882187     2.541181
Gh(H)      0.305655    -0.919337     1.625439
Gh(O)      0.723027     0.126597    -2.933588
Gh(H)      0.475233     0.093507    -2.011106
Gh(H)      1.577772    -0.349467    -3.059852
O         -3.014078     0.047971    -0.335833
H         -3.042120     0.986298    -0.534262
H         -2.130844    -0.132734    -0.089201
Gh(O)      2.661578    -0.504624    -0.408960
Gh(H)      3.011063    -0.602591     0.481752
Gh(H)      1.722111    -0.375198    -0.373612
Gh(O)      1.830655     1.719823     1.752473
Gh(H)      2.368893     0.936770     1.814979
Gh(H)      1.174412     1.527972     1.038808
Gh(O)     -0.230721    -2.491145    -1.068143
Gh(H)      0.708270    -2.537811    -1.376508
Gh(H)     -0.245774    -1.611418    -0.675802

units ang
no_reorient
no_com
symmetry c1
}

set {
basis        aug-cc-pVTZ
scf_type     df
}

energy("mp2")
--------------------------------------------------------------------------

    Molecular point group: c1

    Geometry (in Angstrom), charge = 0, multiplicity = 1:

       Center              X                  Y                   Z               Mass
    ------------   -----------------  -----------------  -----------------  -----------------
      Gh(F)           0.000000000000     0.000000000000     0.000000000000    18.998403162730
      Gh(O)           0.242114000000    -1.452934000000     2.415504000000    15.994914619570
      Gh(H)          -0.616381000000    -1.882187000000     2.541181000000     1.007825032230
      Gh(H)           0.305655000000    -0.919337000000     1.625439000000     1.007825032230
      Gh(O)           0.723027000000     0.126597000000    -2.933588000000    15.994914619570
      Gh(H)           0.475233000000     0.093507000000    -2.011106000000     1.007825032230
      Gh(H)           1.577772000000    -0.349467000000    -3.059852000000     1.007825032230
         O           -3.014078000000     0.047971000000    -0.335833000000    15.994914619570
         H           -3.042120000000     0.986298000000    -0.534262000000     1.007825032230
         H           -2.130844000000    -0.132734000000    -0.089201000000     1.007825032230
      Gh(O)           2.661578000000    -0.504624000000    -0.408960000000    15.994914619570
      Gh(H)           3.011063000000    -0.602591000000     0.481752000000     1.007825032230
      Gh(H)           1.722111000000    -0.375198000000    -0.373612000000     1.007825032230
      Gh(O)           1.830655000000     1.719823000000     1.752473000000    15.994914619570
      Gh(H)           2.368893000000     0.936770000000     1.814979000000     1.007825032230
      Gh(H)           1.174412000000     1.527972000000     1.038808000000     1.007825032230
      Gh(O)          -0.230721000000    -2.491145000000    -1.068143000000    15.994914619570
      Gh(H)           0.708270000000    -2.537811000000    -1.376508000000     1.007825032230
      Gh(H)          -0.245774000000    -1.611418000000    -0.675802000000     1.007825032230

  Charge       = 0
  Multiplicity = 1
  Basis Set: AUG-CC-PVTZ
    Blend: AUG-CC-PVTZ
  Basis Set: (AUG-CC-PVTZ AUX)
    Blend: AUG-CC-PVTZ-JKFIT

    Orbital Energies [Eh]
    ---------------------

    Doubly Occupied:

       1A    -20.564723     2A     -1.358122     3A     -0.725864
       4A     -0.584367     5A     -0.510856

  @DF-RHF Final Energy:   -76.06086576283879

   => Energetics <=

    Nuclear Repulsion Energy =              9.2919414832970499
    One-Electron Energy =                -123.2177484777937480
    Two-Electron Energy =                  37.8649412316579088
    Total Energy =                        -76.0608657628387874
 Dipole X            :         55.9193560          -55.3417407            0.5776153
 Dipole Y            :         -1.8322194            2.3382186            0.5059992
 Dipole Z            :          6.2891956           -6.2552335            0.0339621
 Magnitude           :                                                    0.7686534
  Basis Set: (AUG-CC-PVTZ AUX)
    Blend: AUG-CC-PVTZ-RI
	 Reference Energy          =     -76.0608657628387874 [Eh]
	 Singles Energy            =      -0.0000000000000000 [Eh]
	 Same-Spin Energy          =      -0.0681958014025282 [Eh]
	 Opposite-Spin Energy      =      -0.2153457343962900 [Eh]
	 Correlation Energy        =      -0.2835415357988181 [Eh]
	 Total Energy              =     -76.3444072986376057 [Eh]

	 ================> DF-SCS-MP2 Energies <==================
	-----------------------------------------------------------
	 SCS Same-Spin Scale       =       0.3333333333333333 [-]
	 SCS Opposite-Spin Scale   =       1.2000000000000000 [-]
	 SCS Same-Spin Energy      =      -0.0227319338008427 [Eh]
	 SCS Opposite-Spin Energy  =      -0.2584148812755480 [Eh]
	 SCS Correlation Energy    =      -0.2811468150763907 [Eh]
	 SCS Total Energy          =     -76.3420125779151846 [Eh]
	-----------------------------------------------------------

*** Psi4 exiting successfully. Buy a developer a beer!
