                               Psi4 1.8.2 release

  ==> Input File <==

--------------------------------------------------------------------------
MEMORY 60 GB

molecule dimer {
-1 1
F          0.000000     0.000000     0.000000
O          2.168807     1.707714    -0.355893
H          2.073389     2.313978     0.418100
H          1.432893     1.055999    -0.259639
O         -0.026158     0.744940     2.521287
H          0.010483     0.423758     1.592003
H         -0.458684     1.649632     2.480823
O          1.794697    -1.829527    -1.647068
H          1.108505    -1.229676    -1.232109
H          2.212978    -2.403178    -0.980161
O         -1.647590     2.228935    -0.142764
H         -1.627566     2.508274    -1.084550
H         -1.043895     1.472816    -0.082986
O         -1.812943    -1.946993    -0.037439
H         -1.220264    -1.242475    -0.256203
H         -2.477282    -2.005238    -0.795925

units ang
no_reorient
no_com
symmetry c1
}

set {
basis        aug-cc-pVTZ
scf_type     df
}

energy("mp2")
--------------------------------------------------------------------------

    Molecular point group: c1

    Geometry (in Angstrom), charge = -1, multiplicity = 1:

       Center              X                  Y                   Z               Mass
    ------------   -----------------  -----------------  -----------------  -----------------
         F            0.000000000000     0.000000000000     0.000000000000    18.998403162730
         O            2.168807000000     1.707714000000    -0.355893000000    15.994914619570
         H            2.073389000000     2.313978000000     0.418100000000     1.007825032230
         H            1.432893000000     1.055999000000    -0.259639000000     1.007825032230
         O           -0.026158000000     0.744940000000     2.521287000000    15.994914619570
         H            0.010483000000     0.423758000000     1.592003000000     1.007825032230
         H           -0.458684000000     1.649632000000     2.480823000000     1.007825032230
         O            1.794697000000    -1.829527000000    -1.647068000000    15.994914619570
         H            1.108505000000    -1.229676000000    -1.232109000000     1.007825032230
         H            2.212978000000    -2.403178000000    -0.980161000000     1.007825032230
         O           -1.647590000000     2.228935000000    -0.142764000000    15.994914619570
         H           -1.627566000000     2.508274000000    -1.084550000000     1.007825032230
         H           -1.043895000000     1.472816000000    -0.082986000000     1.007825032230
         O           -1.812943000000    -1.946993000000    -0.037439000000    15.994914619570
         H           -1.220264000000    -1.242475000000    -0.256203000000     1.007825032230
         H           -2.477282000000    -2.005238000000    -0.795925000000     1.007825032230

  Charge       = -1
  Multiplicity = 1
  Basis Set: AUG-CC-PVTZ
    Blend: AUG-CC-PVTZ
  Basis Set: (AUG-CC-PVTZ AUX)
    Blend: AUG-CC-PVTZ-JKFIT

    Orbital Energies [Eh]
    ---------------------

    Doubly Occupied:

       1A    -26.010244     2A    -20.415332     3A    -20.413988
       4A    -20.403737     5A    -20.401857     6A    -20.389117
       7A     -1.282516     8A     -1.191456     9A     -1.182991
      10A     -1.179300    11A     -1.172144    12A     -1.157371
      13A     -0.566939    14A     -0.561637    15A     -0.556620
      16A     -0.539135    17A     -0.533609    18A     -0.439323
      19A     -0.431016    20A     -0.424325    21A     -0.417602
      22A     -0.412910    23A     -0.367323    24A     -0.364279
      25A     -0.357365    26A     -0.355623    27A     -0.353256
      28A     -0.343732    29A     -0.341821    30A     -0.329658

  @DF-RHF Final Energy:  -479.85584528457827

   => Energetics <=

    Nuclear Repulsion Energy =            262.9868457516918170
    One-Electron Energy =               -1199.8929261980476895
    Two-Electron Energy =                 457.0502351617776071
    Total Energy =                       -479.8558452845782654
 Dipole X            :         -7.8179129            7.2283177           -0.5895952
 Dipole Y            :        -18.2990532           18.4899157            0.1908625
 Dipole Z            :         -5.4343483            4.7325111           -0.7018372
 Magnitude           :                                                    0.9362833
  Basis Set: (AUG-CC-PVTZ AUX)
    Blend: AUG-CC-PVTZ-RI
	 Reference Energy          =    -479.8558452845782654 [Eh]
	 Singles Energy            =      -0.0000000000000000 [Eh]
	 Same-Spin Energy          =      -0.4342288171370862 [Eh]
	 Opposite-Spin Energy      =      -1.3196532029198196 [Eh]
	 Correlation Energy        =      -1.7538820200569059 [Eh]
	 Total Energy              =    -481.6097273046351575 [Eh]

	 ================> DF-SCS-MP2 Energies <==================
	-----------------------------------------------------------
	 SCS Same-Spin Scale       =       0.3333333333333333 [-]
	 SCS Opposite-Spin Scale   =       1.2000000000000000 [-]
	 SCS Same-Spin Energy      =      -0.1447429390456954 [Eh]
	 SCS Opposite-Spin Energy  =      -1.5835838435037835 [Eh]
	 SCS Correlation Energy    =      -1.7283267825494788 [Eh]
	 SCS Total Energy          =    -481.5841720671277244 [Eh]
	-----------------------------------------------------------

*** Psi4 exiting successfully. Buy a developer a beer!
