                               Psi4 1.8.2 release

  ==> Input File <==

--------------------------------------------------------------------------
MEMORY 60 GB

molecule dimer {
0 1
Gh(F)      0.000000     0.000000     0.000000
Gh(O)      1.512197     2.406580     0.840529
Gh(H)      1.189138     1.586338     0.433157
Gh(H)      2.329104     2.157667     1.308984
Gh(O)      2.683513    -0.541509    -1.145838
Gh(H)      1.792279    -0.332970    -1.099115
Gh(H)      2.865836    -1.009315    -1.953440
Gh(O)      0.329378     0.134783     2.607000
Gh(H)      0.981309    -0.433808     3.083691
Gh(H)      0.427067     0.007313     1.637742
Gh(O)     -1.529615     2.372468    -0.487485
Gh(H)     -2.400986     2.019607    -0.798232
Gh(H)     -0.921564     1.683072    -0.056461
O         -1.725904    -1.071838    -2.007168
H         -0.961340    -0.890348    -1.431397
H         -2.335466    -0.373033    -1.946563
Gh(O)     -1.183214    -2.045956     1.508332
Gh(H)     -0.765362    -1.328612     0.983167
Gh(H)     -0.774333    -1.986699     2.409746

units ang
no_reorient
no_com
symmetry c1
}

set {
basis        aug-cc-pVTZ
scf_type     df
}

energy("mp2")
--------------------------------------------------------------------------

    Molecular point group: c1

    Geometry (in Angstrom), charge = 0, multiplicity = 1:

       Center              X                  Y                   Z               Mass
    ------------   -----------------  -----------------  -----------------  -----------------
      Gh(F)           0.000000000000     0.000000000000     0.000000000000    18.998403162730
      Gh(O)           1.512197000000     2.406580000000     0.840529000000    15.994914619570
      Gh(H)           1.189138000000     1.586338000000     0.433157000000     1.007825032230
      Gh(H)           2.329104000000     2.157667000000     1.308984000000     1.007825032230
      Gh(O)           2.683513000000    -0.541509000000    -1.145838000000    15.994914619570
      Gh(H)           1.792279000000    -0.332970000000    -1.099115000000     1.007825032230
      Gh(H)           2.865836000000    -1.009315000000    -1.953440000000     1.007825032230
      Gh(O)           0.329378000000     0.134783000000     2.607000000000    15.994914619570
      Gh(H)           0.981309000000    -0.433808000000     3.083691000000     1.007825032230
      Gh(H)           0.427067000000     0.007313000000     1.637742000000     1.007825032230
      Gh(O)          -1.529615000000     2.372468000000    -0.487485000000    15.994914619570
      Gh(H)          -2.400986000000     2.019607000000    -0.798232000000     1.007825032230
      Gh(H)          -0.921564000000     1.683072000000    -0.056461000000     1.007825032230
         O           -1.725904000000    -1.071838000000    -2.007168000000    15.994914619570
         H           -0.961340000000    -0.890348000000    -1.431397000000     1.007825032230
         H           -2.335466000000    -0.373033000000    -1.946563000000     1.007825032230
      Gh(O)          -1.183214000000    -2.045956000000     1.508332000000    15.994914619570
      Gh(H)          -0.765362000000    -1.328612000000     0.983167000000     1.007825032230
      Gh(H)          -0.774333000000    -1.986699000000     2.409746000000     1.007825032230

  Charge       = 0
  Multiplicity = 1
  Basis Set: AUG-CC-PVTZ
    Blend: AUG-CC-PVTZ
  Basis Set: (AUG-CC-PVTZ AUX)
    Blend: AUG-CC-PVTZ-JKFIT

    Orbital Energies [Eh]
    ---------------------

    Doubly Occupied:

       1A    -20.563702     2A     -1.353241     3A     -0.730665
       4A     -0.575791     5A     -0.509308

  @DF-RHF Final Energy:   -76.05963361324382

   => Energetics <=

    Nuclear Repulsion Energy =              9.2413168723077934
    One-Electron Energy =                -123.1364851881808562
    Two-Electron Energy =                  37.8355347026292463
    Total Energy =                        -76.0596336132438182
 Dipole X            :         32.4216609          -32.3219475            0.0997134
 Dipole Y            :         19.1905780          -18.5912862            0.5992917
 Dipole Z            :         37.1569972          -36.7274017            0.4295955
 Magnitude           :                                                    0.7440736
  Basis Set: (AUG-CC-PVTZ AUX)
    Blend: AUG-CC-PVTZ-RI
	 Reference Energy          =     -76.0596336132438182 [Eh]
	 Singles Energy            =      -0.0000000000000000 [Eh]
	 Same-Spin Energy          =      -0.0682339597700325 [Eh]
	 Opposite-Spin Energy      =      -0.2155151966606279 [Eh]
	 Correlation Energy        =      -0.2837491564306603 [Eh]
	 Total Energy              =     -76.3433827696744771 [Eh]

	 ================> DF-SCS-MP2 Energies <==================
	-----------------------------------------------------------
	 SCS Same-Spin Scale       =       0.3333333333333333 [-]
	 SCS Opposite-Spin Scale   =       1.2000000000000000 [-]
	 SCS Same-Spin Energy      =      -0.0227446532566775 [Eh]
	 SCS Opposite-Spin Energy  =      -0.2586182359927534 [Eh]
	 SCS Correlation Energy    =      -0.2813628892494309 [Eh]
	 SCS Total Energy          =     -76.3409965024932546 [Eh]
	-----------------------------------------------------------

*** Psi4 exiting successfully. Buy a developer a beer!
