                               Psi4 1.8.2 release

  ==> Input File <==

--------------------------------------------------------------------------
MEMORY 60 GB

molecule dimer {
0 1
Gh(F)      0.000000     0.000000     0.000000
O          2.300634    -1.333306    -0.902108
H          1.393934    -1.048189    -0.537281
H          2.196325    -1.676113    -1.778413
Gh(O)     -0.721455     0.039200     2.664180
Gh(H)     -0.478323    -0.147144     1.721719
Gh(H)     -0.301277    -0.711256     3.142866
Gh(O)     -1.968178     1.181669    -1.178721
Gh(H)     -2.732253     0.755644    -0.806522
Gh(H)     -1.213738     0.822443    -0.721049
Gh(O)     -2.147115    -1.870979    -0.798426
Gh(H)     -1.363119    -1.488592    -0.414049
Gh(H)     -2.860249    -1.280709    -0.613524
Gh(O)      0.601987     2.534872     1.009589
Gh(H)      0.625186     1.602289     0.786548
Gh(H)      1.072015     2.565401     1.876249

units ang
no_reorient
no_com
symmetry c1
}

set {
basis        aug-cc-pVTZ
scf_type     df
}

energy("mp2")
--------------------------------------------------------------------------

    Molecular point group: c1

    Geometry (in Angstrom), charge = 0, multiplicity = 1:

       Center              X                  Y                   Z               Mass
    ------------   -----------------  -----------------  -----------------  -----------------
      Gh(F)           0.000000000000     0.000000000000     0.000000000000    18.998403162730
         O            2.300634000000    -1.333306000000    -0.902108000000    15.994914619570
         H            1.393934000000    -1.048189000000    -0.537281000000     1.007825032230
         H            2.196325000000    -1.676113000000    -1.778413000000     1.007825032230
      Gh(O)          -0.721455000000     0.039200000000     2.664180000000    15.994914619570
      Gh(H)          -0.478323000000    -0.147144000000     1.721719000000     1.007825032230
      Gh(H)          -0.301277000000    -0.711256000000     3.142866000000     1.007825032230
      Gh(O)          -1.968178000000     1.181669000000    -1.178721000000    15.994914619570
      Gh(H)          -2.732253000000     0.755644000000    -0.806522000000     1.007825032230
      Gh(H)          -1.213738000000     0.822443000000    -0.721049000000     1.007825032230
      Gh(O)          -2.147115000000    -1.870979000000    -0.798426000000    15.994914619570
      Gh(H)          -1.363119000000    -1.488592000000    -0.414049000000     1.007825032230
      Gh(H)          -2.860249000000    -1.280709000000    -0.613524000000     1.007825032230
      Gh(O)           0.601987000000     2.534872000000     1.009589000000    15.994914619570
      Gh(H)           0.625186000000     1.602289000000     0.786548000000     1.007825032230
      Gh(H)           1.072015000000     2.565401000000     1.876249000000     1.007825032230

  Charge       = 0
  Multiplicity = 1
  Basis Set: AUG-CC-PVTZ
    Blend: AUG-CC-PVTZ
  Basis Set: (AUG-CC-PVTZ AUX)
    Blend: AUG-CC-PVTZ-JKFIT

    Orbital Energies [Eh]
    ---------------------

    Doubly Occupied:

       1A    -20.568808     2A     -1.338683     3A     -0.713579
       4A     -0.569968     5A     -0.506819

  @DF-RHF Final Energy:   -76.05512108860472

   => Energetics <=

    Nuclear Repulsion Energy =              8.9593617213969257
    One-Electron Energy =                -122.6332456653405387
    Two-Electron Energy =                  37.6187628553388862
    Total Energy =                        -76.0551210886047215
 Dipole X            :        -42.2330419           41.5651516           -0.6678903
 Dipole Y            :         25.2622115          -25.3048501           -0.0426386
 Dipole Z            :         17.6658120          -18.0139239           -0.3481119
 Magnitude           :                                                    0.7543722
  Basis Set: (AUG-CC-PVTZ AUX)
    Blend: AUG-CC-PVTZ-RI
	 Reference Energy          =     -76.0551210886047215 [Eh]
	 Singles Energy            =      -0.0000000000000000 [Eh]
	 Same-Spin Energy          =      -0.0687460007667272 [Eh]
	 Opposite-Spin Energy      =      -0.2170220154837680 [Eh]
	 Correlation Energy        =      -0.2857680162504952 [Eh]
	 Total Energy              =     -76.3408891048552221 [Eh]

	 ================> DF-SCS-MP2 Energies <==================
	-----------------------------------------------------------
	 SCS Same-Spin Scale       =       0.3333333333333333 [-]
	 SCS Opposite-Spin Scale   =       1.2000000000000000 [-]
	 SCS Same-Spin Energy      =      -0.0229153335889091 [Eh]
	 SCS Opposite-Spin Energy  =      -0.2604264185805216 [Eh]
	 SCS Correlation Energy    =      -0.2833417521694307 [Eh]
	 SCS Total Energy          =     -76.3384628407741559 [Eh]
	-----------------------------------------------------------

*** Psi4 exiting successfully. Buy a developer a beer!
