                               Psi4 1.8.2 release

  ==> Input File <==

--------------------------------------------------------------------------
MEMORY 60 GB

molecule dimer {
0 1
Gh(F)      0.000000     0.000000     0.000000
Gh(O)     -1.868807    -1.606584    -1.232722
Gh(H)     -2.648858    -1.210748    -1.674454
Gh(H)     -1.354970    -0.928574    -0.884703
O          1.561053    -2.342486    -0.324932
H          1.024559    -1.639627    -0.095546
H          2.367186    -2.202968     0.205219
Gh(O)      2.397997     0.883652    -1.479190
Gh(H)      2.460236     0.138607    -2.095251
Gh(H)      1.572467     0.770589    -1.000388
Gh(O)     -0.938943     1.901674    -1.746159
Gh(H)     -0.619530     1.193323    -1.188260
Gh(H)     -0.677226     1.664461    -2.680593
Gh(O)      1.422331     0.953610     2.122850
Gh(H)      1.087694     1.659515     2.606883
Gh(H)      0.843206     0.805126     1.373295

units ang
no_reorient
no_com
symmetry c1
}

set {
basis        aug-cc-pVTZ
scf_type     df
}

energy("mp2")
--------------------------------------------------------------------------

    Molecular point group: c1

    Geometry (in Angstrom), charge = 0, multiplicity = 1:

       Center              X                  Y                   Z               Mass
    ------------   -----------------  -----------------  -----------------  -----------------
      Gh(F)           0.000000000000     0.000000000000     0.000000000000    18.998403162730
      Gh(O)          -1.868807000000    -1.606584000000    -1.232722000000    15.994914619570
      Gh(H)          -2.648858000000    -1.210748000000    -1.674454000000     1.007825032230
      Gh(H)          -1.354970000000    -0.928574000000    -0.884703000000     1.007825032230
         O            1.561053000000    -2.342486000000    -0.324932000000    15.994914619570
         H            1.024559000000    -1.639627000000    -0.095546000000     1.007825032230
         H            2.367186000000    -2.202968000000     0.205219000000     1.007825032230
      Gh(O)           2.397997000000     0.883652000000    -1.479190000000    15.994914619570
      Gh(H)           2.460236000000     0.138607000000    -2.095251000000     1.007825032230
      Gh(H)           1.572467000000     0.770589000000    -1.000388000000     1.007825032230
      Gh(O)          -0.938943000000     1.901674000000    -1.746159000000    15.994914619570
      Gh(H)          -0.619530000000     1.193323000000    -1.188260000000     1.007825032230
      Gh(H)          -0.677226000000     1.664461000000    -2.680593000000     1.007825032230
      Gh(O)           1.422331000000     0.953610000000     2.122850000000    15.994914619570
      Gh(H)           1.087694000000     1.659515000000     2.606883000000     1.007825032230
      Gh(H)           0.843206000000     0.805126000000     1.373295000000     1.007825032230

  Charge       = 0
  Multiplicity = 1
  Basis Set: AUG-CC-PVTZ
    Blend: AUG-CC-PVTZ
  Basis Set: (AUG-CC-PVTZ AUX)
    Blend: AUG-CC-PVTZ-JKFIT

    Orbital Energies [Eh]
    ---------------------

    Doubly Occupied:

       1A    -20.564852     2A     -1.361881     3A     -0.723935
       4A     -0.588426     5A     -0.511723

  @DF-RHF Final Energy:   -76.05904449239139

   => Energetics <=

    Nuclear Repulsion Energy =              9.3328224005212910
    One-Electron Energy =                -123.2820968579049605
    Two-Electron Energy =                  37.8902299649922867
    Total Energy =                        -76.0590444923913793
 Dipole X            :        -29.8389474           30.0091702            0.1702229
 Dipole Y            :         43.2431334          -42.6747081            0.5684253
 Dipole Z            :          5.2117720           -4.7050080            0.5067640
 Magnitude           :                                                    0.7803159
  Basis Set: (AUG-CC-PVTZ AUX)
    Blend: AUG-CC-PVTZ-RI
	 Reference Energy          =     -76.0590444923913935 [Eh]
	 Singles Energy            =      -0.0000000000000000 [Eh]
	 Same-Spin Energy          =      -0.0681808556653380 [Eh]
	 Opposite-Spin Energy      =      -0.2154785312385318 [Eh]
	 Correlation Energy        =      -0.2836593869038698 [Eh]
	 Total Energy              =     -76.3427038792952573 [Eh]

	 ================> DF-SCS-MP2 Energies <==================
	-----------------------------------------------------------
	 SCS Same-Spin Scale       =       0.3333333333333333 [-]
	 SCS Opposite-Spin Scale   =       1.2000000000000000 [-]
	 SCS Same-Spin Energy      =      -0.0227269518884460 [Eh]
	 SCS Opposite-Spin Energy  =      -0.2585742374862381 [Eh]
	 SCS Correlation Energy    =      -0.2813011893746842 [Eh]
	 SCS Total Energy          =     -76.3403456817660810 [Eh]
	-----------------------------------------------------------

*** Psi4 exiting successfully. Buy a developer a beer!
