                               Psi4 1.8.2 release

  ==> Input File <==

--------------------------------------------------------------------------
MEMORY 60 GB

molecule dimer {
-1 1
F          0.000000     0.000000     0.000000
O         -0.207769    -2.327129     1.239569
H          0.037713    -3.149829     0.838322
H         -0.081193    -1.636015     0.550989
O         -2.599898    -0.694839    -0.679029
H         -2.709680    -0.858637    -1.571457
H         -1.656530    -0.607954    -0.409434
O          1.812665     1.083834     2.219277
H          1.153673     0.568273     1.755293
H          1.370089     1.213940     3.097476
O          2.512982    -1.496631    -0.619434
H          1.794318    -0.888816    -0.358592
H          2.943913    -1.115172    -1.446926
O         -0.703861     1.904262    -1.805602
H         -1.312640     2.645681    -1.719120
H         -0.646566     1.565853    -0.948304

units ang
no_reorient
no_com
symmetry c1
}

set {
basis        aug-cc-pVTZ
scf_type     df
}

energy("mp2")
--------------------------------------------------------------------------

    Molecular point group: c1

    Geometry (in Angstrom), charge = -1, multiplicity = 1:

       Center              X                  Y                   Z               Mass
    ------------   -----------------  -----------------  -----------------  -----------------
         F            0.000000000000     0.000000000000     0.000000000000    18.998403162730
         O           -0.207769000000    -2.327129000000     1.239569000000    15.994914619570
         H            0.037713000000    -3.149829000000     0.838322000000     1.007825032230
         H           -0.081193000000    -1.636015000000     0.550989000000     1.007825032230
         O           -2.599898000000    -0.694839000000    -0.679029000000    15.994914619570
         H           -2.709680000000    -0.858637000000    -1.571457000000     1.007825032230
         H           -1.656530000000    -0.607954000000    -0.409434000000     1.007825032230
         O            1.812665000000     1.083834000000     2.219277000000    15.994914619570
         H            1.153673000000     0.568273000000     1.755293000000     1.007825032230
         H            1.370089000000     1.213940000000     3.097476000000     1.007825032230
         O            2.512982000000    -1.496631000000    -0.619434000000    15.994914619570
         H            1.794318000000    -0.888816000000    -0.358592000000     1.007825032230
         H            2.943913000000    -1.115172000000    -1.446926000000     1.007825032230
         O           -0.703861000000     1.904262000000    -1.805602000000    15.994914619570
         H           -1.312640000000     2.645681000000    -1.719120000000     1.007825032230
         H           -0.646566000000     1.565853000000    -0.948304000000     1.007825032230

  Charge       = -1
  Multiplicity = 1
  Basis Set: AUG-CC-PVTZ
    Blend: AUG-CC-PVTZ
  Basis Set: (AUG-CC-PVTZ AUX)
    Blend: AUG-CC-PVTZ-JKFIT

    Orbital Energies [Eh]
    ---------------------

    Doubly Occupied:

       1A    -25.975467     2A    -20.416937     3A    -20.412693
       4A    -20.401644     5A    -20.382549     6A    -20.381491
       7A     -1.241740     8A     -1.199030     9A     -1.193845
      10A     -1.177871    11A     -1.176830    12A     -1.167917
      13A     -0.568427    14A     -0.565142    15A     -0.552460
      16A     -0.547729    17A     -0.539303    18A     -0.438559
      19A     -0.431651    20A     -0.421330    21A     -0.410392
      22A     -0.402604    23A     -0.358558    24A     -0.354743
      25A     -0.351829    26A     -0.336777    27A     -0.335175
      28A     -0.332721    29A     -0.327983    30A     -0.321135

  @DF-RHF Final Energy:  -479.84415437223731

   => Energetics <=

    Nuclear Repulsion Energy =            259.0874962749903716
    One-Electron Energy =               -1192.4142231783232546
    Two-Electron Energy =                 453.4825725310955704
    Total Energy =                       -479.8441543722373126
 Dipole X            :        -14.3632650           13.9954043           -0.3678607
 Dipole Y            :         28.2101162          -27.4136900            0.7964263
 Dipole Z            :         -5.5753554            4.9633562           -0.6119992
 Magnitude           :                                                    1.0696538
  Basis Set: (AUG-CC-PVTZ AUX)
    Blend: AUG-CC-PVTZ-RI
	 Reference Energy          =    -479.8441543722373126 [Eh]
	 Singles Energy            =      -0.0000000000000000 [Eh]
	 Same-Spin Energy          =      -0.4317122432618020 [Eh]
	 Opposite-Spin Energy      =      -1.3137058859890469 [Eh]
	 Correlation Energy        =      -1.7454181292508490 [Eh]
	 Total Energy              =    -481.5895725014881350 [Eh]

	 ================> DF-SCS-MP2 Energies <==================
	-----------------------------------------------------------
	 SCS Same-Spin Scale       =       0.3333333333333333 [-]
	 SCS Opposite-Spin Scale   =       1.2000000000000000 [-]
	 SCS Same-Spin Energy      =      -0.1439040810872673 [Eh]
	 SCS Opposite-Spin Energy  =      -1.5764470631868563 [Eh]
	 SCS Correlation Energy    =      -1.7203511442741237 [Eh]
	 SCS Total Energy          =    -481.5645055165114172 [Eh]
	-----------------------------------------------------------

*** Psi4 exiting successfully. Buy a developer a beer!
