                               Psi4 1.8.2 release

  ==> Input File <==

--------------------------------------------------------------------------
MEMORY 60 GB

molecule dimer {
0 1
Gh(F)      0.000000     0.000000     0.000000
Gh(O)      2.385569     0.742591     1.674951
Gh(H)      1.619624     0.724586     1.100121
Gh(H)      2.424688    -0.125409     2.056396
Gh(O)     -0.239041    -2.096331    -1.876795
Gh(H)      0.025958    -2.893733    -1.489325
Gh(H)     -0.471491    -1.429774    -1.203876
Gh(O)      0.205984    -2.249977     1.611546
Gh(H)     -0.314760    -2.967836     1.148222
Gh(H)      0.191515    -1.386093     1.171929
Gh(O)     -1.908189     0.748542     1.890951
Gh(H)     -1.585089     1.599532     2.357873
Gh(H)     -1.246971     0.562129     1.226859
O         -0.543220     2.567600    -0.603874
H         -0.100372     1.702524    -0.500902
H         -1.436617     2.597652    -0.284137
Gh(O)      2.601881     0.224157    -1.352015
Gh(H)      1.685409     0.167066    -1.062671
Gh(H)      2.612419     0.812342    -2.122170

units ang
no_reorient
no_com
symmetry c1
}

set {
basis        aug-cc-pVTZ
scf_type     df
}

energy("mp2")
--------------------------------------------------------------------------

    Molecular point group: c1

    Geometry (in Angstrom), charge = 0, multiplicity = 1:

       Center              X                  Y                   Z               Mass
    ------------   -----------------  -----------------  -----------------  -----------------
      Gh(F)           0.000000000000     0.000000000000     0.000000000000    18.998403162730
      Gh(O)           2.385569000000     0.742591000000     1.674951000000    15.994914619570
      Gh(H)           1.619624000000     0.724586000000     1.100121000000     1.007825032230
      Gh(H)           2.424688000000    -0.125409000000     2.056396000000     1.007825032230
      Gh(O)          -0.239041000000    -2.096331000000    -1.876795000000    15.994914619570
      Gh(H)           0.025958000000    -2.893733000000    -1.489325000000     1.007825032230
      Gh(H)          -0.471491000000    -1.429774000000    -1.203876000000     1.007825032230
      Gh(O)           0.205984000000    -2.249977000000     1.611546000000    15.994914619570
      Gh(H)          -0.314760000000    -2.967836000000     1.148222000000     1.007825032230
      Gh(H)           0.191515000000    -1.386093000000     1.171929000000     1.007825032230
      Gh(O)          -1.908189000000     0.748542000000     1.890951000000    15.994914619570
      Gh(H)          -1.585089000000     1.599532000000     2.357873000000     1.007825032230
      Gh(H)          -1.246971000000     0.562129000000     1.226859000000     1.007825032230
         O           -0.543220000000     2.567600000000    -0.603874000000    15.994914619570
         H           -0.100372000000     1.702524000000    -0.500902000000     1.007825032230
         H           -1.436617000000     2.597652000000    -0.284137000000     1.007825032230
      Gh(O)           2.601881000000     0.224157000000    -1.352015000000    15.994914619570
      Gh(H)           1.685409000000     0.167066000000    -1.062671000000     1.007825032230
      Gh(H)           2.612419000000     0.812342000000    -2.122170000000     1.007825032230

  Charge       = 0
  Multiplicity = 1
  Basis Set: AUG-CC-PVTZ
    Blend: AUG-CC-PVTZ
  Basis Set: (AUG-CC-PVTZ AUX)
    Blend: AUG-CC-PVTZ-JKFIT

    Orbital Energies [Eh]
    ---------------------

    Doubly Occupied:

       1A    -20.563220     2A     -1.343575     3A     -0.732722
       4A     -0.563951     5A     -0.506644

  @DF-RHF Final Energy:   -76.05778728034080

   => Energetics <=

    Nuclear Repulsion Energy =              9.1171233496666098
    One-Electron Energy =                -122.9295919154000245
    Two-Electron Energy =                  37.7546812853926070
    Total Energy =                        -76.0577872803408042
 Dipole X            :         10.8059586          -11.1167845           -0.3108259
 Dipole Y            :        -47.5127544           46.9426413           -0.5701131
 Dipole Z            :         10.9024011          -10.6127605            0.2896406
 Magnitude           :                                                    0.7110087
  Basis Set: (AUG-CC-PVTZ AUX)
    Blend: AUG-CC-PVTZ-RI
	 Reference Energy          =     -76.0577872803408042 [Eh]
	 Singles Energy            =      -0.0000000000000000 [Eh]
	 Same-Spin Energy          =      -0.0684494888969818 [Eh]
	 Opposite-Spin Energy      =      -0.2161708121378160 [Eh]
	 Correlation Energy        =      -0.2846203010347979 [Eh]
	 Total Energy              =     -76.3424075813755962 [Eh]

	 ================> DF-SCS-MP2 Energies <==================
	-----------------------------------------------------------
	 SCS Same-Spin Scale       =       0.3333333333333333 [-]
	 SCS Opposite-Spin Scale   =       1.2000000000000000 [-]
	 SCS Same-Spin Energy      =      -0.0228164962989939 [Eh]
	 SCS Opposite-Spin Energy  =      -0.2594049745653792 [Eh]
	 SCS Correlation Energy    =      -0.2822214708643732 [Eh]
	 SCS Total Energy          =     -76.3400087512051755 [Eh]
	-----------------------------------------------------------

*** Psi4 exiting successfully. Buy a developer a beer!
