                               Psi4 1.9 release

  ==> Input File <==

--------------------------------------------------------------------------
MEMORY 60 GB

molecule dimer {
-1 1
F      0.000000     0.000000     0.000000
--
0 1
O     -2.514233    -0.838589    -0.868966
H     -2.777531    -0.864339    -1.789497
H     -1.566044    -0.593973    -0.828615
O     -0.782480     1.801604    -2.000038
H     -1.732362     1.945839    -1.851762
H     -0.584653     1.094475    -1.373167
O     -0.590907     2.720783     1.336329
H      0.319764     2.744529     0.971711
H     -0.949250     1.810129     1.212275
O      2.242812     1.445091    -0.026596
H      1.411790     1.013484    -0.212396
H      2.372371     1.996144    -0.840441
O      1.553258    -1.647504    -1.312027
H      1.527789    -2.312558    -0.611092
H      1.024731    -0.930018    -0.897315

units ang
no_reorient
no_com
symmetry c1
}

set {
basis        aug-cc-pVTZ
scf_type     df
}

energy("mp2", bsse_type="cp")
--------------------------------------------------------------------------

                               Psi4 1.9 release
    Molecular point group: c1
  Charge       = 0
  Multiplicity = 1
  Basis Set: AUG-CC-PVTZ
    Blend: AUG-CC-PVTZ
  Basis Set: (AUG-CC-PVTZ AUX)
    Blend: AUG-CC-PVTZ-JKFIT
  @DF-RHF Final Energy:  -380.27755334787417
    Total Energy =                       -380.2775533478741750
 Dipole X            :          2.7695419           -3.1856909           -0.4161489
 Dipole Y            :        -64.4580231           63.7873123           -0.6707108
 Dipole Z            :         54.7125835          -55.1623963           -0.4498127
 Magnitude           :                                                    0.9084957
  Basis Set: (AUG-CC-PVTZ AUX)
    Blend: AUG-CC-PVTZ-RI
	 Reference Energy          =    -380.2775533478741750 [Eh]
	 Singles Energy            =      -0.0000000000000000 [Eh]
	 Same-Spin Energy          =      -0.3467387870876233 [Eh]
	 Opposite-Spin Energy      =      -1.0890381690235895 [Eh]
	 Correlation Energy        =      -1.4357769561112128 [Eh]
	 Total Energy              =    -381.7133303039854013 [Eh]
	 SCS Total Energy          =    -381.6999787463983580 [Eh]
                               Psi4 1.9 release
    Molecular point group: c1
  Multiplicity = 1
  Basis Set: AUG-CC-PVTZ
    Blend: AUG-CC-PVTZ
  Basis Set: (AUG-CC-PVTZ AUX)
    Blend: AUG-CC-PVTZ-JKFIT
  @DF-RHF Final Energy:   -99.45111740547763
    Total Energy =                        -99.4511174054776177
  Basis Set: (AUG-CC-PVTZ AUX)
	 Singles Energy            =      -0.0000000000000000 [Eh]
	 Same-Spin Energy          =      -0.0820612194573733 [Eh]
	 Opposite-Spin Energy      =      -0.2302754913151623 [Eh]
	 Correlation Energy        =      -0.3123367107725356 [Eh]
	 Total Energy              =     -99.7634541162501733 [Eh]
	 SCS Total Energy          =     -99.7548017348749454 [Eh]
                               Psi4 1.9 release
    Molecular point group: c1

    Geometry (in Bohr), charge = -1, multiplicity = 1:

       Center              X                  Y                   Z               Mass
    ------------   -----------------  -----------------  -----------------  -----------------
         F            0.000000000000     0.000000000000     0.000000000000    18.998403162730
         O           -4.751211785588    -1.584703541822    -1.642107752335    15.994914619570
         H           -5.248772894969    -1.633363989552    -3.381659232328     1.007825032230
         H           -2.959394260416    -1.122446295917    -1.565855413446     1.007825032230
         O           -1.478672898648     3.404538146529    -3.779524060508    15.994914619570
         H           -3.273689730150     3.677102794235    -3.499323029530     1.007825032230
         H           -1.104834048427     2.068258001160    -2.594909554517     1.007825032230
         O           -1.116652395616     5.141534716802     2.525295823507    15.994914619570
         H            0.604266384781     5.186408153377     1.836267663095     1.007825032230
         H           -1.793822524591     3.420648061749     2.290867738739     1.007825032230
         O            4.238300430890     2.730826216364    -0.050259156033    15.994914619570
         H            2.667896446660     1.915207192534    -0.401370270143     1.007825032230
         H            4.483131457979     3.772165466976    -1.588203314606     1.007825032230
         O            2.935232222176    -3.113331350596    -2.479371699206    15.994914619570
         H            2.887102787487    -4.370101269237    -1.154796517458     1.007825032230
         H            1.936460942267    -1.757479311746    -1.695679598265     1.007825032230

  Charge       = -1
  Multiplicity = 1
  Basis Set: AUG-CC-PVTZ
    Blend: AUG-CC-PVTZ
  Basis Set: (AUG-CC-PVTZ AUX)
    Blend: AUG-CC-PVTZ-JKFIT

    Orbital Energies [Eh]
    ---------------------

    Doubly Occupied:

       1A    -25.997166     2A    -20.415309     3A    -20.412019
       4A    -20.408452     5A    -20.403156     6A    -20.385406
       7A     -1.268364     8A     -1.197694     9A     -1.194503
      10A     -1.184385    11A     -1.178273    12A     -1.167403
      13A     -0.574601    14A     -0.558882    15A     -0.553200
      16A     -0.546486    17A     -0.530331    18A     -0.447729
      19A     -0.434114    20A     -0.431036    21A     -0.426622
      22A     -0.418345    23A     -0.363719    24A     -0.360311
      25A     -0.355581    26A     -0.352584    27A     -0.349749
      28A     -0.345225    29A     -0.341125    30A     -0.328044

  @DF-RHF Final Energy:  -479.85670633280904

   => Energetics <=

    Nuclear Repulsion Energy =            270.8752515361053383
    One-Electron Energy =               -1215.6042877702154783
    Two-Electron Energy =                 464.8723299013011001
    Total Energy =                       -479.8567063328090398
 Dipole X            :          2.6446108           -3.1856909           -0.5410801
 Dipole Y            :        -64.7252598           63.7873123           -0.9379475
 Dipole Z            :         55.3418915          -55.1623963            0.1794952
 Magnitude           :                                                    1.0976027
  Basis Set: (AUG-CC-PVTZ AUX)
    Blend: AUG-CC-PVTZ-RI
	 Reference Energy          =    -479.8567063328090398 [Eh]
	 Singles Energy            =      -0.0000000000000000 [Eh]
	 Same-Spin Energy          =      -0.4342404656355331 [Eh]
	 Opposite-Spin Energy      =      -1.3183431374803627 [Eh]
	 Correlation Energy        =      -1.7525836031158959 [Eh]
	 Total Energy              =    -481.6092899359249486 [Eh]

	 ================> DF-SCS-MP2 Energies <==================
	-----------------------------------------------------------
	 SCS Same-Spin Scale       =       0.3333333333333333 [-]
	 SCS Opposite-Spin Scale   =       1.2000000000000000 [-]
	 SCS Same-Spin Energy      =      -0.1447468218785110 [Eh]
	 SCS Opposite-Spin Energy  =      -1.5820117649764351 [Eh]
	 SCS Correlation Energy    =      -1.7267585868549462 [Eh]
	 SCS Total Energy          =    -481.5834649196639816 [Eh]
	-----------------------------------------------------------

*** Psi4 exiting successfully. Buy a developer a beer!
