                               Psi4 1.8.2 release

  ==> Input File <==

--------------------------------------------------------------------------
MEMORY 60 GB

molecule dimer {
0 1
Gh(F)      0.000000     0.000000     0.000000
Gh(O)      0.588473    -0.884411    -2.532590
Gh(H)      0.570163    -0.750592    -1.554364
Gh(H)      0.212599    -1.767260    -2.854982
Gh(O)      1.249696     2.505029    -0.435608
Gh(H)      0.855008     1.572903    -0.277964
Gh(H)      2.124949     2.543701     0.017355
Gh(O)     -2.575407    -0.483611     0.341632
Gh(H)     -3.023020    -0.104900    -0.406895
Gh(H)     -1.638645    -0.352131     0.088858
O          0.581612     0.878877     2.831679
H          0.628358     0.650704     1.918655
H          1.486052     1.034802     3.119274
Gh(O)     -0.124634    -2.755181     0.993578
Gh(H)     -0.046177    -1.822951     0.906365
Gh(H)      0.293841    -3.171635     0.264619

units ang
no_reorient
no_com
symmetry c1
}

set {
basis        aug-cc-pVTZ
scf_type     df
}

energy("mp2")
--------------------------------------------------------------------------

    Molecular point group: c1

    Geometry (in Angstrom), charge = 0, multiplicity = 1:

       Center              X                  Y                   Z               Mass
    ------------   -----------------  -----------------  -----------------  -----------------
      Gh(F)           0.000000000000     0.000000000000     0.000000000000    18.998403162730
      Gh(O)           0.588473000000    -0.884411000000    -2.532590000000    15.994914619570
      Gh(H)           0.570163000000    -0.750592000000    -1.554364000000     1.007825032230
      Gh(H)           0.212599000000    -1.767260000000    -2.854982000000     1.007825032230
      Gh(O)           1.249696000000     2.505029000000    -0.435608000000    15.994914619570
      Gh(H)           0.855008000000     1.572903000000    -0.277964000000     1.007825032230
      Gh(H)           2.124949000000     2.543701000000     0.017355000000     1.007825032230
      Gh(O)          -2.575407000000    -0.483611000000     0.341632000000    15.994914619570
      Gh(H)          -3.023020000000    -0.104900000000    -0.406895000000     1.007825032230
      Gh(H)          -1.638645000000    -0.352131000000     0.088858000000     1.007825032230
         O            0.581612000000     0.878877000000     2.831679000000    15.994914619570
         H            0.628358000000     0.650704000000     1.918655000000     1.007825032230
         H            1.486052000000     1.034802000000     3.119274000000     1.007825032230
      Gh(O)          -0.124634000000    -2.755181000000     0.993578000000    15.994914619570
      Gh(H)          -0.046177000000    -1.822951000000     0.906365000000     1.007825032230
      Gh(H)           0.293841000000    -3.171635000000     0.264619000000     1.007825032230

  Charge       = 0
  Multiplicity = 1
  Basis Set: AUG-CC-PVTZ
    Blend: AUG-CC-PVTZ
  Basis Set: (AUG-CC-PVTZ AUX)
    Blend: AUG-CC-PVTZ-JKFIT

    Orbital Energies [Eh]
    ---------------------

    Doubly Occupied:

       1A    -20.565340     2A     -1.354990     3A     -0.724355
       4A     -0.582149     5A     -0.510242

  @DF-RHF Final Energy:   -76.06080975104216

   => Energetics <=

    Nuclear Repulsion Energy =              9.2415042451541254
    One-Electron Energy =                -123.1304721679112930
    Two-Electron Energy =                  37.8281581717150104
    Total Energy =                        -76.0608097510421430
 Dipole X            :        -12.1515311           12.7883549            0.6368238
 Dipole Y            :        -16.5212405           16.4718393           -0.0494012
 Dipole Z            :        -52.7519431           52.3290883           -0.4228548
 Magnitude           :                                                    0.7660230
  Basis Set: (AUG-CC-PVTZ AUX)
    Blend: AUG-CC-PVTZ-RI
	 Reference Energy          =     -76.0608097510421572 [Eh]
	 Singles Energy            =      -0.0000000000000000 [Eh]
	 Same-Spin Energy          =      -0.0682716820534305 [Eh]
	 Opposite-Spin Energy      =      -0.2154658499983516 [Eh]
	 Correlation Energy        =      -0.2837375320517822 [Eh]
	 Total Energy              =     -76.3445472830939451 [Eh]

	 ================> DF-SCS-MP2 Energies <==================
	-----------------------------------------------------------
	 SCS Same-Spin Scale       =       0.3333333333333333 [-]
	 SCS Opposite-Spin Scale   =       1.2000000000000000 [-]
	 SCS Same-Spin Energy      =      -0.0227572273511435 [Eh]
	 SCS Opposite-Spin Energy  =      -0.2585590199980219 [Eh]
	 SCS Correlation Energy    =      -0.2813162473491654 [Eh]
	 SCS Total Energy          =     -76.3421259983913245 [Eh]
	-----------------------------------------------------------

*** Psi4 exiting successfully. Buy a developer a beer!
