                               Psi4 1.8.2 release

  ==> Input File <==

--------------------------------------------------------------------------
MEMORY 60 GB

molecule dimer {
0 1
Gh(F)      0.000000     0.000000     0.000000
O         -1.136882    -1.427020    -2.064111
H         -0.783852    -0.777272    -1.407214
H         -0.400851    -1.885120    -2.490398
Gh(O)      0.647093     1.533221    -2.138006
Gh(H)     -0.259996     1.897885    -2.425146
Gh(H)      0.490876     1.036365    -1.331999
Gh(O)     -1.960682     2.060929     0.326986
Gh(H)     -1.310449     1.308838     0.298130
Gh(H)     -2.313939     1.970028     1.209085
Gh(O)      0.487728    -2.673074     1.248775
Gh(H)      0.447712    -2.447997     2.166696
Gh(H)      0.530132    -1.919359     0.687623

units ang
no_reorient
no_com
symmetry c1
}

set {
basis        aug-cc-pVTZ
scf_type     df
}

energy("mp2")
--------------------------------------------------------------------------

    Molecular point group: c1

    Geometry (in Angstrom), charge = 0, multiplicity = 1:

       Center              X                  Y                   Z               Mass
    ------------   -----------------  -----------------  -----------------  -----------------
      Gh(F)           0.000000000000     0.000000000000     0.000000000000    18.998403162730
         O           -1.136882000000    -1.427020000000    -2.064111000000    15.994914619570
         H           -0.783852000000    -0.777272000000    -1.407214000000     1.007825032230
         H           -0.400851000000    -1.885120000000    -2.490398000000     1.007825032230
      Gh(O)           0.647093000000     1.533221000000    -2.138006000000    15.994914619570
      Gh(H)          -0.259996000000     1.897885000000    -2.425146000000     1.007825032230
      Gh(H)           0.490876000000     1.036365000000    -1.331999000000     1.007825032230
      Gh(O)          -1.960682000000     2.060929000000     0.326986000000    15.994914619570
      Gh(H)          -1.310449000000     1.308838000000     0.298130000000     1.007825032230
      Gh(H)          -2.313939000000     1.970028000000     1.209085000000     1.007825032230
      Gh(O)           0.487728000000    -2.673074000000     1.248775000000    15.994914619570
      Gh(H)           0.447712000000    -2.447997000000     2.166696000000     1.007825032230
      Gh(H)           0.530132000000    -1.919359000000     0.687623000000     1.007825032230

  Charge       = 0
  Multiplicity = 1
  Basis Set: AUG-CC-PVTZ
    Blend: AUG-CC-PVTZ
  Basis Set: (AUG-CC-PVTZ AUX)
    Blend: AUG-CC-PVTZ-JKFIT

    Orbital Energies [Eh]
    ---------------------

    Doubly Occupied:

       1A    -20.568321     2A     -1.340055     3A     -0.715638
       4A     -0.571480     5A     -0.507168

  @DF-RHF Final Energy:   -76.05786282725789

   => Energetics <=

    Nuclear Repulsion Energy =              8.9936747853261139
    One-Electron Energy =                -122.6977483377041835
    Two-Electron Energy =                  37.6462107251201843
    Total Energy =                        -76.0578628272578925
 Dipole X            :         20.1529032          -19.4259291            0.7269740
 Dipole Y            :         26.7303624          -26.6046075            0.1257549
 Dipole Z            :         38.7221417          -38.5702551            0.1518866
 Magnitude           :                                                    0.7532430
  Basis Set: (AUG-CC-PVTZ AUX)
    Blend: AUG-CC-PVTZ-RI
	 Reference Energy          =     -76.0578628272578925 [Eh]
	 Singles Energy            =      -0.0000000000000000 [Eh]
	 Same-Spin Energy          =      -0.0686894333553311 [Eh]
	 Opposite-Spin Energy      =      -0.2168820522891980 [Eh]
	 Correlation Energy        =      -0.2855714856445291 [Eh]
	 Total Energy              =     -76.3434343129024171 [Eh]

	 ================> DF-SCS-MP2 Energies <==================
	-----------------------------------------------------------
	 SCS Same-Spin Scale       =       0.3333333333333333 [-]
	 SCS Opposite-Spin Scale   =       1.2000000000000000 [-]
	 SCS Same-Spin Energy      =      -0.0228964777851104 [Eh]
	 SCS Opposite-Spin Energy  =      -0.2602584627470376 [Eh]
	 SCS Correlation Energy    =      -0.2831549405321480 [Eh]
	 SCS Total Energy          =     -76.3410177677900350 [Eh]
	-----------------------------------------------------------

*** Psi4 exiting successfully. Buy a developer a beer!
