                               Psi4 1.8.2 release

  ==> Input File <==

--------------------------------------------------------------------------
MEMORY 60 GB

molecule dimer {
-1 1
F          0.000000     0.000000     0.000000
O          0.267898     1.190999     2.490967
H          0.231648     0.918893     1.585672
H          1.150368     0.873921     2.774655
O          1.989861     1.908491    -0.696683
H          2.519841     1.786306     0.028333
H          1.155472     1.444242    -0.489303
O         -0.232516     0.521451    -2.764163
H         -0.239694     0.176774    -1.911270
H         -0.781563    -0.064568    -3.269363
O          2.028485    -1.193703     1.417716
H          1.489509    -1.545613     2.154059
H          1.368958    -0.882699     0.721738

units ang
no_reorient
no_com
symmetry c1
}

set {
basis        aug-cc-pVTZ
scf_type     df
}

energy("mp2")
--------------------------------------------------------------------------

    Molecular point group: c1

    Geometry (in Angstrom), charge = -1, multiplicity = 1:

       Center              X                  Y                   Z               Mass
    ------------   -----------------  -----------------  -----------------  -----------------
         F            0.000000000000     0.000000000000     0.000000000000    18.998403162730
         O            0.267898000000     1.190999000000     2.490967000000    15.994914619570
         H            0.231648000000     0.918893000000     1.585672000000     1.007825032230
         H            1.150368000000     0.873921000000     2.774655000000     1.007825032230
         O            1.989861000000     1.908491000000    -0.696683000000    15.994914619570
         H            2.519841000000     1.786306000000     0.028333000000     1.007825032230
         H            1.155472000000     1.444242000000    -0.489303000000     1.007825032230
         O           -0.232516000000     0.521451000000    -2.764163000000    15.994914619570
         H           -0.239694000000     0.176774000000    -1.911270000000     1.007825032230
         H           -0.781563000000    -0.064568000000    -3.269363000000     1.007825032230
         O            2.028485000000    -1.193703000000     1.417716000000    15.994914619570
         H            1.489509000000    -1.545613000000     2.154059000000     1.007825032230
         H            1.368958000000    -0.882699000000     0.721738000000     1.007825032230

  Charge       = -1
  Multiplicity = 1
  Basis Set: AUG-CC-PVTZ
    Blend: AUG-CC-PVTZ
  Basis Set: (AUG-CC-PVTZ AUX)
    Blend: AUG-CC-PVTZ-JKFIT

    Orbital Energies [Eh]
    ---------------------

    Doubly Occupied:

       1A    -25.967466     2A    -20.401523     3A    -20.394407
       4A    -20.391397     5A    -20.379308     6A     -1.232011
       7A     -1.198309     8A     -1.181670     9A     -1.178603
      10A     -1.169548    11A     -0.568883    12A     -0.549398
      13A     -0.542906    14A     -0.537356    15A     -0.432062
      16A     -0.425552    17A     -0.419525    18A     -0.410974
      19A     -0.348564    20A     -0.346504    21A     -0.337332
      22A     -0.334508    23A     -0.322299    24A     -0.319999
      25A     -0.318389

  @DF-RHF Final Energy:  -403.78435067137582

   => Energetics <=

    Nuclear Repulsion Energy =            191.1075941318785283
    One-Electron Energy =                -950.3668943687229103
    Two-Electron Energy =                 355.4749495654685916
    Total Energy =                       -403.7843506713758188
 Dipole X            :        -75.6621087           74.3122761           -1.3498326
 Dipole Y            :        -43.4738393           41.8104929           -1.6633464
 Dipole Z            :         -9.5380952            9.7835222            0.2454270
 Magnitude           :                                                    2.1561548
  Basis Set: (AUG-CC-PVTZ AUX)
    Blend: AUG-CC-PVTZ-RI
	 Reference Energy          =    -403.7843506713758188 [Eh]
	 Singles Energy            =      -0.0000000000000000 [Eh]
	 Same-Spin Energy          =      -0.3619164194900193 [Eh]
	 Opposite-Spin Energy      =      -1.0952890688534316 [Eh]
	 Correlation Energy        =      -1.4572054883434509 [Eh]
	 Total Energy              =    -405.2415561597192664 [Eh]

	 ================> DF-SCS-MP2 Energies <==================
	-----------------------------------------------------------
	 SCS Same-Spin Scale       =       0.3333333333333333 [-]
	 SCS Opposite-Spin Scale   =       1.2000000000000000 [-]
	 SCS Same-Spin Energy      =      -0.1206388064966731 [Eh]
	 SCS Opposite-Spin Energy  =      -1.3143468826241178 [Eh]
	 SCS Correlation Energy    =      -1.4349856891207908 [Eh]
	 SCS Total Energy          =    -405.2193363604965839 [Eh]
	-----------------------------------------------------------

*** Psi4 exiting successfully. Buy a developer a beer!
