                               Psi4 1.8.2 release

  ==> Input File <==

--------------------------------------------------------------------------
MEMORY 60 GB

molecule dimer {
-1 1
F          0.000000     0.000000     0.000000
O         -0.397648    -0.910418     2.622164
H         -0.278439    -0.332943     1.846098
H         -0.948382    -1.629149     2.239891
O          0.397013     2.439291     1.895123
H          0.857906     1.621274     1.666906
H         -0.315526     2.168674     2.538856
O          1.430544    -2.203104    -0.374068
H          0.802760    -1.465357    -0.109589
H          2.163364    -2.326051     0.230939
O         -2.107879    -1.075061    -1.420751
H         -1.468864    -0.523104    -0.966716
H         -2.939395    -0.987639    -0.873767
O          1.169294     1.920077    -2.056293
H          0.738830     1.355211    -1.379914
H          1.743484     1.303436    -2.480539
O         -1.806412     1.932441     0.047936
H         -1.097988     1.281221     0.130003
H         -1.594507     2.797864     0.448413

units ang
no_reorient
no_com
symmetry c1
}

set {
basis        aug-cc-pVTZ
scf_type     df
}

energy("mp2")
--------------------------------------------------------------------------

    Molecular point group: c1

    Geometry (in Angstrom), charge = -1, multiplicity = 1:

       Center              X                  Y                   Z               Mass
    ------------   -----------------  -----------------  -----------------  -----------------
         F            0.000000000000     0.000000000000     0.000000000000    18.998403162730
         O           -0.397648000000    -0.910418000000     2.622164000000    15.994914619570
         H           -0.278439000000    -0.332943000000     1.846098000000     1.007825032230
         H           -0.948382000000    -1.629149000000     2.239891000000     1.007825032230
         O            0.397013000000     2.439291000000     1.895123000000    15.994914619570
         H            0.857906000000     1.621274000000     1.666906000000     1.007825032230
         H           -0.315526000000     2.168674000000     2.538856000000     1.007825032230
         O            1.430544000000    -2.203104000000    -0.374068000000    15.994914619570
         H            0.802760000000    -1.465357000000    -0.109589000000     1.007825032230
         H            2.163364000000    -2.326051000000     0.230939000000     1.007825032230
         O           -2.107879000000    -1.075061000000    -1.420751000000    15.994914619570
         H           -1.468864000000    -0.523104000000    -0.966716000000     1.007825032230
         H           -2.939395000000    -0.987639000000    -0.873767000000     1.007825032230
         O            1.169294000000     1.920077000000    -2.056293000000    15.994914619570
         H            0.738830000000     1.355211000000    -1.379914000000     1.007825032230
         H            1.743484000000     1.303436000000    -2.480539000000     1.007825032230
         O           -1.806412000000     1.932441000000     0.047936000000    15.994914619570
         H           -1.097988000000     1.281221000000     0.130003000000     1.007825032230
         H           -1.594507000000     2.797864000000     0.448413000000     1.007825032230

  Charge       = -1
  Multiplicity = 1
  Basis Set: AUG-CC-PVTZ
    Blend: AUG-CC-PVTZ
  Basis Set: (AUG-CC-PVTZ AUX)
    Blend: AUG-CC-PVTZ-JKFIT

    Orbital Energies [Eh]
    ---------------------

    Doubly Occupied:

       1A    -26.017172     2A    -20.444945     3A    -20.427757
       4A    -20.412021     5A    -20.402128     6A    -20.393721
       7A    -20.389509     8A     -1.289464     9A     -1.218511
      10A     -1.204477    11A     -1.198777    12A     -1.177686
      13A     -1.171139    14A     -1.168310    15A     -0.585177
      16A     -0.573533    17A     -0.565187    18A     -0.556710
      19A     -0.555727    20A     -0.543621    21A     -0.459462
      22A     -0.457715    23A     -0.440652    24A     -0.429479
      25A     -0.425266    26A     -0.407017    27A     -0.377819
      28A     -0.376406    29A     -0.372167    30A     -0.367962
      31A     -0.357437    32A     -0.355275    33A     -0.342453
      34A     -0.337173    35A     -0.335963

  @DF-RHF Final Energy:  -555.91943442332115

   => Energetics <=

    Nuclear Repulsion Energy =            355.8128539147094784
    One-Electron Energy =               -1491.1889334962336306
    Two-Electron Energy =                 579.4566451582030595
    Total Energy =                       -555.9194344233211496
 Dipole X            :         24.7317432          -24.2970800            0.4346632
 Dipole Y            :        -38.4919140           37.9631711           -0.5287429
 Dipole Z            :        -15.8298079           17.0140906            1.1842827
 Magnitude           :                                                    1.3678548
  Basis Set: (AUG-CC-PVTZ AUX)
    Blend: AUG-CC-PVTZ-RI
	 Reference Energy          =    -555.9194344233211496 [Eh]
	 Singles Energy            =      -0.0000000000000000 [Eh]
	 Same-Spin Energy          =      -0.5042474847577402 [Eh]
	 Opposite-Spin Energy      =      -1.5365277933652133 [Eh]
	 Correlation Energy        =      -2.0407752781229536 [Eh]
	 Total Energy              =    -557.9602097014441142 [Eh]

	 ================> DF-SCS-MP2 Energies <==================
	-----------------------------------------------------------
	 SCS Same-Spin Scale       =       0.3333333333333333 [-]
	 SCS Opposite-Spin Scale   =       1.2000000000000000 [-]
	 SCS Same-Spin Energy      =      -0.1680824949192467 [Eh]
	 SCS Opposite-Spin Energy  =      -1.8438333520382559 [Eh]
	 SCS Correlation Energy    =      -2.0119158469575025 [Eh]
	 SCS Total Energy          =    -557.9313502702786991 [Eh]
	-----------------------------------------------------------

*** Psi4 exiting successfully. Buy a developer a beer!
