                               Psi4 1.8.2 release

  ==> Input File <==

--------------------------------------------------------------------------
MEMORY 60 GB

molecule dimer {
-1 1
F          0.000000     0.000000     0.000000
Gh(O)     -1.251116    -1.324241     1.858701
Gh(H)     -0.644750    -1.144723     1.133580
Gh(H)     -1.241253    -0.487636     2.348342
Gh(O)     -0.962366    -2.269385    -1.669304
Gh(H)     -0.867402    -1.542612    -1.090180
Gh(H)     -1.783634    -2.711967    -1.474651
Gh(O)      2.005604    -2.181428    -0.280141
Gh(H)      1.372139    -1.457922    -0.354971
Gh(H)      2.139229    -2.266705     0.685608
Gh(O)     -0.128590     2.176756     1.552053
Gh(H)     -0.060687     1.399457     1.025673
Gh(H)     -0.705954     2.013435     2.266419
Gh(O)     -2.791118     0.791832    -0.581116
Gh(H)     -1.861301     0.475451    -0.426954
Gh(H)     -2.961146     1.432019     0.088729

units ang
no_reorient
no_com
symmetry c1
}

set {
basis        aug-cc-pVTZ
scf_type     df
}

energy("mp2")
--------------------------------------------------------------------------

    Molecular point group: c1

    Geometry (in Angstrom), charge = -1, multiplicity = 1:

       Center              X                  Y                   Z               Mass
    ------------   -----------------  -----------------  -----------------  -----------------
         F            0.000000000000     0.000000000000     0.000000000000    18.998403162730
      Gh(O)          -1.251116000000    -1.324241000000     1.858701000000    15.994914619570
      Gh(H)          -0.644750000000    -1.144723000000     1.133580000000     1.007825032230
      Gh(H)          -1.241253000000    -0.487636000000     2.348342000000     1.007825032230
      Gh(O)          -0.962366000000    -2.269385000000    -1.669304000000    15.994914619570
      Gh(H)          -0.867402000000    -1.542612000000    -1.090180000000     1.007825032230
      Gh(H)          -1.783634000000    -2.711967000000    -1.474651000000     1.007825032230
      Gh(O)           2.005604000000    -2.181428000000    -0.280141000000    15.994914619570
      Gh(H)           1.372139000000    -1.457922000000    -0.354971000000     1.007825032230
      Gh(H)           2.139229000000    -2.266705000000     0.685608000000     1.007825032230
      Gh(O)          -0.128590000000     2.176756000000     1.552053000000    15.994914619570
      Gh(H)          -0.060687000000     1.399457000000     1.025673000000     1.007825032230
      Gh(H)          -0.705954000000     2.013435000000     2.266419000000     1.007825032230
      Gh(O)          -2.791118000000     0.791832000000    -0.581116000000    15.994914619570
      Gh(H)          -1.861301000000     0.475451000000    -0.426954000000     1.007825032230
      Gh(H)          -2.961146000000     1.432019000000     0.088729000000     1.007825032230

  Charge       = -1
  Multiplicity = 1
  Basis Set: AUG-CC-PVTZ
    Blend: AUG-CC-PVTZ
  Basis Set: (AUG-CC-PVTZ AUX)
    Blend: AUG-CC-PVTZ-JKFIT

    Orbital Energies [Eh]
    ---------------------

    Doubly Occupied:

       1A    -25.833585     2A     -1.075898     3A     -0.180946
       4A     -0.180906     5A     -0.180884

  @DF-RHF Final Energy:   -99.45111002884951

   => Energetics <=

    Nuclear Repulsion Energy =              0.0000000000000000
    One-Electron Energy =                -143.9977723254276043
    Two-Electron Energy =                  44.5466622965780772
    Total Energy =                        -99.4511100288495271
 Dipole X            :         -0.0003611            0.0000000           -0.0003611
 Dipole Y            :         -0.0002523            0.0000000           -0.0002523
 Dipole Z            :          0.0002560            0.0000000            0.0002560
 Magnitude           :                                                    0.0005095
  Basis Set: (AUG-CC-PVTZ AUX)
    Blend: AUG-CC-PVTZ-RI
	 Reference Energy          =     -99.4511100288495129 [Eh]
	 Singles Energy            =      -0.0000000000000000 [Eh]
	 Same-Spin Energy          =      -0.0820300276562025 [Eh]
	 Opposite-Spin Energy      =      -0.2299246459935328 [Eh]
	 Correlation Energy        =      -0.3119546736497353 [Eh]
	 Total Energy              =     -99.7630647024992498 [Eh]

	 ================> DF-SCS-MP2 Energies <==================
	-----------------------------------------------------------
	 SCS Same-Spin Scale       =       0.3333333333333333 [-]
	 SCS Opposite-Spin Scale   =       1.2000000000000000 [-]
	 SCS Same-Spin Energy      =      -0.0273433425520675 [Eh]
	 SCS Opposite-Spin Energy  =      -0.2759095751922393 [Eh]
	 SCS Correlation Energy    =      -0.3032529177443068 [Eh]
	 SCS Total Energy          =     -99.7543629465938153 [Eh]
	-----------------------------------------------------------

*** Psi4 exiting successfully. Buy a developer a beer!
