                               Psi4 1.8.2 release

  ==> Input File <==

--------------------------------------------------------------------------
MEMORY 60 GB

molecule dimer {
0 1
Gh(F)      0.000000     0.000000     0.000000
Gh(O)     -0.504269     2.615845     0.858712
Gh(H)     -0.368841     1.747318     0.502742
Gh(H)     -0.320597     2.565113     1.799174
Gh(O)     -1.503618    -1.315665    -1.986342
Gh(H)     -2.280667    -0.801501    -2.366013
Gh(H)     -1.171011    -0.825309    -1.270502
Gh(O)      2.723573    -0.791721     0.593434
Gh(H)      1.984339    -0.306086     0.872898
Gh(H)      2.496015    -1.256115    -0.252519
Gh(O)     -0.166216    -0.566886     2.722248
Gh(H)     -0.104215    -0.470380     1.811756
Gh(H)      0.267185    -1.405528     2.999724
O          1.430300     1.446224    -1.905269
H          2.087411     1.977584    -1.375924
H          0.975354     0.908102    -1.325386

units ang
no_reorient
no_com
symmetry c1
}

set {
basis        aug-cc-pVTZ
scf_type     df
}

energy("mp2")
--------------------------------------------------------------------------

    Molecular point group: c1

    Geometry (in Angstrom), charge = 0, multiplicity = 1:

       Center              X                  Y                   Z               Mass
    ------------   -----------------  -----------------  -----------------  -----------------
      Gh(F)           0.000000000000     0.000000000000     0.000000000000    18.998403162730
      Gh(O)          -0.504269000000     2.615845000000     0.858712000000    15.994914619570
      Gh(H)          -0.368841000000     1.747318000000     0.502742000000     1.007825032230
      Gh(H)          -0.320597000000     2.565113000000     1.799174000000     1.007825032230
      Gh(O)          -1.503618000000    -1.315665000000    -1.986342000000    15.994914619570
      Gh(H)          -2.280667000000    -0.801501000000    -2.366013000000     1.007825032230
      Gh(H)          -1.171011000000    -0.825309000000    -1.270502000000     1.007825032230
      Gh(O)           2.723573000000    -0.791721000000     0.593434000000    15.994914619570
      Gh(H)           1.984339000000    -0.306086000000     0.872898000000     1.007825032230
      Gh(H)           2.496015000000    -1.256115000000    -0.252519000000     1.007825032230
      Gh(O)          -0.166216000000    -0.566886000000     2.722248000000    15.994914619570
      Gh(H)          -0.104215000000    -0.470380000000     1.811756000000     1.007825032230
      Gh(H)           0.267185000000    -1.405528000000     2.999724000000     1.007825032230
         O            1.430300000000     1.446224000000    -1.905269000000    15.994914619570
         H            2.087411000000     1.977584000000    -1.375924000000     1.007825032230
         H            0.975354000000     0.908102000000    -1.325386000000     1.007825032230

  Charge       = 0
  Multiplicity = 1
  Basis Set: AUG-CC-PVTZ
    Blend: AUG-CC-PVTZ
  Basis Set: (AUG-CC-PVTZ AUX)
    Blend: AUG-CC-PVTZ-JKFIT

    Orbital Energies [Eh]
    ---------------------

    Doubly Occupied:

       1A    -20.564863     2A     -1.354200     3A     -0.725826
       4A     -0.578438     5A     -0.509706

  @DF-RHF Final Energy:   -76.05710279118601

   => Energetics <=

    Nuclear Repulsion Energy =              9.2271557456610989
    One-Electron Energy =                -123.1024475383414938
    Two-Electron Energy =                  37.8181890014943960
    Total Energy =                        -76.0571027911859971
 Dipole X            :        -27.2844897           27.4107893            0.1262996
 Dipole Y            :        -27.3310218           27.3168944           -0.0141274
 Dipole Z            :         34.6558392          -33.9082289            0.7476102
 Magnitude           :                                                    0.7583352
  Basis Set: (AUG-CC-PVTZ AUX)
    Blend: AUG-CC-PVTZ-RI
	 Reference Energy          =     -76.0571027911860114 [Eh]
	 Singles Energy            =      -0.0000000000000000 [Eh]
	 Same-Spin Energy          =      -0.0682949006065437 [Eh]
	 Opposite-Spin Energy      =      -0.2160040392733679 [Eh]
	 Correlation Energy        =      -0.2842989398799116 [Eh]
	 Total Energy              =     -76.3414017310659290 [Eh]

	 ================> DF-SCS-MP2 Energies <==================
	-----------------------------------------------------------
	 SCS Same-Spin Scale       =       0.3333333333333333 [-]
	 SCS Opposite-Spin Scale   =       1.2000000000000000 [-]
	 SCS Same-Spin Energy      =      -0.0227649668688479 [Eh]
	 SCS Opposite-Spin Energy  =      -0.2592048471280415 [Eh]
	 SCS Correlation Energy    =      -0.2819698139968894 [Eh]
	 SCS Total Energy          =     -76.3390726051829063 [Eh]
	-----------------------------------------------------------

*** Psi4 exiting successfully. Buy a developer a beer!
