                               Psi4 1.8.2 release

  ==> Input File <==

--------------------------------------------------------------------------
MEMORY 60 GB

molecule dimer {
0 1
Gh(F)      0.000000     0.000000     0.000000
O         -0.499858     2.656083    -0.452516
H         -0.568811     1.780548    -0.057749
H         -0.971596     2.655662    -1.273282
Gh(O)      2.032753     1.165306     1.191711
Gh(H)      1.862455     1.191590     2.129967
Gh(H)      1.311241     0.610980     0.867723
Gh(O)      1.503412    -0.706894    -2.146729
Gh(H)      2.318272    -0.158179    -2.419535
Gh(H)      1.004696    -0.164797    -1.460316
Gh(O)     -1.040215     0.023420     2.545448
Gh(H)     -0.674650     0.273310     1.628852
Gh(H)     -1.234537     0.904277     2.858910

units ang
no_reorient
no_com
symmetry c1
}

set {
basis        aug-cc-pVTZ
scf_type     df
}

energy("mp2")
--------------------------------------------------------------------------

    Molecular point group: c1

    Geometry (in Angstrom), charge = 0, multiplicity = 1:

       Center              X                  Y                   Z               Mass
    ------------   -----------------  -----------------  -----------------  -----------------
      Gh(F)           0.000000000000     0.000000000000     0.000000000000    18.998403162730
         O           -0.499858000000     2.656083000000    -0.452516000000    15.994914619570
         H           -0.568811000000     1.780548000000    -0.057749000000     1.007825032230
         H           -0.971596000000     2.655662000000    -1.273282000000     1.007825032230
      Gh(O)           2.032753000000     1.165306000000     1.191711000000    15.994914619570
      Gh(H)           1.862455000000     1.191590000000     2.129967000000     1.007825032230
      Gh(H)           1.311241000000     0.610980000000     0.867723000000     1.007825032230
      Gh(O)           1.503412000000    -0.706894000000    -2.146729000000    15.994914619570
      Gh(H)           2.318272000000    -0.158179000000    -2.419535000000     1.007825032230
      Gh(H)           1.004696000000    -0.164797000000    -1.460316000000     1.007825032230
      Gh(O)          -1.040215000000     0.023420000000     2.545448000000    15.994914619570
      Gh(H)          -0.674650000000     0.273310000000     1.628852000000     1.007825032230
      Gh(H)          -1.234537000000     0.904277000000     2.858910000000     1.007825032230

  Charge       = 0
  Multiplicity = 1
  Basis Set: AUG-CC-PVTZ
    Blend: AUG-CC-PVTZ
  Basis Set: (AUG-CC-PVTZ AUX)
    Blend: AUG-CC-PVTZ-JKFIT

    Orbital Energies [Eh]
    ---------------------

    Doubly Occupied:

       1A    -20.564814     2A     -1.351954     3A     -0.726966
       4A     -0.577308     5A     -0.509337

  @DF-RHF Final Energy:   -76.06054993246725

   => Energetics <=

    Nuclear Repulsion Energy =              9.2096410640570188
    One-Electron Energy =                -123.0796204774857472
    Two-Electron Energy =                  37.8094294809614553
    Total Energy =                        -76.0605499324672678
 Dipole X            :         10.1016574          -10.4677051           -0.3660477
 Dipole Y            :        -49.1273484           48.5373774           -0.5899709
 Dipole Z            :          9.0672496           -9.3563345           -0.2890849
 Magnitude           :                                                    0.7520816
  Basis Set: (AUG-CC-PVTZ AUX)
    Blend: AUG-CC-PVTZ-RI
	 Reference Energy          =     -76.0605499324672536 [Eh]
	 Singles Energy            =      -0.0000000000000000 [Eh]
	 Same-Spin Energy          =      -0.0683071579360200 [Eh]
	 Opposite-Spin Energy      =      -0.2156055168436734 [Eh]
	 Correlation Energy        =      -0.2839126747796933 [Eh]
	 Total Energy              =     -76.3444626072469532 [Eh]

	 ================> DF-SCS-MP2 Energies <==================
	-----------------------------------------------------------
	 SCS Same-Spin Scale       =       0.3333333333333333 [-]
	 SCS Opposite-Spin Scale   =       1.2000000000000000 [-]
	 SCS Same-Spin Energy      =      -0.0227690526453400 [Eh]
	 SCS Opposite-Spin Energy  =      -0.2587266202124080 [Eh]
	 SCS Correlation Energy    =      -0.2814956728577480 [Eh]
	 SCS Total Energy          =     -76.3420456053249978 [Eh]
	-----------------------------------------------------------

*** Psi4 exiting successfully. Buy a developer a beer!
