                               Psi4 1.8.2 release

  ==> Input File <==

--------------------------------------------------------------------------
MEMORY 60 GB

molecule dimer {
-1 1
F          0.000000     0.000000     0.000000
Gh(O)      1.085350    -0.452967    -2.498595
Gh(H)      0.740226    -0.290867    -1.628710
Gh(H)      1.712584     0.278333    -2.718517
Gh(O)      2.724779     1.025508     1.044409
Gh(H)      1.842746     0.753869     0.654207
Gh(H)      2.827630     0.510970     1.864390
Gh(O)      0.347464     2.793856    -0.347316
Gh(H)      0.359101     1.813032    -0.464677
Gh(H)      1.260776     3.131718    -0.519961
Gh(O)     -0.522190    -0.709648     2.712844
Gh(H)     -1.491139    -0.927418     2.859256
Gh(H)     -0.468495    -0.514250     1.793049
Gh(O)      1.416063    -2.457372     0.057633
Gh(H)      0.659838    -3.068519     0.149532
Gh(H)      0.955921    -1.620980    -0.132078
Gh(O)     -2.262354    -0.569114    -1.491409
Gh(H)     -1.655329    -0.029416    -0.956922
Gh(H)     -2.394828    -1.281723    -0.858167

units ang
no_reorient
no_com
symmetry c1
}

set {
basis        aug-cc-pVTZ
scf_type     df
}

energy("mp2")
--------------------------------------------------------------------------

    Molecular point group: c1

    Geometry (in Angstrom), charge = -1, multiplicity = 1:

       Center              X                  Y                   Z               Mass
    ------------   -----------------  -----------------  -----------------  -----------------
         F            0.000000000000     0.000000000000     0.000000000000    18.998403162730
      Gh(O)           1.085350000000    -0.452967000000    -2.498595000000    15.994914619570
      Gh(H)           0.740226000000    -0.290867000000    -1.628710000000     1.007825032230
      Gh(H)           1.712584000000     0.278333000000    -2.718517000000     1.007825032230
      Gh(O)           2.724779000000     1.025508000000     1.044409000000    15.994914619570
      Gh(H)           1.842746000000     0.753869000000     0.654207000000     1.007825032230
      Gh(H)           2.827630000000     0.510970000000     1.864390000000     1.007825032230
      Gh(O)           0.347464000000     2.793856000000    -0.347316000000    15.994914619570
      Gh(H)           0.359101000000     1.813032000000    -0.464677000000     1.007825032230
      Gh(H)           1.260776000000     3.131718000000    -0.519961000000     1.007825032230
      Gh(O)          -0.522190000000    -0.709648000000     2.712844000000    15.994914619570
      Gh(H)          -1.491139000000    -0.927418000000     2.859256000000     1.007825032230
      Gh(H)          -0.468495000000    -0.514250000000     1.793049000000     1.007825032230
      Gh(O)           1.416063000000    -2.457372000000     0.057633000000    15.994914619570
      Gh(H)           0.659838000000    -3.068519000000     0.149532000000     1.007825032230
      Gh(H)           0.955921000000    -1.620980000000    -0.132078000000     1.007825032230
      Gh(O)          -2.262354000000    -0.569114000000    -1.491409000000    15.994914619570
      Gh(H)          -1.655329000000    -0.029416000000    -0.956922000000     1.007825032230
      Gh(H)          -2.394828000000    -1.281723000000    -0.858167000000     1.007825032230

  Charge       = -1
  Multiplicity = 1
  Basis Set: AUG-CC-PVTZ
    Blend: AUG-CC-PVTZ
  Basis Set: (AUG-CC-PVTZ AUX)
    Blend: AUG-CC-PVTZ-JKFIT

    Orbital Energies [Eh]
    ---------------------

    Doubly Occupied:

       1A    -25.833496     2A     -1.075858     3A     -0.180900
       4A     -0.180891     5A     -0.180876

  @DF-RHF Final Energy:   -99.45115117331542

   => Energetics <=

    Nuclear Repulsion Energy =              0.0000000000000000
    One-Electron Energy =                -143.9982522233144380
    Two-Electron Energy =                  44.5471010499990143
    Total Energy =                        -99.4511511733154236
 Dipole X            :          0.0001575            0.0000000            0.0001575
 Dipole Y            :         -0.0000656            0.0000000           -0.0000656
 Dipole Z            :         -0.0000680            0.0000000           -0.0000680
 Magnitude           :                                                    0.0001837
  Basis Set: (AUG-CC-PVTZ AUX)
    Blend: AUG-CC-PVTZ-RI
	 Reference Energy          =     -99.4511511733154236 [Eh]
	 Singles Energy            =      -0.0000000000000000 [Eh]
	 Same-Spin Energy          =      -0.0820811292866269 [Eh]
	 Opposite-Spin Energy      =      -0.2302637460179139 [Eh]
	 Correlation Energy        =      -0.3123448753045408 [Eh]
	 Total Energy              =     -99.7634960486199702 [Eh]

	 ================> DF-SCS-MP2 Energies <==================
	-----------------------------------------------------------
	 SCS Same-Spin Scale       =       0.3333333333333333 [-]
	 SCS Opposite-Spin Scale   =       1.2000000000000000 [-]
	 SCS Same-Spin Energy      =      -0.0273603764288756 [Eh]
	 SCS Opposite-Spin Energy  =      -0.2763164952214966 [Eh]
	 SCS Correlation Energy    =      -0.3036768716503723 [Eh]
	 SCS Total Energy          =     -99.7548280449657909 [Eh]
	-----------------------------------------------------------

*** Psi4 exiting successfully. Buy a developer a beer!
