                               Psi4 1.9 release

  ==> Input File <==

--------------------------------------------------------------------------
MEMORY 60 GB

molecule dimer {
-1 1
F      0.000000     0.000000     0.000000
--
0 1
O     -1.099415     0.509468    -2.395867
H     -0.823277     0.145981    -1.541676
H     -1.890375     0.027373    -2.614284
O      0.238498     2.462715     1.298490
H      0.012979     3.164109     0.695784
H      0.008055     1.642894     0.840179
O      0.322958    -1.372463     2.497652
H     -0.493733    -1.781919     2.917983
H      0.095175    -0.785721     1.771503
O     -2.636381    -0.435403     0.978292
H     -1.761899    -0.148892     0.629044
H     -3.224729     0.257191     0.655683
O      2.875216     1.167609    -0.219419
H      2.072560     0.692871    -0.290350
H      3.166030     1.069334     0.690007

units ang
no_reorient
no_com
symmetry c1
}

set {
basis        aug-cc-pVTZ
scf_type     df
}

energy("mp2", bsse_type="cp")
--------------------------------------------------------------------------

                               Psi4 1.9 release
    Molecular point group: c1
  Charge       = 0
  Multiplicity = 1
  Basis Set: AUG-CC-PVTZ
    Blend: AUG-CC-PVTZ
  Basis Set: (AUG-CC-PVTZ AUX)
    Blend: AUG-CC-PVTZ-JKFIT
  @DF-RHF Final Energy:  -380.28297583262633
    Total Energy =                       -380.2829758326263345
 Dipole X            :          8.3200010           -9.8874364           -1.5674353
 Dipole Y            :        -43.5349295           43.3477265           -0.1872030
 Dipole Z            :        -40.0516715           39.7353790           -0.3162926
 Magnitude           :                                                    1.6099502
  Basis Set: (AUG-CC-PVTZ AUX)
    Blend: AUG-CC-PVTZ-RI
	 Reference Energy          =    -380.2829758326263345 [Eh]
	 Singles Energy            =      -0.0000000000000000 [Eh]
	 Same-Spin Energy          =      -0.3444814290432422 [Eh]
	 Opposite-Spin Energy      =      -1.0841260166748010 [Eh]
	 Correlation Energy        =      -1.4286074457180433 [Eh]
	 Total Energy              =    -381.7115832783443921 [Eh]
	 SCS Total Energy          =    -381.6987541956505083 [Eh]
                               Psi4 1.9 release
    Molecular point group: c1
  Multiplicity = 1
  Basis Set: AUG-CC-PVTZ
    Blend: AUG-CC-PVTZ
  Basis Set: (AUG-CC-PVTZ AUX)
    Blend: AUG-CC-PVTZ-JKFIT
  @DF-RHF Final Energy:   -99.45109983436673
    Total Energy =                        -99.4510998343667296
  Basis Set: (AUG-CC-PVTZ AUX)
	 Singles Energy            =      -0.0000000000000000 [Eh]
	 Same-Spin Energy          =      -0.0820336228703637 [Eh]
	 Opposite-Spin Energy      =      -0.2299278686439624 [Eh]
	 Correlation Energy        =      -0.3119614915143261 [Eh]
	 Total Energy              =     -99.7630613258810541 [Eh]
	 SCS Total Energy          =     -99.7543578176962740 [Eh]
                               Psi4 1.9 release
    Molecular point group: c1

    Geometry (in Bohr), charge = -1, multiplicity = 1:

       Center              X                  Y                   Z               Mass
    ------------   -----------------  -----------------  -----------------  -----------------
         F            0.000000000000     0.000000000000     0.000000000000    18.998403162730
         O           -2.077593248220     0.962754989685    -4.527532463022    15.994914619570
         H           -1.555768055389     0.275864109520    -2.913345414191     1.007825032230
         H           -3.572291024412     0.051727473232    -4.940280774166     1.007825032230
         O            0.450695901469     4.653856875057     2.453790476646    15.994914619570
         H            0.024526755382     5.979299441096     1.314841202476     1.007825032230
         H            0.015221743941     3.104619713158     1.587708206361     1.007825032230
         O            0.610302170026    -2.593579187324     4.719878236702    15.994914619570
         H           -0.933020149101    -3.367338887750     5.514188708742     1.007825032230
         H            0.179854683990    -1.484797501021     3.347655500427     1.007825032230
         O           -4.982038052361    -0.822792424203     1.848703950726    15.994914619570
         H           -3.329506570718    -0.281365102272     1.188720880862     1.007825032230
         H           -6.093854638821     0.486020551933     1.239061295119     1.007825032230
         O            5.433370791534     2.206461231620    -0.414641816722    15.994914619570
         H            3.916570778579     1.309336430272    -0.548681980527     1.007825032230
         H            5.982929604983     2.020748396640     1.303924254649     1.007825032230

  Charge       = -1
  Multiplicity = 1
  Basis Set: AUG-CC-PVTZ
    Blend: AUG-CC-PVTZ
  Basis Set: (AUG-CC-PVTZ AUX)
    Blend: AUG-CC-PVTZ-JKFIT

    Orbital Energies [Eh]
    ---------------------

    Doubly Occupied:

       1A    -25.988604     2A    -20.418789     3A    -20.401861
       4A    -20.401647     5A    -20.400868     6A    -20.396168
       7A     -1.254154     8A     -1.198130     9A     -1.196026
      10A     -1.189188    11A     -1.184395    12A     -1.171733
      13A     -0.567019    14A     -0.562887    15A     -0.559848
      16A     -0.554456    17A     -0.551189    18A     -0.446319
      19A     -0.430493    20A     -0.427100    21A     -0.423563
      22A     -0.408175    23A     -0.363288    24A     -0.359127
      25A     -0.353725    26A     -0.346736    27A     -0.343114
      28A     -0.342177    29A     -0.337065    30A     -0.336244

  @DF-RHF Final Energy:  -479.86087109762798

   => Energetics <=

    Nuclear Repulsion Energy =            260.2295001762324773
    One-Electron Energy =               -1194.3525611376335291
    Two-Electron Energy =                 454.2621898637730737
    Total Energy =                       -479.8608710976279781
 Dipole X            :          8.6685927           -9.8874364           -1.2188437
 Dipole Y            :        -43.8643024           43.3477265           -0.5165759
 Dipole Z            :        -40.2899604           39.7353790           -0.5545814
 Magnitude           :                                                    1.4352669
  Basis Set: (AUG-CC-PVTZ AUX)
    Blend: AUG-CC-PVTZ-RI
	 Reference Energy          =    -479.8608710976279781 [Eh]
	 Singles Energy            =      -0.0000000000000000 [Eh]
	 Same-Spin Energy          =      -0.4315723754084022 [Eh]
	 Opposite-Spin Energy      =      -1.3135911762801733 [Eh]
	 Correlation Energy        =      -1.7451635516885755 [Eh]
	 Total Energy              =    -481.6060346493165412 [Eh]

	 ================> DF-SCS-MP2 Energies <==================
	-----------------------------------------------------------
	 SCS Same-Spin Scale       =       0.3333333333333333 [-]
	 SCS Opposite-Spin Scale   =       1.2000000000000000 [-]
	 SCS Same-Spin Energy      =      -0.1438574584694674 [Eh]
	 SCS Opposite-Spin Energy  =      -1.5763094115362080 [Eh]
	 SCS Correlation Energy    =      -1.7201668700056754 [Eh]
	 SCS Total Energy          =    -481.5810379676336765 [Eh]
	-----------------------------------------------------------

*** Psi4 exiting successfully. Buy a developer a beer!
