                               Psi4 1.8.2 release

  ==> Input File <==

--------------------------------------------------------------------------
MEMORY 60 GB

molecule dimer {
0 1
Gh(F)      0.000000     0.000000     0.000000
Gh(O)     -2.418799     1.224952     0.138152
Gh(H)     -2.380526     2.080135     0.563174
Gh(H)     -1.516178     0.901788     0.092656
Gh(O)      3.034813     0.347968     0.575749
Gh(H)      3.211453     0.285459     1.525305
Gh(H)      2.055606     0.112398     0.351073
Gh(O)     -0.259645    -2.392526    -1.185459
Gh(H)     -0.386119    -2.819401    -0.326599
Gh(H)     -0.049678    -1.447133    -1.040451
Gh(O)      1.007946    -1.594929     2.050955
Gh(H)      0.819578    -2.573084     2.042697
Gh(H)      0.499845    -1.168256     1.317571
O          0.179580     0.924429    -2.718430
H          0.785527     0.233681    -3.049861
H          0.103012     0.856389    -1.777860

units ang
no_reorient
no_com
symmetry c1
}

set {
basis        aug-cc-pVTZ
scf_type     df
}

energy("mp2")
--------------------------------------------------------------------------

    Molecular point group: c1

    Geometry (in Angstrom), charge = 0, multiplicity = 1:

       Center              X                  Y                   Z               Mass
    ------------   -----------------  -----------------  -----------------  -----------------
      Gh(F)           0.000000000000     0.000000000000     0.000000000000    18.998403162730
      Gh(O)          -2.418799000000     1.224952000000     0.138152000000    15.994914619570
      Gh(H)          -2.380526000000     2.080135000000     0.563174000000     1.007825032230
      Gh(H)          -1.516178000000     0.901788000000     0.092656000000     1.007825032230
      Gh(O)           3.034813000000     0.347968000000     0.575749000000    15.994914619570
      Gh(H)           3.211453000000     0.285459000000     1.525305000000     1.007825032230
      Gh(H)           2.055606000000     0.112398000000     0.351073000000     1.007825032230
      Gh(O)          -0.259645000000    -2.392526000000    -1.185459000000    15.994914619570
      Gh(H)          -0.386119000000    -2.819401000000    -0.326599000000     1.007825032230
      Gh(H)          -0.049678000000    -1.447133000000    -1.040451000000     1.007825032230
      Gh(O)           1.007946000000    -1.594929000000     2.050955000000    15.994914619570
      Gh(H)           0.819578000000    -2.573084000000     2.042697000000     1.007825032230
      Gh(H)           0.499845000000    -1.168256000000     1.317571000000     1.007825032230
         O            0.179580000000     0.924429000000    -2.718430000000    15.994914619570
         H            0.785527000000     0.233681000000    -3.049861000000     1.007825032230
         H            0.103012000000     0.856389000000    -1.777860000000     1.007825032230

  Charge       = 0
  Multiplicity = 1
  Basis Set: AUG-CC-PVTZ
    Blend: AUG-CC-PVTZ
  Basis Set: (AUG-CC-PVTZ AUX)
    Blend: AUG-CC-PVTZ-JKFIT

    Orbital Energies [Eh]
    ---------------------

    Doubly Occupied:

       1A    -20.565439     2A     -1.347978     3A     -0.725110
       4A     -0.573994     5A     -0.508444

  @DF-RHF Final Energy:   -76.05952433953644

   => Energetics <=

    Nuclear Repulsion Energy =              9.1449879450745506
    One-Electron Energy =                -122.9670890214903949
    Two-Electron Energy =                  37.7625767368793959
    Total Energy =                        -76.0595243395364520
 Dipole X            :         -4.0389753            4.3939515            0.3549762
 Dipole Y            :        -16.5450112           16.0352748           -0.5097364
 Dipole Z            :         50.6344789          -50.2197760            0.4147028
 Magnitude           :                                                    0.7468720
  Basis Set: (AUG-CC-PVTZ AUX)
    Blend: AUG-CC-PVTZ-RI
	 Reference Energy          =     -76.0595243395364378 [Eh]
	 Singles Energy            =      -0.0000000000000000 [Eh]
	 Same-Spin Energy          =      -0.0684025083017766 [Eh]
	 Opposite-Spin Energy      =      -0.2159599453338994 [Eh]
	 Correlation Energy        =      -0.2843624536356760 [Eh]
	 Total Energy              =     -76.3438867931721177 [Eh]

	 ================> DF-SCS-MP2 Energies <==================
	-----------------------------------------------------------
	 SCS Same-Spin Scale       =       0.3333333333333333 [-]
	 SCS Opposite-Spin Scale   =       1.2000000000000000 [-]
	 SCS Same-Spin Energy      =      -0.0228008361005922 [Eh]
	 SCS Opposite-Spin Energy  =      -0.2591519344006792 [Eh]
	 SCS Correlation Energy    =      -0.2819527705012714 [Eh]
	 SCS Total Energy          =     -76.3414771100377152 [Eh]
	-----------------------------------------------------------

*** Psi4 exiting successfully. Buy a developer a beer!
