                               Psi4 1.8.2 release

  ==> Input File <==

--------------------------------------------------------------------------
MEMORY 60 GB

molecule dimer {
0 1
Gh(F)      0.000000     0.000000     0.000000
Gh(O)     -1.926510    -0.488905     1.828209
Gh(H)     -1.218437    -0.291512     1.216095
Gh(H)     -1.943797     0.253946     2.436303
Gh(O)     -1.465982     2.344386    -0.959195
Gh(H)     -1.258918     1.474742    -0.673609
Gh(H)     -0.760802     2.572151    -1.640564
Gh(O)      1.781208     1.993985     0.947440
Gh(H)      2.722858     1.834958     1.158027
Gh(H)      1.404065     1.156182     0.633208
Gh(O)      0.920742    -0.070805    -2.597380
Gh(H)      0.201064     0.162434    -3.173783
Gh(H)      0.557053     0.093415    -1.736858
O          1.502065    -2.307810     0.115819
H          1.299950    -2.782798    -0.663331
H          1.063706    -1.409643     0.038071

units ang
no_reorient
no_com
symmetry c1
}

set {
basis        aug-cc-pVTZ
scf_type     df
}

energy("mp2")
--------------------------------------------------------------------------

    Molecular point group: c1

    Geometry (in Angstrom), charge = 0, multiplicity = 1:

       Center              X                  Y                   Z               Mass
    ------------   -----------------  -----------------  -----------------  -----------------
      Gh(F)           0.000000000000     0.000000000000     0.000000000000    18.998403162730
      Gh(O)          -1.926510000000    -0.488905000000     1.828209000000    15.994914619570
      Gh(H)          -1.218437000000    -0.291512000000     1.216095000000     1.007825032230
      Gh(H)          -1.943797000000     0.253946000000     2.436303000000     1.007825032230
      Gh(O)          -1.465982000000     2.344386000000    -0.959195000000    15.994914619570
      Gh(H)          -1.258918000000     1.474742000000    -0.673609000000     1.007825032230
      Gh(H)          -0.760802000000     2.572151000000    -1.640564000000     1.007825032230
      Gh(O)           1.781208000000     1.993985000000     0.947440000000    15.994914619570
      Gh(H)           2.722858000000     1.834958000000     1.158027000000     1.007825032230
      Gh(H)           1.404065000000     1.156182000000     0.633208000000     1.007825032230
      Gh(O)           0.920742000000    -0.070805000000    -2.597380000000    15.994914619570
      Gh(H)           0.201064000000     0.162434000000    -3.173783000000     1.007825032230
      Gh(H)           0.557053000000     0.093415000000    -1.736858000000     1.007825032230
         O            1.502065000000    -2.307810000000     0.115819000000    15.994914619570
         H            1.299950000000    -2.782798000000    -0.663331000000     1.007825032230
         H            1.063706000000    -1.409643000000     0.038071000000     1.007825032230

  Charge       = 0
  Multiplicity = 1
  Basis Set: AUG-CC-PVTZ
    Blend: AUG-CC-PVTZ
  Basis Set: (AUG-CC-PVTZ AUX)
    Blend: AUG-CC-PVTZ-JKFIT

    Orbital Energies [Eh]
    ---------------------

    Doubly Occupied:

       1A    -20.567618     2A     -1.346964     3A     -0.717026
       4A     -0.577084     5A     -0.508676

  @DF-RHF Final Energy:   -76.05747961417471

   => Energetics <=

    Nuclear Repulsion Energy =              9.0918007826904237
    One-Electron Energy =                -122.8638195293835906
    Two-Electron Energy =                  37.7145391325184605
    Total Energy =                        -76.0574796141746958
 Dipole X            :        -27.5998881           27.1745943           -0.4252939
 Dipole Y            :         43.0845512          -42.8115961            0.2729552
 Dipole Z            :         -1.1453592            0.5693594           -0.5759998
 Magnitude           :                                                    0.7662605
  Basis Set: (AUG-CC-PVTZ AUX)
    Blend: AUG-CC-PVTZ-RI
	 Reference Energy          =     -76.0574796141747100 [Eh]
	 Singles Energy            =      -0.0000000000000000 [Eh]
	 Same-Spin Energy          =      -0.0685405776258522 [Eh]
	 Opposite-Spin Energy      =      -0.2164934331215997 [Eh]
	 Correlation Energy        =      -0.2850340107474519 [Eh]
	 Total Energy              =     -76.3425136249221623 [Eh]

	 ================> DF-SCS-MP2 Energies <==================
	-----------------------------------------------------------
	 SCS Same-Spin Scale       =       0.3333333333333333 [-]
	 SCS Opposite-Spin Scale   =       1.2000000000000000 [-]
	 SCS Same-Spin Energy      =      -0.0228468592086174 [Eh]
	 SCS Opposite-Spin Energy  =      -0.2597921197459196 [Eh]
	 SCS Correlation Energy    =      -0.2826389789545370 [Eh]
	 SCS Total Energy          =     -76.3401185931292474 [Eh]
	-----------------------------------------------------------

*** Psi4 exiting successfully. Buy a developer a beer!
