                               Psi4 1.8.2 release

  ==> Input File <==

--------------------------------------------------------------------------
MEMORY 60 GB

molecule dimer {
-1 1
F          0.000000     0.000000     0.000000
Gh(O)      1.599440     1.216847     1.915026
Gh(H)      1.076424     0.939159     1.131161
Gh(H)      2.405637     0.730202     1.630886
Gh(O)     -1.950120     1.489343     1.254761
Gh(H)     -2.210763     2.196777     0.595546
Gh(H)     -1.188356     1.080520     0.800691
Gh(O)      2.106700    -1.786745     0.194161
Gh(H)      1.282870    -1.276896     0.082122
Gh(H)      2.847852    -1.236742     0.198292
Gh(O)     -1.971584    -2.024256    -0.027666
Gh(H)     -2.186941    -2.154435     0.910808
Gh(H)     -1.329755    -1.251018    -0.064590
Gh(O)      0.901895     0.402744    -2.703264
Gh(H)      0.603349     0.310057    -1.796013
Gh(H)      1.403576     1.255826    -2.725926

units ang
no_reorient
no_com
symmetry c1
}

set {
basis        aug-cc-pVTZ
scf_type     df
}

energy("mp2")
--------------------------------------------------------------------------

    Molecular point group: c1

    Geometry (in Angstrom), charge = -1, multiplicity = 1:

       Center              X                  Y                   Z               Mass
    ------------   -----------------  -----------------  -----------------  -----------------
         F            0.000000000000     0.000000000000     0.000000000000    18.998403162730
      Gh(O)           1.599440000000     1.216847000000     1.915026000000    15.994914619570
      Gh(H)           1.076424000000     0.939159000000     1.131161000000     1.007825032230
      Gh(H)           2.405637000000     0.730202000000     1.630886000000     1.007825032230
      Gh(O)          -1.950120000000     1.489343000000     1.254761000000    15.994914619570
      Gh(H)          -2.210763000000     2.196777000000     0.595546000000     1.007825032230
      Gh(H)          -1.188356000000     1.080520000000     0.800691000000     1.007825032230
      Gh(O)           2.106700000000    -1.786745000000     0.194161000000    15.994914619570
      Gh(H)           1.282870000000    -1.276896000000     0.082122000000     1.007825032230
      Gh(H)           2.847852000000    -1.236742000000     0.198292000000     1.007825032230
      Gh(O)          -1.971584000000    -2.024256000000    -0.027666000000    15.994914619570
      Gh(H)          -2.186941000000    -2.154435000000     0.910808000000     1.007825032230
      Gh(H)          -1.329755000000    -1.251018000000    -0.064590000000     1.007825032230
      Gh(O)           0.901895000000     0.402744000000    -2.703264000000    15.994914619570
      Gh(H)           0.603349000000     0.310057000000    -1.796013000000     1.007825032230
      Gh(H)           1.403576000000     1.255826000000    -2.725926000000     1.007825032230

  Charge       = -1
  Multiplicity = 1
  Basis Set: AUG-CC-PVTZ
    Blend: AUG-CC-PVTZ
  Basis Set: (AUG-CC-PVTZ AUX)
    Blend: AUG-CC-PVTZ-JKFIT

    Orbital Energies [Eh]
    ---------------------

    Doubly Occupied:

       1A    -25.833568     2A     -1.075892     3A     -0.180928
       4A     -0.180918     5A     -0.180887

  @DF-RHF Final Energy:   -99.45111317790816

   => Energetics <=

    Nuclear Repulsion Energy =              0.0000000000000000
    One-Electron Energy =                -143.9978337205063497
    Two-Electron Energy =                  44.5467205425981945
    Total Energy =                        -99.4511131779081552
 Dipole X            :          0.0000273            0.0000000            0.0000273
 Dipole Y            :         -0.0000173            0.0000000           -0.0000173
 Dipole Z            :          0.0000455            0.0000000            0.0000455
 Magnitude           :                                                    0.0000558
  Basis Set: (AUG-CC-PVTZ AUX)
    Blend: AUG-CC-PVTZ-RI
	 Reference Energy          =     -99.4511131779081552 [Eh]
	 Singles Energy            =      -0.0000000000000000 [Eh]
	 Same-Spin Energy          =      -0.0820671305525419 [Eh]
	 Opposite-Spin Energy      =      -0.2302296300613931 [Eh]
	 Correlation Energy        =      -0.3122967606139350 [Eh]
	 Total Energy              =     -99.7634099385220878 [Eh]

	 ================> DF-SCS-MP2 Energies <==================
	-----------------------------------------------------------
	 SCS Same-Spin Scale       =       0.3333333333333333 [-]
	 SCS Opposite-Spin Scale   =       1.2000000000000000 [-]
	 SCS Same-Spin Energy      =      -0.0273557101841806 [Eh]
	 SCS Opposite-Spin Energy  =      -0.2762755560736717 [Eh]
	 SCS Correlation Energy    =      -0.3036312662578523 [Eh]
	 SCS Total Energy          =     -99.7547444441660076 [Eh]
	-----------------------------------------------------------

*** Psi4 exiting successfully. Buy a developer a beer!
