                               Psi4 1.8.2 release

  ==> Input File <==

--------------------------------------------------------------------------
MEMORY 60 GB

molecule dimer {
-1 1
F          0.000000     0.000000     0.000000
O          1.943180    -1.481226    -1.533782
H          1.492731    -0.983818    -0.762784
H          2.895702    -1.591579    -1.366159
O         -0.762415     1.620087    -2.169231
H         -0.422253     1.106304    -1.431278
H         -0.462493     2.531093    -2.014487
O         -2.519270    -0.464213     1.233913
H         -1.590893    -0.214604     1.060676
H         -2.543855    -0.853043     2.077102
O          0.060032     2.294594     1.777243
H          1.059937     2.316459     1.901961
H         -0.003335     1.560682     1.110421
O          0.992398    -1.552165     2.215795
H          0.275212    -1.674051     2.882465
H          0.602353    -1.005947     1.522455
O         -1.286709    -1.923112    -1.483128
H         -0.842732    -1.225214    -0.978564
H         -0.645524    -2.673708    -1.551089

units ang
no_reorient
no_com
symmetry c1
}

set {
basis        aug-cc-pVTZ
scf_type     df
}

energy("mp2")
--------------------------------------------------------------------------

    Molecular point group: c1

    Geometry (in Angstrom), charge = -1, multiplicity = 1:

       Center              X                  Y                   Z               Mass
    ------------   -----------------  -----------------  -----------------  -----------------
         F            0.000000000000     0.000000000000     0.000000000000    18.998403162730
         O            1.943180000000    -1.481226000000    -1.533782000000    15.994914619570
         H            1.492731000000    -0.983818000000    -0.762784000000     1.007825032230
         H            2.895702000000    -1.591579000000    -1.366159000000     1.007825032230
         O           -0.762415000000     1.620087000000    -2.169231000000    15.994914619570
         H           -0.422253000000     1.106304000000    -1.431278000000     1.007825032230
         H           -0.462493000000     2.531093000000    -2.014487000000     1.007825032230
         O           -2.519270000000    -0.464213000000     1.233913000000    15.994914619570
         H           -1.590893000000    -0.214604000000     1.060676000000     1.007825032230
         H           -2.543855000000    -0.853043000000     2.077102000000     1.007825032230
         O            0.060032000000     2.294594000000     1.777243000000    15.994914619570
         H            1.059937000000     2.316459000000     1.901961000000     1.007825032230
         H           -0.003335000000     1.560682000000     1.110421000000     1.007825032230
         O            0.992398000000    -1.552165000000     2.215795000000    15.994914619570
         H            0.275212000000    -1.674051000000     2.882465000000     1.007825032230
         H            0.602353000000    -1.005947000000     1.522455000000     1.007825032230
         O           -1.286709000000    -1.923112000000    -1.483128000000    15.994914619570
         H           -0.842732000000    -1.225214000000    -0.978564000000     1.007825032230
         H           -0.645524000000    -2.673708000000    -1.551089000000     1.007825032230

  Charge       = -1
  Multiplicity = 1
  Basis Set: AUG-CC-PVTZ
    Blend: AUG-CC-PVTZ
  Basis Set: (AUG-CC-PVTZ AUX)
    Blend: AUG-CC-PVTZ-JKFIT

    Orbital Energies [Eh]
    ---------------------

    Doubly Occupied:

       1A    -26.022282     2A    -20.432116     3A    -20.431540
       4A    -20.422954     5A    -20.407558     6A    -20.399725
       7A    -20.379561     8A     -1.290672     9A     -1.208806
      10A     -1.200383    11A     -1.193937    12A     -1.185662
      13A     -1.182407    14A     -1.155293    15A     -0.579169
      16A     -0.575677    17A     -0.564895    18A     -0.553754
      19A     -0.548079    20A     -0.529357    21A     -0.455327
      22A     -0.452767    23A     -0.431884    24A     -0.426272
      25A     -0.422991    26A     -0.407544    27A     -0.378463
      28A     -0.376006    29A     -0.375395    30A     -0.366720
      31A     -0.364598    32A     -0.358969    33A     -0.354521
      34A     -0.343736    35A     -0.321319

  @DF-RHF Final Energy:  -555.91811526118749

   => Energetics <=

    Nuclear Repulsion Energy =            352.0602805766593519
    One-Electron Energy =               -1483.7561040925029374
    Two-Electron Energy =                 575.7777082546560905
    Total Energy =                       -555.9181152611874950
 Dipole X            :         26.1242044          -24.1269309            1.9972735
 Dipole Y            :         28.2407718          -27.8842431            0.3565287
 Dipole Z            :         -3.7639432            5.2481455            1.4842023
 Magnitude           :                                                    2.5137761
  Basis Set: (AUG-CC-PVTZ AUX)
    Blend: AUG-CC-PVTZ-RI
	 Reference Energy          =    -555.9181152611874950 [Eh]
	 Singles Energy            =      -0.0000000000000000 [Eh]
	 Same-Spin Energy          =      -0.5041595182931868 [Eh]
	 Opposite-Spin Energy      =      -1.5377916982575937 [Eh]
	 Correlation Energy        =      -2.0419512165507805 [Eh]
	 Total Energy              =    -557.9600664777382235 [Eh]

	 ================> DF-SCS-MP2 Energies <==================
	-----------------------------------------------------------
	 SCS Same-Spin Scale       =       0.3333333333333333 [-]
	 SCS Opposite-Spin Scale   =       1.2000000000000000 [-]
	 SCS Same-Spin Energy      =      -0.1680531727643956 [Eh]
	 SCS Opposite-Spin Energy  =      -1.8453500379091123 [Eh]
	 SCS Correlation Energy    =      -2.0134032106735078 [Eh]
	 SCS Total Energy          =    -557.9315184718609544 [Eh]
	-----------------------------------------------------------

*** Psi4 exiting successfully. Buy a developer a beer!
