                               Psi4 1.8.2 release

  ==> Input File <==

--------------------------------------------------------------------------
MEMORY 60 GB

molecule dimer {
0 1
Gh(F)      0.000000     0.000000     0.000000
Gh(O)      0.837524     0.653179     2.553921
Gh(H)      0.450484     0.492379     1.655690
Gh(H)      1.594760     0.044820     2.624147
Gh(O)      2.594542     0.172347    -1.320489
Gh(H)      2.132419     0.238275    -0.450632
Gh(H)      2.553603     1.076321    -1.724631
Gh(O)     -1.636542     0.886029    -2.279818
Gh(H)     -2.157956     0.116431    -2.594786
Gh(H)     -1.276453     0.610612    -1.388084
Gh(O)      1.537179    -2.637515     0.278263
Gh(H)      1.257767    -1.689888     0.387885
Gh(H)      0.903055    -3.046812    -0.310398
Gh(O)     -2.510626    -0.310738     1.625874
Gh(H)     -1.585188    -0.173293     1.439381
Gh(H)     -2.750973    -0.165710     2.541553
O          0.946957     2.640609    -0.101277
H          0.622536     1.701020    -0.141447
H          0.455089     3.126381    -0.849022

units ang
no_reorient
no_com
symmetry c1
}

set {
basis        aug-cc-pVTZ
scf_type     df
}

energy("mp2")
--------------------------------------------------------------------------

    Molecular point group: c1

    Geometry (in Angstrom), charge = 0, multiplicity = 1:

       Center              X                  Y                   Z               Mass
    ------------   -----------------  -----------------  -----------------  -----------------
      Gh(F)           0.000000000000     0.000000000000     0.000000000000    18.998403162730
      Gh(O)           0.837524000000     0.653179000000     2.553921000000    15.994914619570
      Gh(H)           0.450484000000     0.492379000000     1.655690000000     1.007825032230
      Gh(H)           1.594760000000     0.044820000000     2.624147000000     1.007825032230
      Gh(O)           2.594542000000     0.172347000000    -1.320489000000    15.994914619570
      Gh(H)           2.132419000000     0.238275000000    -0.450632000000     1.007825032230
      Gh(H)           2.553603000000     1.076321000000    -1.724631000000     1.007825032230
      Gh(O)          -1.636542000000     0.886029000000    -2.279818000000    15.994914619570
      Gh(H)          -2.157956000000     0.116431000000    -2.594786000000     1.007825032230
      Gh(H)          -1.276453000000     0.610612000000    -1.388084000000     1.007825032230
      Gh(O)           1.537179000000    -2.637515000000     0.278263000000    15.994914619570
      Gh(H)           1.257767000000    -1.689888000000     0.387885000000     1.007825032230
      Gh(H)           0.903055000000    -3.046812000000    -0.310398000000     1.007825032230
      Gh(O)          -2.510626000000    -0.310738000000     1.625874000000    15.994914619570
      Gh(H)          -1.585188000000    -0.173293000000     1.439381000000     1.007825032230
      Gh(H)          -2.750973000000    -0.165710000000     2.541553000000     1.007825032230
         O            0.946957000000     2.640609000000    -0.101277000000    15.994914619570
         H            0.622536000000     1.701020000000    -0.141447000000     1.007825032230
         H            0.455089000000     3.126381000000    -0.849022000000     1.007825032230

  Charge       = 0
  Multiplicity = 1
  Basis Set: AUG-CC-PVTZ
    Blend: AUG-CC-PVTZ
  Basis Set: (AUG-CC-PVTZ AUX)
    Blend: AUG-CC-PVTZ-JKFIT

    Orbital Energies [Eh]
    ---------------------

    Doubly Occupied:

       1A    -20.575080     2A     -1.329108     3A     -0.692928
       4A     -0.573865     5A     -0.506282

  @DF-RHF Final Energy:   -76.05296819083455

   => Energetics <=

    Nuclear Repulsion Energy =              8.7432692195152484
    One-Electron Energy =                -122.2379459897516369
    Two-Electron Energy =                  37.4417085794018547
    Total Energy =                        -76.0529681908345481
 Dipole X            :        -16.8797104           16.3523312           -0.5273792
 Dipole Y            :        -49.3399012           49.0426883           -0.2972129
 Dipole Z            :          2.8952551           -3.4028015           -0.5075464
 Magnitude           :                                                    0.7899796
  Basis Set: (AUG-CC-PVTZ AUX)
    Blend: AUG-CC-PVTZ-RI
	 Reference Energy          =     -76.0529681908345481 [Eh]
	 Singles Energy            =      -0.0000000000000000 [Eh]
	 Same-Spin Energy          =      -0.0692753359156343 [Eh]
	 Opposite-Spin Energy      =      -0.2190315018463843 [Eh]
	 Correlation Energy        =      -0.2883068377620187 [Eh]
	 Total Energy              =     -76.3412750285965700 [Eh]

	 ================> DF-SCS-MP2 Energies <==================
	-----------------------------------------------------------
	 SCS Same-Spin Scale       =       0.3333333333333333 [-]
	 SCS Opposite-Spin Scale   =       1.2000000000000000 [-]
	 SCS Same-Spin Energy      =      -0.0230917786385448 [Eh]
	 SCS Opposite-Spin Energy  =      -0.2628378022156612 [Eh]
	 SCS Correlation Energy    =      -0.2859295808542059 [Eh]
	 SCS Total Energy          =     -76.3388977716887496 [Eh]
	-----------------------------------------------------------

*** Psi4 exiting successfully. Buy a developer a beer!
