                               Psi4 1.8.2 release

  ==> Input File <==

--------------------------------------------------------------------------
MEMORY 60 GB

molecule dimer {
0 1
Gh(F)      0.000000     0.000000     0.000000
Gh(O)      2.510030    -0.661941    -0.832182
Gh(H)      3.047987     0.136114    -0.766474
Gh(H)      1.651515    -0.398683    -0.437510
Gh(O)     -1.861163     1.391541     1.823140
Gh(H)     -1.395324     0.891965     1.132552
Gh(H)     -2.167141     2.148676     1.326070
Gh(O)     -0.069818    -1.825737     1.950594
Gh(H)      0.658754    -2.446451     1.867536
Gh(H)     -0.032357    -1.190493     1.210077
Gh(O)      2.118804     1.277032     1.563138
Gh(H)      2.238847     0.825714     2.421086
Gh(H)      1.328717     0.912441     1.134542
O         -2.940937    -0.619005    -0.168957
H         -2.026060    -0.454747    -0.472925
H         -3.379101    -1.135452    -0.844734
Gh(O)      0.534776     0.816487    -2.672079
Gh(H)      0.728932     1.193376    -1.819618
Gh(H)     -0.414644     0.967166    -2.819436

units ang
no_reorient
no_com
symmetry c1
}

set {
basis        aug-cc-pVTZ
scf_type     df
}

energy("mp2")
--------------------------------------------------------------------------

    Molecular point group: c1

    Geometry (in Angstrom), charge = 0, multiplicity = 1:

       Center              X                  Y                   Z               Mass
    ------------   -----------------  -----------------  -----------------  -----------------
      Gh(F)           0.000000000000     0.000000000000     0.000000000000    18.998403162730
      Gh(O)           2.510030000000    -0.661941000000    -0.832182000000    15.994914619570
      Gh(H)           3.047987000000     0.136114000000    -0.766474000000     1.007825032230
      Gh(H)           1.651515000000    -0.398683000000    -0.437510000000     1.007825032230
      Gh(O)          -1.861163000000     1.391541000000     1.823140000000    15.994914619570
      Gh(H)          -1.395324000000     0.891965000000     1.132552000000     1.007825032230
      Gh(H)          -2.167141000000     2.148676000000     1.326070000000     1.007825032230
      Gh(O)          -0.069818000000    -1.825737000000     1.950594000000    15.994914619570
      Gh(H)           0.658754000000    -2.446451000000     1.867536000000     1.007825032230
      Gh(H)          -0.032357000000    -1.190493000000     1.210077000000     1.007825032230
      Gh(O)           2.118804000000     1.277032000000     1.563138000000    15.994914619570
      Gh(H)           2.238847000000     0.825714000000     2.421086000000     1.007825032230
      Gh(H)           1.328717000000     0.912441000000     1.134542000000     1.007825032230
         O           -2.940937000000    -0.619005000000    -0.168957000000    15.994914619570
         H           -2.026060000000    -0.454747000000    -0.472925000000     1.007825032230
         H           -3.379101000000    -1.135452000000    -0.844734000000     1.007825032230
      Gh(O)           0.534776000000     0.816487000000    -2.672079000000    15.994914619570
      Gh(H)           0.728932000000     1.193376000000    -1.819618000000     1.007825032230
      Gh(H)          -0.414644000000     0.967166000000    -2.819436000000     1.007825032230

  Charge       = 0
  Multiplicity = 1
  Basis Set: AUG-CC-PVTZ
    Blend: AUG-CC-PVTZ
  Basis Set: (AUG-CC-PVTZ AUX)
    Blend: AUG-CC-PVTZ-JKFIT

    Orbital Energies [Eh]
    ---------------------

    Doubly Occupied:

       1A    -20.567523     2A     -1.346433     3A     -0.717742
       4A     -0.577244     5A     -0.508618

  @DF-RHF Final Energy:   -76.05953725169654

   => Energetics <=

    Nuclear Repulsion Energy =              9.0929626823662666
    One-Electron Energy =                -122.8698782891889181
    Two-Electron Energy =                  37.7173783551261224
    Total Energy =                        -76.0595372516965256
 Dipole X            :         54.9900827          -54.6747978            0.3152849
 Dipole Y            :         12.1266846          -12.3630400           -0.2363553
 Dipole Z            :          4.3899119           -5.0442743           -0.6543624
 Magnitude           :                                                    0.7638446
  Basis Set: (AUG-CC-PVTZ AUX)
    Blend: AUG-CC-PVTZ-RI
	 Reference Energy          =     -76.0595372516965398 [Eh]
	 Singles Energy            =      -0.0000000000000000 [Eh]
	 Same-Spin Energy          =      -0.0685302195713226 [Eh]
	 Opposite-Spin Energy      =      -0.2161882078873381 [Eh]
	 Correlation Energy        =      -0.2847184274586607 [Eh]
	 Total Energy              =     -76.3442556791551965 [Eh]

	 ================> DF-SCS-MP2 Energies <==================
	-----------------------------------------------------------
	 SCS Same-Spin Scale       =       0.3333333333333333 [-]
	 SCS Opposite-Spin Scale   =       1.2000000000000000 [-]
	 SCS Same-Spin Energy      =      -0.0228434065237742 [Eh]
	 SCS Opposite-Spin Energy  =      -0.2594258494648057 [Eh]
	 SCS Correlation Energy    =      -0.2822692559885799 [Eh]
	 SCS Total Energy          =     -76.3418065076851207 [Eh]
	-----------------------------------------------------------

*** Psi4 exiting successfully. Buy a developer a beer!
