                               Psi4 1.8.2 release

  ==> Input File <==

--------------------------------------------------------------------------
MEMORY 60 GB

molecule dimer {
0 1
Gh(F)      0.000000     0.000000     0.000000
Gh(O)     -0.057118     2.692147    -0.976789
Gh(H)      0.731116     3.225705    -0.805216
Gh(H)      0.209827     1.795792    -0.774691
O          0.486465    -2.407014     1.207865
H          0.269082    -1.731333     0.576353
H          1.158872    -2.081555     1.761537
Gh(O)      2.743152     0.252394     0.166207
Gh(H)      2.913143     0.164435    -0.786041
Gh(H)      1.744815     0.219563     0.238161
Gh(O)      0.021137     0.684540     2.677081
Gh(H)     -0.147829     0.359385     1.789779
Gh(H)     -0.892075     0.785151     3.140166
Gh(O)     -2.468711    -1.509440    -0.488093
Gh(H)     -1.632848    -1.124206    -0.091186
Gh(H)     -2.494928    -1.207266    -1.445224
Gh(O)     -0.643514    -0.967018    -2.526052
Gh(H)     -0.484782    -0.177777    -1.974885
Gh(H)     -0.087133    -1.668284    -2.070015

units ang
no_reorient
no_com
symmetry c1
}

set {
basis        aug-cc-pVTZ
scf_type     df
}

energy("mp2")
--------------------------------------------------------------------------

    Molecular point group: c1

    Geometry (in Angstrom), charge = 0, multiplicity = 1:

       Center              X                  Y                   Z               Mass
    ------------   -----------------  -----------------  -----------------  -----------------
      Gh(F)           0.000000000000     0.000000000000     0.000000000000    18.998403162730
      Gh(O)          -0.057118000000     2.692147000000    -0.976789000000    15.994914619570
      Gh(H)           0.731116000000     3.225705000000    -0.805216000000     1.007825032230
      Gh(H)           0.209827000000     1.795792000000    -0.774691000000     1.007825032230
         O            0.486465000000    -2.407014000000     1.207865000000    15.994914619570
         H            0.269082000000    -1.731333000000     0.576353000000     1.007825032230
         H            1.158872000000    -2.081555000000     1.761537000000     1.007825032230
      Gh(O)           2.743152000000     0.252394000000     0.166207000000    15.994914619570
      Gh(H)           2.913143000000     0.164435000000    -0.786041000000     1.007825032230
      Gh(H)           1.744815000000     0.219563000000     0.238161000000     1.007825032230
      Gh(O)           0.021137000000     0.684540000000     2.677081000000    15.994914619570
      Gh(H)          -0.147829000000     0.359385000000     1.789779000000     1.007825032230
      Gh(H)          -0.892075000000     0.785151000000     3.140166000000     1.007825032230
      Gh(O)          -2.468711000000    -1.509440000000    -0.488093000000    15.994914619570
      Gh(H)          -1.632848000000    -1.124206000000    -0.091186000000     1.007825032230
      Gh(H)          -2.494928000000    -1.207266000000    -1.445224000000     1.007825032230
      Gh(O)          -0.643514000000    -0.967018000000    -2.526052000000    15.994914619570
      Gh(H)          -0.484782000000    -0.177777000000    -1.974885000000     1.007825032230
      Gh(H)          -0.087133000000    -1.668284000000    -2.070015000000     1.007825032230

  Charge       = 0
  Multiplicity = 1
  Basis Set: AUG-CC-PVTZ
    Blend: AUG-CC-PVTZ
  Basis Set: (AUG-CC-PVTZ AUX)
    Blend: AUG-CC-PVTZ-JKFIT

    Orbital Energies [Eh]
    ---------------------

    Doubly Occupied:

       1A    -20.562332     2A     -1.360048     3A     -0.734641
       4A     -0.580886     5A     -0.510759

  @DF-RHF Final Energy:   -76.06099991671141

   => Energetics <=

    Nuclear Repulsion Energy =              9.3562892688281352
    One-Electron Energy =                -123.3372429862980795
    Two-Electron Energy =                  37.9199538007585346
    Total Energy =                        -76.0609999167114097
 Dipole X            :         -9.7413673           10.0527269            0.3113596
 Dipole Y            :         44.2746321          -43.5940920            0.6805401
 Dipole Z            :        -22.7290479           22.6782442           -0.0508037
 Magnitude           :                                                    0.7501071
  Basis Set: (AUG-CC-PVTZ AUX)
    Blend: AUG-CC-PVTZ-RI
	 Reference Energy          =     -76.0609999167114097 [Eh]
	 Singles Energy            =      -0.0000000000000000 [Eh]
	 Same-Spin Energy          =      -0.0680763467928803 [Eh]
	 Opposite-Spin Energy      =      -0.2151696938941421 [Eh]
	 Correlation Energy        =      -0.2832460406870224 [Eh]
	 Total Energy              =     -76.3442459573984280 [Eh]

	 ================> DF-SCS-MP2 Energies <==================
	-----------------------------------------------------------
	 SCS Same-Spin Scale       =       0.3333333333333333 [-]
	 SCS Opposite-Spin Scale   =       1.2000000000000000 [-]
	 SCS Same-Spin Energy      =      -0.0226921155976268 [Eh]
	 SCS Opposite-Spin Energy  =      -0.2582036326729705 [Eh]
	 SCS Correlation Energy    =      -0.2808957482705972 [Eh]
	 SCS Total Energy          =     -76.3418956649820046 [Eh]
	-----------------------------------------------------------

*** Psi4 exiting successfully. Buy a developer a beer!
