                               Psi4 1.8.2 release

  ==> Input File <==

--------------------------------------------------------------------------
MEMORY 60 GB

molecule dimer {
-1 1
F          0.000000     0.000000     0.000000
O         -1.091558    -1.809519     1.863944
H         -1.964939    -2.052092     1.500602
H         -0.591849    -1.199205     1.314271
O          0.258123    -2.349417    -1.373394
H          0.547624    -1.593259    -0.773108
H         -0.646190    -2.478934    -1.244225
O         -0.214660     2.146157     2.063174
H         -0.165088     1.390555     1.502524
H         -0.077747     1.856844     2.975158
O         -2.197647     0.913173    -1.713640
H         -2.446327     0.152611    -2.322329
H         -2.435783     1.766268    -2.074757
O          2.616092    -0.020543     0.476284
H          1.590067     0.041365     0.327444
H          2.682891    -0.935497     0.868501
O         -2.727641     0.971623     1.032331
H         -2.177883     0.803632     0.264595
H         -2.164027     1.556644     1.587096
O          0.756321     1.995676    -1.708341
H          0.223582     2.645031    -1.239711
H          0.300779     1.186526    -1.574937

units ang
no_reorient
no_com
symmetry c1
}

set {
basis        aug-cc-pVTZ
scf_type     df
}

energy("mp2")
--------------------------------------------------------------------------

    Molecular point group: c1

    Geometry (in Angstrom), charge = -1, multiplicity = 1:

       Center              X                  Y                   Z               Mass
    ------------   -----------------  -----------------  -----------------  -----------------
         F            0.000000000000     0.000000000000     0.000000000000    18.998403162730
         O           -1.091558000000    -1.809519000000     1.863944000000    15.994914619570
         H           -1.964939000000    -2.052092000000     1.500602000000     1.007825032230
         H           -0.591849000000    -1.199205000000     1.314271000000     1.007825032230
         O            0.258123000000    -2.349417000000    -1.373394000000    15.994914619570
         H            0.547624000000    -1.593259000000    -0.773108000000     1.007825032230
         H           -0.646190000000    -2.478934000000    -1.244225000000     1.007825032230
         O           -0.214660000000     2.146157000000     2.063174000000    15.994914619570
         H           -0.165088000000     1.390555000000     1.502524000000     1.007825032230
         H           -0.077747000000     1.856844000000     2.975158000000     1.007825032230
         O           -2.197647000000     0.913173000000    -1.713640000000    15.994914619570
         H           -2.446327000000     0.152611000000    -2.322329000000     1.007825032230
         H           -2.435783000000     1.766268000000    -2.074757000000     1.007825032230
         O            2.616092000000    -0.020543000000     0.476284000000    15.994914619570
         H            1.590067000000     0.041365000000     0.327444000000     1.007825032230
         H            2.682891000000    -0.935497000000     0.868501000000     1.007825032230
         O           -2.727641000000     0.971623000000     1.032331000000    15.994914619570
         H           -2.177883000000     0.803632000000     0.264595000000     1.007825032230
         H           -2.164027000000     1.556644000000     1.587096000000     1.007825032230
         O            0.756321000000     1.995676000000    -1.708341000000    15.994914619570
         H            0.223582000000     2.645031000000    -1.239711000000     1.007825032230
         H            0.300779000000     1.186526000000    -1.574937000000     1.007825032230

  Charge       = -1
  Multiplicity = 1
  Basis Set: AUG-CC-PVTZ
    Blend: AUG-CC-PVTZ
  Basis Set: (AUG-CC-PVTZ AUX)
    Blend: AUG-CC-PVTZ-JKFIT

    Orbital Energies [Eh]
    ---------------------

    Doubly Occupied:

       1A    -26.000574     2A    -20.464574     3A    -20.430996
       4A    -20.403958     5A    -20.401194     6A    -20.396010
       7A    -20.394749     8A    -20.388798     9A     -1.272117
      10A     -1.238575    11A     -1.223259    12A     -1.189471
      13A     -1.187937    14A     -1.184211    15A     -1.179459
      16A     -1.145309    17A     -0.619460    18A     -0.598428
      19A     -0.576178    20A     -0.563159    21A     -0.555646
      22A     -0.552377    23A     -0.509135    24A     -0.468389
      25A     -0.453074    26A     -0.435627    27A     -0.431289
      28A     -0.424511    29A     -0.420175    30A     -0.414258
      31A     -0.403025    32A     -0.374375    33A     -0.362917
      34A     -0.358991    35A     -0.357129    36A     -0.343515
      37A     -0.342630    38A     -0.337048    39A     -0.333470
      40A     -0.323579

  @DF-RHF Final Energy:  -631.96316321876111

   => Energetics <=

    Nuclear Repulsion Energy =            463.8912195115973987
    One-Electron Energy =               -1813.5895964120995814
    Two-Electron Energy =                 717.7352136817410155
    Total Energy =                       -631.9631632187611103
 Dipole X            :         51.6647420          -53.1630037           -1.4982617
 Dipole Y            :        -34.0193756           33.8595250           -0.1598506
 Dipole Z            :        -12.2042695           11.7805300           -0.4237396
 Magnitude           :                                                    1.5652142
  Basis Set: (AUG-CC-PVTZ AUX)
    Blend: AUG-CC-PVTZ-RI
	 Reference Energy          =    -631.9631632187611103 [Eh]
	 Singles Energy            =      -0.0000000000000000 [Eh]
	 Same-Spin Energy          =      -0.5756182036957527 [Eh]
	 Opposite-Spin Energy      =      -1.7553627693532889 [Eh]
	 Correlation Energy        =      -2.3309809730490416 [Eh]
	 Total Energy              =    -634.2941441918101191 [Eh]

	 ================> DF-SCS-MP2 Energies <==================
	-----------------------------------------------------------
	 SCS Same-Spin Scale       =       0.3333333333333333 [-]
	 SCS Opposite-Spin Scale   =       1.2000000000000000 [-]
	 SCS Same-Spin Energy      =      -0.1918727345652509 [Eh]
	 SCS Opposite-Spin Energy  =      -2.1064353232239466 [Eh]
	 SCS Correlation Energy    =      -2.2983080577891974 [Eh]
	 SCS Total Energy          =    -634.2614712765503100 [Eh]
	-----------------------------------------------------------

*** Psi4 exiting successfully. Buy a developer a beer!
