                               Psi4 1.8.2 release

  ==> Input File <==

--------------------------------------------------------------------------
MEMORY 60 GB

molecule dimer {
0 1
Gh(F)      0.000000     0.000000     0.000000
Gh(O)     -0.580884    -1.648700     2.195241
Gh(H)     -1.020660    -1.208330     2.917618
Gh(H)     -0.253605    -1.019050     1.524375
Gh(O)      2.537363    -0.724230     0.693189
Gh(H)      1.626552    -0.593909     0.467081
Gh(H)      2.844385    -1.514828     0.175338
O         -2.966082     0.085030    -0.257782
H         -2.046228     0.047434     0.053577
H         -3.144712    -0.828874    -0.456325
Gh(O)      0.685142     2.385594    -1.181765
Gh(H)      0.345072     1.543477    -0.827825
Gh(H)      1.560160     2.607602    -0.897901
Gh(O)      0.514673     1.946164     2.026000
Gh(H)      1.317660     1.741717     2.515660
Gh(H)      0.573925     1.491257     1.189736
Gh(O)     -0.034012    -0.439230    -2.881590
Gh(H)     -0.368618    -0.315122    -1.979070
Gh(H)     -0.049734    -1.427287    -2.983019

units ang
no_reorient
no_com
symmetry c1
}

set {
basis        aug-cc-pVTZ
scf_type     df
}

energy("mp2")
--------------------------------------------------------------------------

    Molecular point group: c1

    Geometry (in Angstrom), charge = 0, multiplicity = 1:

       Center              X                  Y                   Z               Mass
    ------------   -----------------  -----------------  -----------------  -----------------
      Gh(F)           0.000000000000     0.000000000000     0.000000000000    18.998403162730
      Gh(O)          -0.580884000000    -1.648700000000     2.195241000000    15.994914619570
      Gh(H)          -1.020660000000    -1.208330000000     2.917618000000     1.007825032230
      Gh(H)          -0.253605000000    -1.019050000000     1.524375000000     1.007825032230
      Gh(O)           2.537363000000    -0.724230000000     0.693189000000    15.994914619570
      Gh(H)           1.626552000000    -0.593909000000     0.467081000000     1.007825032230
      Gh(H)           2.844385000000    -1.514828000000     0.175338000000     1.007825032230
         O           -2.966082000000     0.085030000000    -0.257782000000    15.994914619570
         H           -2.046228000000     0.047434000000     0.053577000000     1.007825032230
         H           -3.144712000000    -0.828874000000    -0.456325000000     1.007825032230
      Gh(O)           0.685142000000     2.385594000000    -1.181765000000    15.994914619570
      Gh(H)           0.345072000000     1.543477000000    -0.827825000000     1.007825032230
      Gh(H)           1.560160000000     2.607602000000    -0.897901000000     1.007825032230
      Gh(O)           0.514673000000     1.946164000000     2.026000000000    15.994914619570
      Gh(H)           1.317660000000     1.741717000000     2.515660000000     1.007825032230
      Gh(H)           0.573925000000     1.491257000000     1.189736000000     1.007825032230
      Gh(O)          -0.034012000000    -0.439230000000    -2.881590000000    15.994914619570
      Gh(H)          -0.368618000000    -0.315122000000    -1.979070000000     1.007825032230
      Gh(H)          -0.049734000000    -1.427287000000    -2.983019000000     1.007825032230

  Charge       = 0
  Multiplicity = 1
  Basis Set: AUG-CC-PVTZ
    Blend: AUG-CC-PVTZ
  Basis Set: (AUG-CC-PVTZ AUX)
    Blend: AUG-CC-PVTZ-JKFIT

    Orbital Energies [Eh]
    ---------------------

    Doubly Occupied:

       1A    -20.569011     2A     -1.353014     3A     -0.710193
       4A     -0.588924     5A     -0.510696

  @DF-RHF Final Energy:   -76.05983905512596

   => Energetics <=

    Nuclear Repulsion Energy =              9.1563147542923495
    One-Electron Energy =                -122.9686297393169809
    Two-Electron Energy =                  37.7524759298986652
    Total Energy =                        -76.0598390551259627
 Dipole X            :         55.1356865          -54.6501161            0.4855704
 Dipole Y            :         -0.4373944           -0.1912403           -0.6286347
 Dipole Z            :          4.7316115           -4.6581825            0.0734290
 Magnitude           :                                                    0.7977167
  Basis Set: (AUG-CC-PVTZ AUX)
    Blend: AUG-CC-PVTZ-RI
	 Reference Energy          =     -76.0598390551259627 [Eh]
	 Singles Energy            =      -0.0000000000000000 [Eh]
	 Same-Spin Energy          =      -0.0685431269072728 [Eh]
	 Opposite-Spin Energy      =      -0.2163901094093878 [Eh]
	 Correlation Energy        =      -0.2849332363166606 [Eh]
	 Total Energy              =     -76.3447722914426237 [Eh]

	 ================> DF-SCS-MP2 Energies <==================
	-----------------------------------------------------------
	 SCS Same-Spin Scale       =       0.3333333333333333 [-]
	 SCS Opposite-Spin Scale   =       1.2000000000000000 [-]
	 SCS Same-Spin Energy      =      -0.0228477089690909 [Eh]
	 SCS Opposite-Spin Energy  =      -0.2596681312912654 [Eh]
	 SCS Correlation Energy    =      -0.2825158402603563 [Eh]
	 SCS Total Energy          =     -76.3423548953863218 [Eh]
	-----------------------------------------------------------

*** Psi4 exiting successfully. Buy a developer a beer!
