                               Psi4 1.9 release

  ==> Input File <==

--------------------------------------------------------------------------
MEMORY 60 GB

molecule dimer {
-1 1
F      0.000000     0.000000     0.000000
--
0 1
O      1.569360     1.518618    -1.837610
H      1.155301     1.598253    -2.718294
H      0.927061     0.996283    -1.347020
O      0.530386     0.269958     2.875111
H      1.172033     0.849356     3.370842
H      0.631636     0.167803     1.901881
O     -0.928796    -2.527019    -0.372089
H     -0.809957    -1.635358     0.032375
H     -1.197638    -3.136721     0.344653
O     -1.941797     1.884913     0.438019
H     -1.127941     2.210082     0.062217
H     -1.791200     0.968612     0.500762
O     -2.979564    -0.679629     0.263051
H     -3.238399    -1.549104     0.622195
H     -3.682243    -0.073049     0.667091
O      1.997910    -1.718340     0.059017
H      1.266622    -1.101851    -0.130084
H      2.707820    -1.267608     0.569883

units ang
no_reorient
no_com
symmetry c1
}

set {
basis        aug-cc-pVTZ
scf_type     df
}

energy("mp2", bsse_type="cp")
--------------------------------------------------------------------------

                               Psi4 1.9 release
    Molecular point group: c1
  Charge       = 0
  Multiplicity = 1
  Basis Set: AUG-CC-PVTZ
    Blend: AUG-CC-PVTZ
  Basis Set: (AUG-CC-PVTZ AUX)
    Blend: AUG-CC-PVTZ-JKFIT
  @DF-RHF Final Energy:  -456.32977826879301
    Total Energy =                       -456.3297782687930066
 Dipole X            :         33.6869511          -34.0281339           -0.3411828
 Dipole Y            :         22.8593501          -22.6489232            0.2104269
 Dipole Z            :        -28.2624133           28.8759468            0.6135335
 Magnitude           :                                                    0.7328769
  Basis Set: (AUG-CC-PVTZ AUX)
    Blend: AUG-CC-PVTZ-RI
	 Reference Energy          =    -456.3297782687930066 [Eh]
	 Singles Energy            =      -0.0000000000000000 [Eh]
	 Same-Spin Energy          =      -0.4170840859399012 [Eh]
	 Opposite-Spin Energy      =      -1.3064723435627554 [Eh]
	 Correlation Energy        =      -1.7235564295026566 [Eh]
	 Total Energy              =    -458.0533346982956573 [Eh]
	 SCS Total Energy          =    -458.0365731097149364 [Eh]
                               Psi4 1.9 release
    Molecular point group: c1
  Multiplicity = 1
  Basis Set: AUG-CC-PVTZ
    Blend: AUG-CC-PVTZ
  Basis Set: (AUG-CC-PVTZ AUX)
    Blend: AUG-CC-PVTZ-JKFIT
  @DF-RHF Final Energy:   -99.45113535759063
    Total Energy =                        -99.4511353575906156
  Basis Set: (AUG-CC-PVTZ AUX)
	 Singles Energy            =      -0.0000000000000000 [Eh]
	 Same-Spin Energy          =      -0.0820629291026643 [Eh]
	 Opposite-Spin Energy      =      -0.2301769365883672 [Eh]
	 Correlation Energy        =      -0.3122398656910315 [Eh]
	 Total Energy              =     -99.7633752232816562 [Eh]
	 SCS Total Energy          =     -99.7547019911975639 [Eh]
                               Psi4 1.9 release
    Molecular point group: c1

    Geometry (in Bohr), charge = -1, multiplicity = 1:

       Center              X                  Y                   Z               Mass
    ------------   -----------------  -----------------  -----------------  -----------------
         F            0.000000000000     0.000000000000     0.000000000000    18.998403162730
         O            2.965660592248     2.869772109191    -3.472579625403    15.994914619570
         H            2.183202482468     3.020260449191    -5.136831188475     1.007825032230
         H            1.751891391593     1.882702013450    -2.545498885514     1.007825032230
         O            1.002284280777     0.510146685376     5.433172370291    15.994914619570
         H            2.214821379999     1.605050223014     6.369968192191     1.007825032230
         H            1.193619050980     0.317101713030     3.594034213212     1.007825032230
         O           -1.755170066421    -4.775373823828    -0.703146304295    15.994914619570
         H           -1.530596903397    -3.090378737076     0.061179883312     1.007825032230
         H           -2.263207817441    -5.927543621972     0.651299778317     1.007825032230
         O           -3.669464521236     3.561969340315     0.827735947747    15.994914619570
         H           -2.131499575675     4.176449694804     0.117573090348     1.007825032230
         H           -3.384877435920     1.830411401832     0.946303034037     1.007825032230
         O           -5.630559933274    -1.284312676919     0.497094347028    15.994914619570
         H           -6.119687194957    -2.927382299851     1.175778146629     1.007825032230
         H           -6.958430797384    -0.138042603739     1.260619290758     1.007825032230
         O            3.775502723313    -3.247191990419     0.111525966746    15.994914619570
         H            2.393568684480    -2.082196621062    -0.245823133304     1.007825032230
         H            5.117038197037    -2.395431954439     1.076922793554     1.007825032230

  Charge       = -1
  Multiplicity = 1
  Basis Set: AUG-CC-PVTZ
    Blend: AUG-CC-PVTZ
  Basis Set: (AUG-CC-PVTZ AUX)
    Blend: AUG-CC-PVTZ-JKFIT

    Orbital Energies [Eh]
    ---------------------

    Doubly Occupied:

       1A    -25.974201     2A    -20.450980     3A    -20.409407
       4A    -20.408551     5A    -20.386590     6A    -20.382623
       7A    -20.372236     8A     -1.243665     9A     -1.217592
      10A     -1.189615    11A     -1.182710    12A     -1.173748
      13A     -1.160510    14A     -1.147541    15A     -0.581452
      16A     -0.570614    17A     -0.552704    18A     -0.542878
      19A     -0.540820    20A     -0.526534    21A     -0.460656
      22A     -0.433690    23A     -0.425040    24A     -0.404973
      25A     -0.402843    26A     -0.391576    27A     -0.383205
      28A     -0.353255    29A     -0.351733    30A     -0.340139
      31A     -0.335993    32A     -0.330054    33A     -0.329041
      34A     -0.318351    35A     -0.312822

  @DF-RHF Final Energy:  -555.88852790960436

   => Energetics <=

    Nuclear Repulsion Energy =            355.8520322320024434
    One-Electron Energy =               -1492.3044120588958776
    Two-Electron Energy =                 580.5638519172889573
    Total Energy =                       -555.8885279096043632
 Dipole X            :         33.5138066          -34.0281339           -0.5143273
 Dipole Y            :         23.1169288          -22.6489232            0.4680056
 Dipole Z            :        -28.4296360           28.8759468            0.4463108
 Magnitude           :                                                    0.8262900
  Basis Set: (AUG-CC-PVTZ AUX)
    Blend: AUG-CC-PVTZ-RI
	 Reference Energy          =    -555.8885279096043632 [Eh]
	 Singles Energy            =      -0.0000000000000000 [Eh]
	 Same-Spin Energy          =      -0.5049391922280633 [Eh]
	 Opposite-Spin Energy      =      -1.5374814459592145 [Eh]
	 Correlation Energy        =      -2.0424206381872780 [Eh]
	 Total Energy              =    -557.9309485477916724 [Eh]

	 ================> DF-SCS-MP2 Energies <==================
	-----------------------------------------------------------
	 SCS Same-Spin Scale       =       0.3333333333333333 [-]
	 SCS Opposite-Spin Scale   =       1.2000000000000000 [-]
	 SCS Same-Spin Energy      =      -0.1683130640760211 [Eh]
	 SCS Opposite-Spin Energy  =      -1.8449777351510575 [Eh]
	 SCS Correlation Energy    =      -2.0132907992270788 [Eh]
	 SCS Total Energy          =    -557.9018187088314562 [Eh]
	-----------------------------------------------------------

*** Psi4 exiting successfully. Buy a developer a beer!
