                               Psi4 1.8.2 release

  ==> Input File <==

--------------------------------------------------------------------------
MEMORY 60 GB

molecule dimer {
0 1
Gh(F)      0.000000     0.000000     0.000000
Gh(O)     -0.331381     0.249282     2.779760
Gh(H)     -0.320730    -0.003331     1.859362
Gh(H)      0.462546    -0.102102     3.256506
Gh(O)     -2.816888     0.081699     0.065921
Gh(H)     -1.864288    -0.047694     0.059424
Gh(H)     -3.167471    -0.299167     0.838096
O          0.698056    -1.115714    -2.643289
H          0.021217    -0.824182    -3.293089
H          0.590159    -0.734498    -1.765903
Gh(O)     -1.216980     2.387973    -1.254426
Gh(H)     -0.806494     1.629908    -0.785597
Gh(H)     -0.745204     3.218407    -0.927778
Gh(O)      1.187241    -2.160570     1.374618
Gh(H)      1.300436    -2.883562     0.707615
Gh(H)      0.669894    -1.398415     0.902330

units ang
no_reorient
no_com
symmetry c1
}

set {
basis        aug-cc-pVTZ
scf_type     df
}

energy("mp2")
--------------------------------------------------------------------------

    Molecular point group: c1

    Geometry (in Angstrom), charge = 0, multiplicity = 1:

       Center              X                  Y                   Z               Mass
    ------------   -----------------  -----------------  -----------------  -----------------
      Gh(F)           0.000000000000     0.000000000000     0.000000000000    18.998403162730
      Gh(O)          -0.331381000000     0.249282000000     2.779760000000    15.994914619570
      Gh(H)          -0.320730000000    -0.003331000000     1.859362000000     1.007825032230
      Gh(H)           0.462546000000    -0.102102000000     3.256506000000     1.007825032230
      Gh(O)          -2.816888000000     0.081699000000     0.065921000000    15.994914619570
      Gh(H)          -1.864288000000    -0.047694000000     0.059424000000     1.007825032230
      Gh(H)          -3.167471000000    -0.299167000000     0.838096000000     1.007825032230
         O            0.698056000000    -1.115714000000    -2.643289000000    15.994914619570
         H            0.021217000000    -0.824182000000    -3.293089000000     1.007825032230
         H            0.590159000000    -0.734498000000    -1.765903000000     1.007825032230
      Gh(O)          -1.216980000000     2.387973000000    -1.254426000000    15.994914619570
      Gh(H)          -0.806494000000     1.629908000000    -0.785597000000     1.007825032230
      Gh(H)          -0.745204000000     3.218407000000    -0.927778000000     1.007825032230
      Gh(O)           1.187241000000    -2.160570000000     1.374618000000    15.994914619570
      Gh(H)           1.300436000000    -2.883562000000     0.707615000000     1.007825032230
      Gh(H)           0.669894000000    -1.398415000000     0.902330000000     1.007825032230

  Charge       = 0
  Multiplicity = 1
  Basis Set: AUG-CC-PVTZ
    Blend: AUG-CC-PVTZ
  Basis Set: (AUG-CC-PVTZ AUX)
    Blend: AUG-CC-PVTZ-JKFIT

    Orbital Energies [Eh]
    ---------------------

    Doubly Occupied:

       1A    -20.565199     2A     -1.339418     3A     -0.726261
       4A     -0.563623     5A     -0.506068

  @DF-RHF Final Energy:   -76.05709566407165

   => Energetics <=

    Nuclear Repulsion Energy =              9.0304401348708883
    One-Electron Energy =                -122.7739313271161308
    Two-Electron Energy =                  37.6863955281735841
    Total Energy =                        -76.0570956640716531
 Dipole X            :        -12.2406783           11.7084105           -0.5322678
 Dipole Y            :         20.2701053          -19.8126295            0.4574758
 Dipole Z            :         49.6778974          -49.5208476            0.1570498
 Magnitude           :                                                    0.7192064
  Basis Set: (AUG-CC-PVTZ AUX)
    Blend: AUG-CC-PVTZ-RI
	 Reference Energy          =     -76.0570956640716531 [Eh]
	 Singles Energy            =      -0.0000000000000000 [Eh]
	 Same-Spin Energy          =      -0.0685730568873241 [Eh]
	 Opposite-Spin Energy      =      -0.2163887984782542 [Eh]
	 Correlation Energy        =      -0.2849618553655783 [Eh]
	 Total Energy              =     -76.3420575194372333 [Eh]

	 ================> DF-SCS-MP2 Energies <==================
	-----------------------------------------------------------
	 SCS Same-Spin Scale       =       0.3333333333333333 [-]
	 SCS Opposite-Spin Scale   =       1.2000000000000000 [-]
	 SCS Same-Spin Energy      =      -0.0228576856291080 [Eh]
	 SCS Opposite-Spin Energy  =      -0.2596665581739050 [Eh]
	 SCS Correlation Energy    =      -0.2825242438030131 [Eh]
	 SCS Total Energy          =     -76.3396199078746633 [Eh]
	-----------------------------------------------------------

*** Psi4 exiting successfully. Buy a developer a beer!
