                               Psi4 1.8.2 release

  ==> Input File <==

--------------------------------------------------------------------------
MEMORY 60 GB

molecule dimer {
-1 1
F          0.000000     0.000000     0.000000
Gh(O)      1.590084    -1.184330    -2.003102
Gh(H)      1.148328    -0.682878    -1.303231
Gh(H)      0.913372    -1.486227    -2.592972
Gh(O)     -2.579713     0.695595     0.903205
Gh(H)     -1.766790     0.373051     0.472017
Gh(H)     -2.556590     0.408652     1.799991
Gh(O)      0.006302    -2.680277     0.762718
Gh(H)     -0.174598    -1.785268     0.559851
Gh(H)      0.461896    -3.084610     0.019470
Gh(O)     -1.603595     0.178698    -2.497753
Gh(H)     -1.541862     0.933686    -3.056288
Gh(H)     -0.984133     0.301020    -1.747949
Gh(O)      0.426525     1.345587     2.362969
Gh(H)     -0.180704     2.043739     2.250203
Gh(H)      0.386881     0.812199     1.526283

units ang
no_reorient
no_com
symmetry c1
}

set {
basis        aug-cc-pVTZ
scf_type     df
}

energy("mp2")
--------------------------------------------------------------------------

    Molecular point group: c1

    Geometry (in Angstrom), charge = -1, multiplicity = 1:

       Center              X                  Y                   Z               Mass
    ------------   -----------------  -----------------  -----------------  -----------------
         F            0.000000000000     0.000000000000     0.000000000000    18.998403162730
      Gh(O)           1.590084000000    -1.184330000000    -2.003102000000    15.994914619570
      Gh(H)           1.148328000000    -0.682878000000    -1.303231000000     1.007825032230
      Gh(H)           0.913372000000    -1.486227000000    -2.592972000000     1.007825032230
      Gh(O)          -2.579713000000     0.695595000000     0.903205000000    15.994914619570
      Gh(H)          -1.766790000000     0.373051000000     0.472017000000     1.007825032230
      Gh(H)          -2.556590000000     0.408652000000     1.799991000000     1.007825032230
      Gh(O)           0.006302000000    -2.680277000000     0.762718000000    15.994914619570
      Gh(H)          -0.174598000000    -1.785268000000     0.559851000000     1.007825032230
      Gh(H)           0.461896000000    -3.084610000000     0.019470000000     1.007825032230
      Gh(O)          -1.603595000000     0.178698000000    -2.497753000000    15.994914619570
      Gh(H)          -1.541862000000     0.933686000000    -3.056288000000     1.007825032230
      Gh(H)          -0.984133000000     0.301020000000    -1.747949000000     1.007825032230
      Gh(O)           0.426525000000     1.345587000000     2.362969000000    15.994914619570
      Gh(H)          -0.180704000000     2.043739000000     2.250203000000     1.007825032230
      Gh(H)           0.386881000000     0.812199000000     1.526283000000     1.007825032230

  Charge       = -1
  Multiplicity = 1
  Basis Set: AUG-CC-PVTZ
    Blend: AUG-CC-PVTZ
  Basis Set: (AUG-CC-PVTZ AUX)
    Blend: AUG-CC-PVTZ-JKFIT

    Orbital Energies [Eh]
    ---------------------

    Doubly Occupied:

       1A    -25.833564     2A     -1.075896     3A     -0.180938
       4A     -0.180913     5A     -0.180885

  @DF-RHF Final Energy:   -99.45110520346383

   => Energetics <=

    Nuclear Repulsion Energy =              0.0000000000000000
    One-Electron Energy =                -143.9978111433070751
    Two-Electron Energy =                  44.5467059398432497
    Total Energy =                        -99.4511052034638254
 Dipole X            :         -0.0002063            0.0000000           -0.0002063
 Dipole Y            :         -0.0001669            0.0000000           -0.0001669
 Dipole Z            :          0.0000521            0.0000000            0.0000521
 Magnitude           :                                                    0.0002704
  Basis Set: (AUG-CC-PVTZ AUX)
    Blend: AUG-CC-PVTZ-RI
	 Reference Energy          =     -99.4511052034638254 [Eh]
	 Singles Energy            =      -0.0000000000000000 [Eh]
	 Same-Spin Energy          =      -0.0820452101043962 [Eh]
	 Opposite-Spin Energy      =      -0.2299849102848023 [Eh]
	 Correlation Energy        =      -0.3120301203891985 [Eh]
	 Total Energy              =     -99.7631353238530210 [Eh]

	 ================> DF-SCS-MP2 Energies <==================
	-----------------------------------------------------------
	 SCS Same-Spin Scale       =       0.3333333333333333 [-]
	 SCS Opposite-Spin Scale   =       1.2000000000000000 [-]
	 SCS Same-Spin Energy      =      -0.0273484033681321 [Eh]
	 SCS Opposite-Spin Energy  =      -0.2759818923417627 [Eh]
	 SCS Correlation Energy    =      -0.3033302957098948 [Eh]
	 SCS Total Energy          =     -99.7544354991737237 [Eh]
	-----------------------------------------------------------

*** Psi4 exiting successfully. Buy a developer a beer!
