                               Psi4 1.8.2 release

  ==> Input File <==

--------------------------------------------------------------------------
MEMORY 60 GB

molecule dimer {
-1 1
F          0.000000     0.000000     0.000000
Gh(O)     -0.533187     2.775168     0.632670
Gh(H)      0.295886     3.282857     0.735170
Gh(H)     -0.295187     1.845584     0.468372
Gh(O)      1.234959     1.939079    -1.505495
Gh(H)      0.841673     1.153378    -1.117670
Gh(H)      1.897476     2.286047    -0.880775
Gh(O)     -0.240420    -2.398413     1.233884
Gh(H)     -0.215194    -1.544907     0.708591
Gh(H)     -0.201083    -3.097122     0.599028
Gh(O)     -2.770068     0.194255    -0.484586
Gh(H)     -1.879200     0.202821    -0.161510
Gh(H)     -3.260491    -0.522595    -0.053105
Gh(O)     -0.063457    -1.551951    -2.197817
Gh(H)      0.007654    -0.846794    -1.528243
Gh(H)     -0.969421    -2.020789    -2.142271

units ang
no_reorient
no_com
symmetry c1
}

set {
basis        aug-cc-pVTZ
scf_type     df
}

energy("mp2")
--------------------------------------------------------------------------

    Molecular point group: c1

    Geometry (in Angstrom), charge = -1, multiplicity = 1:

       Center              X                  Y                   Z               Mass
    ------------   -----------------  -----------------  -----------------  -----------------
         F            0.000000000000     0.000000000000     0.000000000000    18.998403162730
      Gh(O)          -0.533187000000     2.775168000000     0.632670000000    15.994914619570
      Gh(H)           0.295886000000     3.282857000000     0.735170000000     1.007825032230
      Gh(H)          -0.295187000000     1.845584000000     0.468372000000     1.007825032230
      Gh(O)           1.234959000000     1.939079000000    -1.505495000000    15.994914619570
      Gh(H)           0.841673000000     1.153378000000    -1.117670000000     1.007825032230
      Gh(H)           1.897476000000     2.286047000000    -0.880775000000     1.007825032230
      Gh(O)          -0.240420000000    -2.398413000000     1.233884000000    15.994914619570
      Gh(H)          -0.215194000000    -1.544907000000     0.708591000000     1.007825032230
      Gh(H)          -0.201083000000    -3.097122000000     0.599028000000     1.007825032230
      Gh(O)          -2.770068000000     0.194255000000    -0.484586000000    15.994914619570
      Gh(H)          -1.879200000000     0.202821000000    -0.161510000000     1.007825032230
      Gh(H)          -3.260491000000    -0.522595000000    -0.053105000000     1.007825032230
      Gh(O)          -0.063457000000    -1.551951000000    -2.197817000000    15.994914619570
      Gh(H)           0.007654000000    -0.846794000000    -1.528243000000     1.007825032230
      Gh(H)          -0.969421000000    -2.020789000000    -2.142271000000     1.007825032230

  Charge       = -1
  Multiplicity = 1
  Basis Set: AUG-CC-PVTZ
    Blend: AUG-CC-PVTZ
  Basis Set: (AUG-CC-PVTZ AUX)
    Blend: AUG-CC-PVTZ-JKFIT

    Orbital Energies [Eh]
    ---------------------

    Doubly Occupied:

       1A    -25.833564     2A     -1.075887     3A     -0.180939
       4A     -0.180904     5A     -0.180878

  @DF-RHF Final Energy:   -99.45112117348009

   => Energetics <=

    Nuclear Repulsion Energy =              0.0000000000000000
    One-Electron Energy =                -143.9978931940618736
    Two-Electron Energy =                  44.5467720205817841
    Total Energy =                        -99.4511211734800895
 Dipole X            :         -0.0001427            0.0000000           -0.0001427
 Dipole Y            :         -0.0000991            0.0000000           -0.0000991
 Dipole Z            :         -0.0002514            0.0000000           -0.0002514
 Magnitude           :                                                    0.0003056
  Basis Set: (AUG-CC-PVTZ AUX)
    Blend: AUG-CC-PVTZ-RI
	 Reference Energy          =     -99.4511211734800895 [Eh]
	 Singles Energy            =      -0.0000000000000000 [Eh]
	 Same-Spin Energy          =      -0.0820780184391897 [Eh]
	 Opposite-Spin Energy      =      -0.2302912966296514 [Eh]
	 Correlation Energy        =      -0.3123693150688412 [Eh]
	 Total Energy              =     -99.7634904885489249 [Eh]

	 ================> DF-SCS-MP2 Energies <==================
	-----------------------------------------------------------
	 SCS Same-Spin Scale       =       0.3333333333333333 [-]
	 SCS Opposite-Spin Scale   =       1.2000000000000000 [-]
	 SCS Same-Spin Energy      =      -0.0273593394797299 [Eh]
	 SCS Opposite-Spin Energy  =      -0.2763495559555817 [Eh]
	 SCS Correlation Energy    =      -0.3037088954353117 [Eh]
	 SCS Total Energy          =     -99.7548300689153962 [Eh]
	-----------------------------------------------------------

*** Psi4 exiting successfully. Buy a developer a beer!
