                               Psi4 1.8.2 release

  ==> Input File <==

--------------------------------------------------------------------------
MEMORY 60 GB

molecule dimer {
0 1
Gh(F)      0.000000     0.000000     0.000000
Gh(O)     -1.254088    -1.142537    -2.417176
Gh(H)     -0.631148    -1.581451    -3.028934
Gh(H)     -0.778164    -0.740928    -1.674863
O         -0.057219     2.426383    -1.313720
H         -0.057407     1.609916    -0.812182
H         -0.845317     2.970306    -1.027585
Gh(O)      2.516034     0.501269    -0.681349
Gh(H)      2.742378    -0.372026    -0.952918
Gh(H)      1.589097     0.394194    -0.467607
Gh(O)     -1.246877     0.634837     2.442815
Gh(H)     -0.668058    -0.102871     2.736022
Gh(H)     -0.910013     0.825774     1.599682
Gh(O)     -0.108124    -2.872909    -0.185625
Gh(H)     -0.484207    -3.076891     0.701130
Gh(H)     -0.163962    -1.865782    -0.238802

units ang
no_reorient
no_com
symmetry c1
}

set {
basis        aug-cc-pVTZ
scf_type     df
}

energy("mp2")
--------------------------------------------------------------------------

    Molecular point group: c1

    Geometry (in Angstrom), charge = 0, multiplicity = 1:

       Center              X                  Y                   Z               Mass
    ------------   -----------------  -----------------  -----------------  -----------------
      Gh(F)           0.000000000000     0.000000000000     0.000000000000    18.998403162730
      Gh(O)          -1.254088000000    -1.142537000000    -2.417176000000    15.994914619570
      Gh(H)          -0.631148000000    -1.581451000000    -3.028934000000     1.007825032230
      Gh(H)          -0.778164000000    -0.740928000000    -1.674863000000     1.007825032230
         O           -0.057219000000     2.426383000000    -1.313720000000    15.994914619570
         H           -0.057407000000     1.609916000000    -0.812182000000     1.007825032230
         H           -0.845317000000     2.970306000000    -1.027585000000     1.007825032230
      Gh(O)           2.516034000000     0.501269000000    -0.681349000000    15.994914619570
      Gh(H)           2.742378000000    -0.372026000000    -0.952918000000     1.007825032230
      Gh(H)           1.589097000000     0.394194000000    -0.467607000000     1.007825032230
      Gh(O)          -1.246877000000     0.634837000000     2.442815000000    15.994914619570
      Gh(H)          -0.668058000000    -0.102871000000     2.736022000000     1.007825032230
      Gh(H)          -0.910013000000     0.825774000000     1.599682000000     1.007825032230
      Gh(O)          -0.108124000000    -2.872909000000    -0.185625000000    15.994914619570
      Gh(H)          -0.484207000000    -3.076891000000     0.701130000000     1.007825032230
      Gh(H)          -0.163962000000    -1.865782000000    -0.238802000000     1.007825032230

  Charge       = 0
  Multiplicity = 1
  Basis Set: AUG-CC-PVTZ
    Blend: AUG-CC-PVTZ
  Basis Set: (AUG-CC-PVTZ AUX)
    Blend: AUG-CC-PVTZ-JKFIT

    Orbital Energies [Eh]
    ---------------------

    Doubly Occupied:

       1A    -20.569030     2A     -1.340503     3A     -0.713074
       4A     -0.573352     5A     -0.507456

  @DF-RHF Final Energy:   -76.05740555933193

   => Energetics <=

    Nuclear Repulsion Energy =              8.9874674185938943
    One-Electron Energy =                -122.6829127334635956
    Two-Electron Energy =                  37.6380397555377755
    Total Energy =                        -76.0574055593319258
 Dipole X            :          2.0506703           -2.5709270           -0.5202568
 Dipole Y            :        -45.5236267           45.3369599           -0.1866668
 Dipole Z            :         23.8615957          -23.3372238            0.5243719
 Magnitude           :                                                    0.7618907
  Basis Set: (AUG-CC-PVTZ AUX)
    Blend: AUG-CC-PVTZ-RI
	 Reference Energy          =     -76.0574055593319258 [Eh]
	 Singles Energy            =      -0.0000000000000000 [Eh]
	 Same-Spin Energy          =      -0.0687252779852122 [Eh]
	 Opposite-Spin Energy      =      -0.2171945179269801 [Eh]
	 Correlation Energy        =      -0.2859197959121923 [Eh]
	 Total Energy              =     -76.3433253552441187 [Eh]

	 ================> DF-SCS-MP2 Energies <==================
	-----------------------------------------------------------
	 SCS Same-Spin Scale       =       0.3333333333333333 [-]
	 SCS Opposite-Spin Scale   =       1.2000000000000000 [-]
	 SCS Same-Spin Energy      =      -0.0229084259950707 [Eh]
	 SCS Opposite-Spin Energy  =      -0.2606334215123762 [Eh]
	 SCS Correlation Energy    =      -0.2835418475074469 [Eh]
	 SCS Total Energy          =     -76.3409474068393763 [Eh]
	-----------------------------------------------------------

*** Psi4 exiting successfully. Buy a developer a beer!
