                               Psi4 1.8.2 release

  ==> Input File <==

--------------------------------------------------------------------------
MEMORY 60 GB

molecule dimer {
0 1
Gh(F)      0.000000     0.000000     0.000000
Gh(O)     -1.260900    -2.254512    -1.019552
Gh(H)     -2.116647    -1.981406    -1.460657
Gh(H)     -0.886299    -1.461259    -0.624048
Gh(O)      0.797432    -1.918530     2.094916
Gh(H)      0.760946    -1.157874     1.509449
Gh(H)      0.725951    -1.582356     2.998300
Gh(O)      2.111783     1.327632     1.753854
Gh(H)      2.614097     1.583631     2.486238
Gh(H)      1.329987     0.996826     2.201141
Gh(O)     -2.174612     1.324090     1.166663
Gh(H)     -1.510760     0.876909     0.680206
Gh(H)     -1.789404     1.445993     2.012538
Gh(O)     -1.021032     0.928373    -2.325044
Gh(H)     -0.460450     0.648507    -1.601012
Gh(H)     -1.318384     0.178931    -2.852340
O          0.841089     2.518421    -0.309383
H          0.478528     1.619902    -0.303863
H          1.276908     2.576825     0.587759

units ang
no_reorient
no_com
symmetry c1
}

set {
basis        aug-cc-pVTZ
scf_type     df
}

energy("mp2")
--------------------------------------------------------------------------

    Molecular point group: c1

    Geometry (in Angstrom), charge = 0, multiplicity = 1:

       Center              X                  Y                   Z               Mass
    ------------   -----------------  -----------------  -----------------  -----------------
      Gh(F)           0.000000000000     0.000000000000     0.000000000000    18.998403162730
      Gh(O)          -1.260900000000    -2.254512000000    -1.019552000000    15.994914619570
      Gh(H)          -2.116647000000    -1.981406000000    -1.460657000000     1.007825032230
      Gh(H)          -0.886299000000    -1.461259000000    -0.624048000000     1.007825032230
      Gh(O)           0.797432000000    -1.918530000000     2.094916000000    15.994914619570
      Gh(H)           0.760946000000    -1.157874000000     1.509449000000     1.007825032230
      Gh(H)           0.725951000000    -1.582356000000     2.998300000000     1.007825032230
      Gh(O)           2.111783000000     1.327632000000     1.753854000000    15.994914619570
      Gh(H)           2.614097000000     1.583631000000     2.486238000000     1.007825032230
      Gh(H)           1.329987000000     0.996826000000     2.201141000000     1.007825032230
      Gh(O)          -2.174612000000     1.324090000000     1.166663000000    15.994914619570
      Gh(H)          -1.510760000000     0.876909000000     0.680206000000     1.007825032230
      Gh(H)          -1.789404000000     1.445993000000     2.012538000000     1.007825032230
      Gh(O)          -1.021032000000     0.928373000000    -2.325044000000    15.994914619570
      Gh(H)          -0.460450000000     0.648507000000    -1.601012000000     1.007825032230
      Gh(H)          -1.318384000000     0.178931000000    -2.852340000000     1.007825032230
         O            0.841089000000     2.518421000000    -0.309383000000    15.994914619570
         H            0.478528000000     1.619902000000    -0.303863000000     1.007825032230
         H            1.276908000000     2.576825000000     0.587759000000     1.007825032230

  Charge       = 0
  Multiplicity = 1
  Basis Set: AUG-CC-PVTZ
    Blend: AUG-CC-PVTZ
  Basis Set: (AUG-CC-PVTZ AUX)
    Blend: AUG-CC-PVTZ-JKFIT

    Orbital Energies [Eh]
    ---------------------

    Doubly Occupied:

       1A    -20.572687     2A     -1.341834     3A     -0.699183
       4A     -0.583976     5A     -0.508874

  @DF-RHF Final Energy:   -76.05712821435759

   => Energetics <=

    Nuclear Repulsion Energy =              8.9517283095775912
    One-Electron Energy =                -122.6046000601528476
    Two-Electron Energy =                  37.5957435362176753
    Total Energy =                        -76.0571282143575900
 Dipole X            :        -15.9880722           16.0327161            0.0446439
 Dipole Y            :        -46.5535187           46.0036723           -0.5498464
 Dipole Z            :          4.7240136           -4.1407074            0.5833062
 Magnitude           :                                                    0.8028513
  Basis Set: (AUG-CC-PVTZ AUX)
    Blend: AUG-CC-PVTZ-RI
	 Reference Energy          =     -76.0571282143575900 [Eh]
	 Singles Energy            =      -0.0000000000000000 [Eh]
	 Same-Spin Energy          =      -0.0689721288207143 [Eh]
	 Opposite-Spin Energy      =      -0.2182914649604988 [Eh]
	 Correlation Energy        =      -0.2872635937812130 [Eh]
	 Total Energy              =     -76.3443918081388091 [Eh]

	 ================> DF-SCS-MP2 Energies <==================
	-----------------------------------------------------------
	 SCS Same-Spin Scale       =       0.3333333333333333 [-]
	 SCS Opposite-Spin Scale   =       1.2000000000000000 [-]
	 SCS Same-Spin Energy      =      -0.0229907096069048 [Eh]
	 SCS Opposite-Spin Energy  =      -0.2619497579525985 [Eh]
	 SCS Correlation Energy    =      -0.2849404675595033 [Eh]
	 SCS Total Energy          =     -76.3420686819170982 [Eh]
	-----------------------------------------------------------

*** Psi4 exiting successfully. Buy a developer a beer!
