                               Psi4 1.8.2 release

  ==> Input File <==

--------------------------------------------------------------------------
MEMORY 60 GB

molecule dimer {
0 1
Gh(F)      0.000000     0.000000     0.000000
O          1.999981     1.872363    -0.549390
H          1.832241     2.798537    -0.384091
H          1.190518     1.366946    -0.536042
Gh(O)     -0.732147    -0.508733    -2.638181
Gh(H)     -0.559848    -0.335039    -1.688412
Gh(H)     -1.560312    -0.049892    -2.825446
Gh(O)     -1.396072     2.119528     1.247335
Gh(H)     -0.668981     2.736259     1.112284
Gh(H)     -0.986667     1.275496     1.030001
Gh(O)      0.539337    -2.569316     0.762966
Gh(H)      0.351918    -1.701170     0.380121
Gh(H)      0.432027    -3.158462     0.035461
Gh(O)      2.295897     0.161463     1.842537
Gh(H)      1.406911     0.065818     2.189690
Gh(H)      2.212168     0.621719     0.983706
Gh(O)     -2.515644    -1.246307     0.318199
Gh(H)     -2.419320    -2.143283    -0.096705
Gh(H)     -1.667771    -0.781486     0.321701

units ang
no_reorient
no_com
symmetry c1
}

set {
basis        aug-cc-pVTZ
scf_type     df
}

energy("mp2")
--------------------------------------------------------------------------

    Molecular point group: c1

    Geometry (in Angstrom), charge = 0, multiplicity = 1:

       Center              X                  Y                   Z               Mass
    ------------   -----------------  -----------------  -----------------  -----------------
      Gh(F)           0.000000000000     0.000000000000     0.000000000000    18.998403162730
         O            1.999981000000     1.872363000000    -0.549390000000    15.994914619570
         H            1.832241000000     2.798537000000    -0.384091000000     1.007825032230
         H            1.190518000000     1.366946000000    -0.536042000000     1.007825032230
      Gh(O)          -0.732147000000    -0.508733000000    -2.638181000000    15.994914619570
      Gh(H)          -0.559848000000    -0.335039000000    -1.688412000000     1.007825032230
      Gh(H)          -1.560312000000    -0.049892000000    -2.825446000000     1.007825032230
      Gh(O)          -1.396072000000     2.119528000000     1.247335000000    15.994914619570
      Gh(H)          -0.668981000000     2.736259000000     1.112284000000     1.007825032230
      Gh(H)          -0.986667000000     1.275496000000     1.030001000000     1.007825032230
      Gh(O)           0.539337000000    -2.569316000000     0.762966000000    15.994914619570
      Gh(H)           0.351918000000    -1.701170000000     0.380121000000     1.007825032230
      Gh(H)           0.432027000000    -3.158462000000     0.035461000000     1.007825032230
      Gh(O)           2.295897000000     0.161463000000     1.842537000000    15.994914619570
      Gh(H)           1.406911000000     0.065818000000     2.189690000000     1.007825032230
      Gh(H)           2.212168000000     0.621719000000     0.983706000000     1.007825032230
      Gh(O)          -2.515644000000    -1.246307000000     0.318199000000    15.994914619570
      Gh(H)          -2.419320000000    -2.143283000000    -0.096705000000     1.007825032230
      Gh(H)          -1.667771000000    -0.781486000000     0.321701000000     1.007825032230

  Charge       = 0
  Multiplicity = 1
  Basis Set: AUG-CC-PVTZ
    Blend: AUG-CC-PVTZ
  Basis Set: (AUG-CC-PVTZ AUX)
    Blend: AUG-CC-PVTZ-JKFIT

    Orbital Energies [Eh]
    ---------------------

    Doubly Occupied:

       1A    -20.563556     2A     -1.349928     3A     -0.731451
       4A     -0.572238     5A     -0.508510

  @DF-RHF Final Energy:   -76.06017662685946

   => Energetics <=

    Nuclear Repulsion Energy =              9.2013809269044629
    One-Electron Energy =                -123.0717461012653615
    Two-Electron Energy =                  37.8101885475014399
    Total Energy =                        -76.0601766268594588
 Dipole X            :        -36.6124666           35.9475174           -0.6649492
 Dipole Y            :        -35.8918782           36.1776483            0.2857701
 Dipole Z            :         10.1654866          -10.0443725            0.1211141
 Magnitude           :                                                    0.7338192
  Basis Set: (AUG-CC-PVTZ AUX)
    Blend: AUG-CC-PVTZ-RI
	 Reference Energy          =     -76.0601766268594588 [Eh]
	 Singles Energy            =      -0.0000000000000000 [Eh]
	 Same-Spin Energy          =      -0.0683409665020977 [Eh]
	 Opposite-Spin Energy      =      -0.2159566187269924 [Eh]
	 Correlation Energy        =      -0.2842975852290902 [Eh]
	 Total Energy              =     -76.3444742120885422 [Eh]

	 ================> DF-SCS-MP2 Energies <==================
	-----------------------------------------------------------
	 SCS Same-Spin Scale       =       0.3333333333333333 [-]
	 SCS Opposite-Spin Scale   =       1.2000000000000000 [-]
	 SCS Same-Spin Energy      =      -0.0227803221673659 [Eh]
	 SCS Opposite-Spin Energy  =      -0.2591479424723909 [Eh]
	 SCS Correlation Energy    =      -0.2819282646397568 [Eh]
	 SCS Total Energy          =     -76.3421048914992184 [Eh]
	-----------------------------------------------------------

*** Psi4 exiting successfully. Buy a developer a beer!
