                               Psi4 1.8.2 release

  ==> Input File <==

--------------------------------------------------------------------------
MEMORY 60 GB

molecule dimer {
-1 1
F          0.000000     0.000000     0.000000
O         -1.204616    -0.136785     2.716651
H         -0.764095     0.061585     1.873340
H         -0.834247    -0.946190     3.055175
O         -2.460796     0.663282    -0.931792
H         -1.503367     0.475959    -0.909133
H         -2.899102    -0.181671    -1.051267
O         -0.180675     2.936706    -0.188779
H          0.620744     3.487452    -0.094289
H          0.182580     2.104557    -0.393553
O         -1.696100    -2.154749    -0.360661
H         -0.850512    -1.713972    -0.187306
H         -2.184590    -2.113638     0.460314
O          2.323319     0.756460     1.937201
H          2.977037     0.096931     1.837480
H          1.649232     0.600110     1.235624
O          2.482985     0.570779    -1.259187
H          1.623031     0.282269    -0.820127
H          2.415357     1.553745    -1.408463

units ang
no_reorient
no_com
symmetry c1
}

set {
basis        aug-cc-pVTZ
scf_type     df
}

energy("mp2")
--------------------------------------------------------------------------

    Molecular point group: c1

    Geometry (in Angstrom), charge = -1, multiplicity = 1:

       Center              X                  Y                   Z               Mass
    ------------   -----------------  -----------------  -----------------  -----------------
         F            0.000000000000     0.000000000000     0.000000000000    18.998403162730
         O           -1.204616000000    -0.136785000000     2.716651000000    15.994914619570
         H           -0.764095000000     0.061585000000     1.873340000000     1.007825032230
         H           -0.834247000000    -0.946190000000     3.055175000000     1.007825032230
         O           -2.460796000000     0.663282000000    -0.931792000000    15.994914619570
         H           -1.503367000000     0.475959000000    -0.909133000000     1.007825032230
         H           -2.899102000000    -0.181671000000    -1.051267000000     1.007825032230
         O           -0.180675000000     2.936706000000    -0.188779000000    15.994914619570
         H            0.620744000000     3.487452000000    -0.094289000000     1.007825032230
         H            0.182580000000     2.104557000000    -0.393553000000     1.007825032230
         O           -1.696100000000    -2.154749000000    -0.360661000000    15.994914619570
         H           -0.850512000000    -1.713972000000    -0.187306000000     1.007825032230
         H           -2.184590000000    -2.113638000000     0.460314000000     1.007825032230
         O            2.323319000000     0.756460000000     1.937201000000    15.994914619570
         H            2.977037000000     0.096931000000     1.837480000000     1.007825032230
         H            1.649232000000     0.600110000000     1.235624000000     1.007825032230
         O            2.482985000000     0.570779000000    -1.259187000000    15.994914619570
         H            1.623031000000     0.282269000000    -0.820127000000     1.007825032230
         H            2.415357000000     1.553745000000    -1.408463000000     1.007825032230

  Charge       = -1
  Multiplicity = 1
  Basis Set: AUG-CC-PVTZ
    Blend: AUG-CC-PVTZ
  Basis Set: (AUG-CC-PVTZ AUX)
    Blend: AUG-CC-PVTZ-JKFIT

    Orbital Energies [Eh]
    ---------------------

    Doubly Occupied:

       1A    -26.004449     2A    -20.426822     3A    -20.423570
       4A    -20.422665     5A    -20.413897     6A    -20.410851
       7A    -20.376468     8A     -1.269674     9A     -1.214590
      10A     -1.210608    11A     -1.201236    12A     -1.195634
      13A     -1.188666    14A     -1.160381    15A     -0.583658
      16A     -0.574200    17A     -0.571070    18A     -0.569506
      19A     -0.559557    20A     -0.534011    21A     -0.454650
      22A     -0.445008    23A     -0.442458    24A     -0.435304
      25A     -0.428882    26A     -0.414253    27A     -0.377235
      28A     -0.372139    29A     -0.362796    30A     -0.360909
      31A     -0.360097    32A     -0.354289    33A     -0.352332
      34A     -0.349798    35A     -0.320482

  @DF-RHF Final Energy:  -555.91844135782583

   => Energetics <=

    Nuclear Repulsion Energy =            353.2743541285915398
    One-Electron Energy =               -1486.1012911232674014
    Two-Electron Energy =                 576.9084956368500343
    Total Energy =                       -555.9184413578258273
 Dipole X            :         11.6125839          -10.3084485            1.3041355
 Dipole Y            :        -48.0521252           46.8513770           -1.2007482
 Dipole Z            :        -35.9303603           35.7257618           -0.2045985
 Magnitude           :                                                    1.7844960
  Basis Set: (AUG-CC-PVTZ AUX)
    Blend: AUG-CC-PVTZ-RI
	 Reference Energy          =    -555.9184413578258273 [Eh]
	 Singles Energy            =      -0.0000000000000000 [Eh]
	 Same-Spin Energy          =      -0.5028502444033534 [Eh]
	 Opposite-Spin Energy      =      -1.5335639955219049 [Eh]
	 Correlation Energy        =      -2.0364142399252581 [Eh]
	 Total Energy              =    -557.9548555977511342 [Eh]

	 ================> DF-SCS-MP2 Energies <==================
	-----------------------------------------------------------
	 SCS Same-Spin Scale       =       0.3333333333333333 [-]
	 SCS Opposite-Spin Scale   =       1.2000000000000000 [-]
	 SCS Same-Spin Energy      =      -0.1676167481344511 [Eh]
	 SCS Opposite-Spin Energy  =      -1.8402767946262859 [Eh]
	 SCS Correlation Energy    =      -2.0078935427607369 [Eh]
	 SCS Total Energy          =    -557.9263349005865393 [Eh]
	-----------------------------------------------------------

*** Psi4 exiting successfully. Buy a developer a beer!
