                               Psi4 1.8.2 release

  ==> Input File <==

--------------------------------------------------------------------------
MEMORY 60 GB

molecule dimer {
0 1
Gh(F)      0.000000     0.000000     0.000000
O         -1.051876     0.397188    -2.664526
H         -0.485530    -0.258494    -3.098839
H         -0.784316     0.374530    -1.766571
Gh(O)     -0.548980    -2.889172    -0.876141
Gh(H)     -0.402675    -1.956604    -0.860721
Gh(H)      0.114136    -3.180631    -1.543791
Gh(O)      0.945837     1.626921     2.124282
Gh(H)      0.821758     1.095363     1.318237
Gh(H)      0.313788     1.263948     2.804817
Gh(O)      2.426736     0.456517    -1.371097
Gh(H)      2.283500     1.268623    -1.938041
Gh(H)      1.590392     0.293672    -0.864561
Gh(O)     -2.021952    -0.732353     1.474827
Gh(H)     -2.053094    -1.698175     1.306604
Gh(H)     -1.260753    -0.350683     0.971493
Gh(O)      2.023011    -1.613709     1.503423
Gh(H)      1.169042    -1.189349     1.339393
Gh(H)      1.933657    -2.225891     2.263621

units ang
no_reorient
no_com
symmetry c1
}

set {
basis        aug-cc-pVTZ
scf_type     df
}

energy("mp2")
--------------------------------------------------------------------------

    Molecular point group: c1

    Geometry (in Angstrom), charge = 0, multiplicity = 1:

       Center              X                  Y                   Z               Mass
    ------------   -----------------  -----------------  -----------------  -----------------
      Gh(F)           0.000000000000     0.000000000000     0.000000000000    18.998403162730
         O           -1.051876000000     0.397188000000    -2.664526000000    15.994914619570
         H           -0.485530000000    -0.258494000000    -3.098839000000     1.007825032230
         H           -0.784316000000     0.374530000000    -1.766571000000     1.007825032230
      Gh(O)          -0.548980000000    -2.889172000000    -0.876141000000    15.994914619570
      Gh(H)          -0.402675000000    -1.956604000000    -0.860721000000     1.007825032230
      Gh(H)           0.114136000000    -3.180631000000    -1.543791000000     1.007825032230
      Gh(O)           0.945837000000     1.626921000000     2.124282000000    15.994914619570
      Gh(H)           0.821758000000     1.095363000000     1.318237000000     1.007825032230
      Gh(H)           0.313788000000     1.263948000000     2.804817000000     1.007825032230
      Gh(O)           2.426736000000     0.456517000000    -1.371097000000    15.994914619570
      Gh(H)           2.283500000000     1.268623000000    -1.938041000000     1.007825032230
      Gh(H)           1.590392000000     0.293672000000    -0.864561000000     1.007825032230
      Gh(O)          -2.021952000000    -0.732353000000     1.474827000000    15.994914619570
      Gh(H)          -2.053094000000    -1.698175000000     1.306604000000     1.007825032230
      Gh(H)          -1.260753000000    -0.350683000000     0.971493000000     1.007825032230
      Gh(O)           2.023011000000    -1.613709000000     1.503423000000    15.994914619570
      Gh(H)           1.169042000000    -1.189349000000     1.339393000000     1.007825032230
      Gh(H)           1.933657000000    -2.225891000000     2.263621000000     1.007825032230

  Charge       = 0
  Multiplicity = 1
  Basis Set: AUG-CC-PVTZ
    Blend: AUG-CC-PVTZ
  Basis Set: (AUG-CC-PVTZ AUX)
    Blend: AUG-CC-PVTZ-JKFIT

    Orbital Energies [Eh]
    ---------------------

    Doubly Occupied:

       1A    -20.566430     2A     -1.356061     3A     -0.719548
       4A     -0.586076     5A     -0.510761

  @DF-RHF Final Energy:   -76.06038993060561

   => Energetics <=

    Nuclear Repulsion Energy =              9.2365791664269796
    One-Electron Energy =                -123.1161829635608314
    Two-Electron Energy =                  37.8192138665282513
    Total Energy =                        -76.0603899306055951
 Dipole X            :         18.8563433          -18.3017216            0.5546217
 Dipole Y            :         -6.6734834            6.2238886           -0.4495948
 Dipole Z            :         49.7903223          -49.4760875            0.3142348
 Magnitude           :                                                    0.7800540
  Basis Set: (AUG-CC-PVTZ AUX)
    Blend: AUG-CC-PVTZ-RI
	 Reference Energy          =     -76.0603899306056093 [Eh]
	 Singles Energy            =      -0.0000000000000000 [Eh]
	 Same-Spin Energy          =      -0.0683389310780680 [Eh]
	 Opposite-Spin Energy      =      -0.2160216869165463 [Eh]
	 Correlation Energy        =      -0.2843606179946143 [Eh]
	 Total Energy              =     -76.3447505486002171 [Eh]

	 ================> DF-SCS-MP2 Energies <==================
	-----------------------------------------------------------
	 SCS Same-Spin Scale       =       0.3333333333333333 [-]
	 SCS Opposite-Spin Scale   =       1.2000000000000000 [-]
	 SCS Same-Spin Energy      =      -0.0227796436926893 [Eh]
	 SCS Opposite-Spin Energy  =      -0.2592260242998555 [Eh]
	 SCS Correlation Energy    =      -0.2820056679925448 [Eh]
	 SCS Total Energy          =     -76.3423955985981593 [Eh]
	-----------------------------------------------------------

*** Psi4 exiting successfully. Buy a developer a beer!
