                               Psi4 1.8.2 release

  ==> Input File <==

--------------------------------------------------------------------------
MEMORY 60 GB

molecule dimer {
-1 1
F          0.000000     0.000000     0.000000
O          1.512197     2.406580     0.840529
H          1.189138     1.586338     0.433157
H          2.329104     2.157667     1.308984
O          2.683513    -0.541509    -1.145838
H          1.792279    -0.332970    -1.099115
H          2.865836    -1.009315    -1.953440
O          0.329378     0.134783     2.607000
H          0.981309    -0.433808     3.083691
H          0.427067     0.007313     1.637742
O         -1.529615     2.372468    -0.487485
H         -2.400986     2.019607    -0.798232
H         -0.921564     1.683072    -0.056461
O         -1.725904    -1.071838    -2.007168
H         -0.961340    -0.890348    -1.431397
H         -2.335466    -0.373033    -1.946563
O         -1.183214    -2.045956     1.508332
H         -0.765362    -1.328612     0.983167
H         -0.774333    -1.986699     2.409746

units ang
no_reorient
no_com
symmetry c1
}

set {
basis        aug-cc-pVTZ
scf_type     df
}

energy("mp2")
--------------------------------------------------------------------------

    Molecular point group: c1

    Geometry (in Angstrom), charge = -1, multiplicity = 1:

       Center              X                  Y                   Z               Mass
    ------------   -----------------  -----------------  -----------------  -----------------
         F            0.000000000000     0.000000000000     0.000000000000    18.998403162730
         O            1.512197000000     2.406580000000     0.840529000000    15.994914619570
         H            1.189138000000     1.586338000000     0.433157000000     1.007825032230
         H            2.329104000000     2.157667000000     1.308984000000     1.007825032230
         O            2.683513000000    -0.541509000000    -1.145838000000    15.994914619570
         H            1.792279000000    -0.332970000000    -1.099115000000     1.007825032230
         H            2.865836000000    -1.009315000000    -1.953440000000     1.007825032230
         O            0.329378000000     0.134783000000     2.607000000000    15.994914619570
         H            0.981309000000    -0.433808000000     3.083691000000     1.007825032230
         H            0.427067000000     0.007313000000     1.637742000000     1.007825032230
         O           -1.529615000000     2.372468000000    -0.487485000000    15.994914619570
         H           -2.400986000000     2.019607000000    -0.798232000000     1.007825032230
         H           -0.921564000000     1.683072000000    -0.056461000000     1.007825032230
         O           -1.725904000000    -1.071838000000    -2.007168000000    15.994914619570
         H           -0.961340000000    -0.890348000000    -1.431397000000     1.007825032230
         H           -2.335466000000    -0.373033000000    -1.946563000000     1.007825032230
         O           -1.183214000000    -2.045956000000     1.508332000000    15.994914619570
         H           -0.765362000000    -1.328612000000     0.983167000000     1.007825032230
         H           -0.774333000000    -1.986699000000     2.409746000000     1.007825032230

  Charge       = -1
  Multiplicity = 1
  Basis Set: AUG-CC-PVTZ
    Blend: AUG-CC-PVTZ
  Basis Set: (AUG-CC-PVTZ AUX)
    Blend: AUG-CC-PVTZ-JKFIT

    Orbital Energies [Eh]
    ---------------------

    Doubly Occupied:

       1A    -26.015455     2A    -20.429110     3A    -20.410353
       4A    -20.408289     5A    -20.407392     6A    -20.406911
       7A    -20.395275     8A     -1.284572     9A     -1.231707
      10A     -1.199632    11A     -1.189988    12A     -1.184142
      13A     -1.166316    14A     -1.165485    15A     -0.612394
      16A     -0.581741    17A     -0.570970    18A     -0.564791
      19A     -0.547309    20A     -0.535315    21A     -0.452209
      22A     -0.439419    23A     -0.435046    24A     -0.427302
      25A     -0.414355    26A     -0.409748    27A     -0.382598
      28A     -0.371334    29A     -0.366899    30A     -0.363644
      31A     -0.359565    32A     -0.355315    33A     -0.343746
      34A     -0.340716    35A     -0.333655

  @DF-RHF Final Energy:  -555.90872555617443

   => Energetics <=

    Nuclear Repulsion Energy =            354.1212727216476992
    One-Electron Energy =               -1487.8545796632208749
    Two-Electron Energy =                 577.8245813853986874
    Total Energy =                       -555.9087255561744314
 Dipole X            :         -3.0921787            3.9996469            0.9074682
 Dipole Y            :        -21.9145539           21.0429243           -0.8716296
 Dipole Z            :        -25.0200386           24.7445255           -0.2755131
 Magnitude           :                                                    1.2880777
  Basis Set: (AUG-CC-PVTZ AUX)
    Blend: AUG-CC-PVTZ-RI
	 Reference Energy          =    -555.9087255561744314 [Eh]
	 Singles Energy            =      -0.0000000000000000 [Eh]
	 Same-Spin Energy          =      -0.5037692307194133 [Eh]
	 Opposite-Spin Energy      =      -1.5350598918037115 [Eh]
	 Correlation Energy        =      -2.0388291225231248 [Eh]
	 Total Energy              =    -557.9475546786975428 [Eh]

	 ================> DF-SCS-MP2 Energies <==================
	-----------------------------------------------------------
	 SCS Same-Spin Scale       =       0.3333333333333333 [-]
	 SCS Opposite-Spin Scale   =       1.2000000000000000 [-]
	 SCS Same-Spin Energy      =      -0.1679230769064711 [Eh]
	 SCS Opposite-Spin Energy  =      -1.8420718701644536 [Eh]
	 SCS Correlation Energy    =      -2.0099949470709246 [Eh]
	 SCS Total Energy          =    -557.9187205032453676 [Eh]
	-----------------------------------------------------------

*** Psi4 exiting successfully. Buy a developer a beer!
