                               Psi4 1.9 release

  ==> Input File <==

--------------------------------------------------------------------------
MEMORY 60 GB

molecule dimer {
-1 1
F      0.000000     0.000000     0.000000
--
0 1
O     -1.757669     1.731762    -1.188806
H     -1.054100     1.222666    -0.807146
H     -2.431703     1.051578    -1.257114
O     -0.820887    -1.641481    -2.008204
H     -0.237360    -2.357330    -2.347688
H     -0.248955    -1.123146    -1.330694
O     -0.048245    -2.492875     1.400940
H     -0.330918    -3.382914     1.097712
H     -0.433577    -1.797270     0.832638
O     -0.132776     0.799660     2.598069
H      0.795625     0.856029     2.802210
H     -0.046890     0.411235     1.712879
O      1.613949     1.493049    -1.711417
H      1.268428     1.014021    -0.937188
H      2.504434     1.668752    -1.471379

units ang
no_reorient
no_com
symmetry c1
}

set {
basis        aug-cc-pVTZ
scf_type     df
}

energy("mp2", bsse_type="cp")
--------------------------------------------------------------------------

                               Psi4 1.9 release
    Molecular point group: c1
  Charge       = 0
  Multiplicity = 1
  Basis Set: AUG-CC-PVTZ
    Blend: AUG-CC-PVTZ
  Basis Set: (AUG-CC-PVTZ AUX)
    Blend: AUG-CC-PVTZ-JKFIT
  @DF-RHF Final Energy:  -380.27343632763802
    Total Energy =                       -380.2734363276380236
 Dipole X            :         19.0431780          -17.7257066            1.3174714
 Dipole Y            :          4.8110019           -6.2653095           -1.4543076
 Dipole Z            :         16.9537075          -16.9718458           -0.0181383
 Magnitude           :                                                    1.9624144
  Basis Set: (AUG-CC-PVTZ AUX)
    Blend: AUG-CC-PVTZ-RI
	 Reference Energy          =    -380.2734363276380236 [Eh]
	 Singles Energy            =      -0.0000000000000000 [Eh]
	 Same-Spin Energy          =      -0.3455736687322672 [Eh]
	 Opposite-Spin Energy      =      -1.0869387906583843 [Eh]
	 Correlation Energy        =      -1.4325124593906515 [Eh]
	 Total Energy              =    -381.7059487870286603 [Eh]
	 SCS Total Energy          =    -381.6929540993388628 [Eh]
                               Psi4 1.9 release
    Molecular point group: c1
  Multiplicity = 1
  Basis Set: AUG-CC-PVTZ
    Blend: AUG-CC-PVTZ
  Basis Set: (AUG-CC-PVTZ AUX)
    Blend: AUG-CC-PVTZ-JKFIT
  @DF-RHF Final Energy:   -99.45111655493038
    Total Energy =                        -99.4511165549303797
  Basis Set: (AUG-CC-PVTZ AUX)
	 Singles Energy            =      -0.0000000000000000 [Eh]
	 Same-Spin Energy          =      -0.0820640351786559 [Eh]
	 Opposite-Spin Energy      =      -0.2302011640522053 [Eh]
	 Correlation Energy        =      -0.3122651992308612 [Eh]
	 Total Energy              =     -99.7633817541612444 [Eh]
	 SCS Total Energy          =     -99.7547126301859066 [Eh]
                               Psi4 1.9 release
    Molecular point group: c1

    Geometry (in Bohr), charge = -1, multiplicity = 1:

       Center              X                  Y                   Z               Mass
    ------------   -----------------  -----------------  -----------------  -----------------
         F            0.000000000000     0.000000000000     0.000000000000    18.998403162730
         O           -3.321513029207     3.272555894475    -2.246517756301    15.994914619570
         H           -1.991960308845     2.310503882909    -1.525284883259     1.007825032230
         H           -4.595252688454     1.987194419557    -2.375601168479     1.007825032230
         O           -1.551251609949    -3.101949530143    -3.794955564049    15.994914619570
         H           -0.448545393139    -4.454708087326    -4.436487348024     1.007825032230
         H           -0.470456767563    -2.122438338903    -2.514647216790     1.007825032230
         O           -0.091169836923    -4.710851015001     2.647392918199    15.994914619570
         H           -0.625344389984    -6.392780965977     2.074375044629     1.007825032230
         H           -0.819341784298    -3.396348073502     1.573457781649     1.007825032230
         O           -0.250910276034     1.511138393484     4.909638865042    15.994914619570
         H            1.503513348567     1.617660365450     5.295409446019     1.007825032230
         H           -0.088609258023     0.777121523203     3.236872196048     1.007825032230
         O            3.049921590457     2.821453701889    -3.234109416453    15.994914619570
         H            2.396981529862     1.916221975463    -1.771028648066     1.007825032230
         H            4.732694359285     3.153484251310    -2.780503336750     1.007825032230

  Charge       = -1
  Multiplicity = 1
  Basis Set: AUG-CC-PVTZ
    Blend: AUG-CC-PVTZ
  Basis Set: (AUG-CC-PVTZ AUX)
    Blend: AUG-CC-PVTZ-JKFIT

    Orbital Energies [Eh]
    ---------------------

    Doubly Occupied:

       1A    -25.995368     2A    -20.416883     3A    -20.408483
       4A    -20.404408     5A    -20.389704     6A    -20.376703
       7A     -1.265144     8A     -1.195570     9A     -1.188803
      10A     -1.180126    11A     -1.170277    12A     -1.168989
      13A     -0.570791    14A     -0.559187    15A     -0.542665
      16A     -0.527805    17A     -0.526556    18A     -0.434688
      19A     -0.433475    20A     -0.426132    21A     -0.421034
      22A     -0.416248    23A     -0.361903    24A     -0.356696
      25A     -0.353759    26A     -0.346845    27A     -0.344810
      28A     -0.343553    29A     -0.333602    30A     -0.324061

  @DF-RHF Final Energy:  -479.85095092638306

   => Energetics <=

    Nuclear Repulsion Energy =            264.2257959592735688
    One-Electron Energy =               -1202.5849493372688812
    Two-Electron Energy =                 458.5082024516122488
    Total Energy =                       -479.8509509263830637
 Dipole X            :         19.1851006          -17.7257066            1.4593939
 Dipole Y            :          4.8701293           -6.2653095           -1.3951802
 Dipole Z            :         17.1492839          -16.9718458            0.1774382
 Magnitude           :                                                    2.0267814
  Basis Set: (AUG-CC-PVTZ AUX)
    Blend: AUG-CC-PVTZ-RI
	 Reference Energy          =    -479.8509509263830637 [Eh]
	 Singles Energy            =      -0.0000000000000000 [Eh]
	 Same-Spin Energy          =      -0.4335430528731690 [Eh]
	 Opposite-Spin Energy      =      -1.3167783770440564 [Eh]
	 Correlation Energy        =      -1.7503214299172254 [Eh]
	 Total Energy              =    -481.6012723563002851 [Eh]

	 ================> DF-SCS-MP2 Energies <==================
	-----------------------------------------------------------
	 SCS Same-Spin Scale       =       0.3333333333333333 [-]
	 SCS Opposite-Spin Scale   =       1.2000000000000000 [-]
	 SCS Same-Spin Energy      =      -0.1445143509577230 [Eh]
	 SCS Opposite-Spin Energy  =      -1.5801340524528678 [Eh]
	 SCS Correlation Energy    =      -1.7246484034105907 [Eh]
	 SCS Total Energy          =    -481.5755993297936470 [Eh]
	-----------------------------------------------------------

*** Psi4 exiting successfully. Buy a developer a beer!
