                               Psi4 1.8.2 release

  ==> Input File <==

--------------------------------------------------------------------------
MEMORY 60 GB

molecule dimer {
-1 1
F          0.000000     0.000000     0.000000
O         -1.168925    -2.673082    -0.156407
H         -0.532814    -1.976025     0.030081
H         -0.770947    -3.520667    -0.293653
O          1.082029     2.520347    -0.603439
H          0.672508     1.677488    -0.480498
H          0.457772     2.981546    -1.209019
O         -0.925839     1.844347     1.960486
H         -1.580309     2.274669     1.443794
H         -0.581606     1.043570     1.437507
O         -2.619341     0.361552    -1.053879
H         -1.651449     0.465340    -0.947193
H         -2.854127     1.241772    -0.755563
O          1.854349    -0.472305    -2.337972
H          2.829300    -0.270573    -2.277932
H          1.410065    -0.078132    -1.605965
O          1.344018    -1.431921     1.858566
H          2.072652    -1.020212     2.353761
H          0.950753    -0.724812     1.238400

units ang
no_reorient
no_com
symmetry c1
}

set {
basis        aug-cc-pVTZ
scf_type     df
}

energy("mp2")
--------------------------------------------------------------------------

    Molecular point group: c1

    Geometry (in Angstrom), charge = -1, multiplicity = 1:

       Center              X                  Y                   Z               Mass
    ------------   -----------------  -----------------  -----------------  -----------------
         F            0.000000000000     0.000000000000     0.000000000000    18.998403162730
         O           -1.168925000000    -2.673082000000    -0.156407000000    15.994914619570
         H           -0.532814000000    -1.976025000000     0.030081000000     1.007825032230
         H           -0.770947000000    -3.520667000000    -0.293653000000     1.007825032230
         O            1.082029000000     2.520347000000    -0.603439000000    15.994914619570
         H            0.672508000000     1.677488000000    -0.480498000000     1.007825032230
         H            0.457772000000     2.981546000000    -1.209019000000     1.007825032230
         O           -0.925839000000     1.844347000000     1.960486000000    15.994914619570
         H           -1.580309000000     2.274669000000     1.443794000000     1.007825032230
         H           -0.581606000000     1.043570000000     1.437507000000     1.007825032230
         O           -2.619341000000     0.361552000000    -1.053879000000    15.994914619570
         H           -1.651449000000     0.465340000000    -0.947193000000     1.007825032230
         H           -2.854127000000     1.241772000000    -0.755563000000     1.007825032230
         O            1.854349000000    -0.472305000000    -2.337972000000    15.994914619570
         H            2.829300000000    -0.270573000000    -2.277932000000     1.007825032230
         H            1.410065000000    -0.078132000000    -1.605965000000     1.007825032230
         O            1.344018000000    -1.431921000000     1.858566000000    15.994914619570
         H            2.072652000000    -1.020212000000     2.353761000000     1.007825032230
         H            0.950753000000    -0.724812000000     1.238400000000     1.007825032230

  Charge       = -1
  Multiplicity = 1
  Basis Set: AUG-CC-PVTZ
    Blend: AUG-CC-PVTZ
  Basis Set: (AUG-CC-PVTZ AUX)
    Blend: AUG-CC-PVTZ-JKFIT

    Orbital Energies [Eh]
    ---------------------

    Doubly Occupied:

       1A    -26.011844     2A    -20.423917     3A    -20.422633
       4A    -20.417106     5A    -20.407495     6A    -20.405678
       7A    -20.392717     8A     -1.279473     9A     -1.208203
      10A     -1.202097    11A     -1.200763    12A     -1.186338
      13A     -1.180877    14A     -1.172341    15A     -0.581282
      16A     -0.574162    17A     -0.567955    18A     -0.561505
      19A     -0.552207    20A     -0.541141    21A     -0.455549
      22A     -0.448392    23A     -0.435597    24A     -0.428992
      25A     -0.421695    26A     -0.403409    27A     -0.375286
      28A     -0.371962    29A     -0.369388    30A     -0.362018
      31A     -0.360449    32A     -0.354242    33A     -0.347644
      34A     -0.344328    35A     -0.339571

  @DF-RHF Final Energy:  -555.91173882630267

   => Energetics <=

    Nuclear Repulsion Energy =            349.1846091644717944
    One-Electron Energy =               -1477.9761761792847210
    Two-Electron Energy =                 572.8798281885102597
    Total Energy =                       -555.9117388263026669
 Dipole X            :          6.6168906           -5.7596471            0.8572435
 Dipole Y            :         -5.2221355            6.2086347            0.9864992
 Dipole Z            :          6.6943704           -7.0438407           -0.3494703
 Magnitude           :                                                    1.3528402
  Basis Set: (AUG-CC-PVTZ AUX)
    Blend: AUG-CC-PVTZ-RI
	 Reference Energy          =    -555.9117388263026669 [Eh]
	 Singles Energy            =      -0.0000000000000000 [Eh]
	 Same-Spin Energy          =      -0.5031620108297026 [Eh]
	 Opposite-Spin Energy      =      -1.5350369803483652 [Eh]
	 Correlation Energy        =      -2.0381989911780680 [Eh]
	 Total Energy              =    -557.9499378174807589 [Eh]

	 ================> DF-SCS-MP2 Energies <==================
	-----------------------------------------------------------
	 SCS Same-Spin Scale       =       0.3333333333333333 [-]
	 SCS Opposite-Spin Scale   =       1.2000000000000000 [-]
	 SCS Same-Spin Energy      =      -0.1677206702765675 [Eh]
	 SCS Opposite-Spin Energy  =      -1.8420443764180381 [Eh]
	 SCS Correlation Energy    =      -2.0097650466946058 [Eh]
	 SCS Total Energy          =    -557.9215038729972775 [Eh]
	-----------------------------------------------------------

*** Psi4 exiting successfully. Buy a developer a beer!
