                               Psi4 1.9 release

  ==> Input File <==

--------------------------------------------------------------------------
MEMORY 60 GB

molecule dimer {
-1 1
F      0.000000     0.000000     0.000000
--
0 1
O     -0.080310    -1.847083     2.022993
H      0.457360    -2.626850     1.740577
H      0.018614    -1.169433     1.294985
O      2.837448     0.327763    -0.543030
H      1.880268     0.381752    -0.427617
H      3.126366     1.066889    -0.006077
O     -2.870208     0.106987    -0.242889
H     -1.947930     0.074098    -0.240484
H     -3.032889     0.359006     0.686018
O     -0.565191    -2.497966    -1.410818
H     -0.439203    -1.753445    -0.804045
H     -1.324202    -3.032814    -1.079231
O      0.554201     1.968228     1.715688
H     -0.376763     2.281724     1.957626
H      0.367929     1.318127     1.000096

units ang
no_reorient
no_com
symmetry c1
}

set {
basis        aug-cc-pVTZ
scf_type     df
}

energy("mp2", bsse_type="cp")
--------------------------------------------------------------------------

                               Psi4 1.9 release
    Molecular point group: c1
  Charge       = 0
  Multiplicity = 1
  Basis Set: AUG-CC-PVTZ
    Blend: AUG-CC-PVTZ
  Basis Set: (AUG-CC-PVTZ AUX)
    Blend: AUG-CC-PVTZ-JKFIT
  @DF-RHF Final Energy:  -380.27277998191886
    Total Energy =                       -380.2727799819188590
 Dipole X            :          3.6291455           -4.2763179           -0.6471725
 Dipole Y            :         35.6903486          -35.2197971            0.4705515
 Dipole Z            :        -30.3221083           31.0999787            0.7778704
 Magnitude           :                                                    1.1159450
  Basis Set: (AUG-CC-PVTZ AUX)
    Blend: AUG-CC-PVTZ-RI
	 Reference Energy          =    -380.2727799819188590 [Eh]
	 Singles Energy            =      -0.0000000000000000 [Eh]
	 Same-Spin Energy          =      -0.3459518974528460 [Eh]
	 Opposite-Spin Energy      =      -1.0888982412765267 [Eh]
	 Correlation Energy        =      -1.4348501387293728 [Eh]
	 Total Energy              =    -381.7076301206482185 [Eh]
	 SCS Total Energy          =    -381.6947751706016447 [Eh]
                               Psi4 1.9 release
    Molecular point group: c1
  Multiplicity = 1
  Basis Set: AUG-CC-PVTZ
    Blend: AUG-CC-PVTZ
  Basis Set: (AUG-CC-PVTZ AUX)
    Blend: AUG-CC-PVTZ-JKFIT
  @DF-RHF Final Energy:   -99.45111654876875
    Total Energy =                        -99.4511165487687663
  Basis Set: (AUG-CC-PVTZ AUX)
	 Singles Energy            =      -0.0000000000000000 [Eh]
	 Same-Spin Energy          =      -0.0820563744626179 [Eh]
	 Opposite-Spin Energy      =      -0.2301562060536395 [Eh]
	 Correlation Energy        =      -0.3122125805162574 [Eh]
	 Total Energy              =     -99.7633291292850117 [Eh]
	 SCS Total Energy          =     -99.7546561208539941 [Eh]
                               Psi4 1.9 release
    Molecular point group: c1

    Geometry (in Bohr), charge = -1, multiplicity = 1:

       Center              X                  Y                   Z               Mass
    ------------   -----------------  -----------------  -----------------  -----------------
         F            0.000000000000     0.000000000000     0.000000000000    18.998403162730
         O           -0.151763905136    -3.490481000989     3.822902723718    15.994914619570
         H            0.864285140739    -4.964027072659     3.289213830271     1.007825032230
         H            0.035175362099    -2.209908092073     2.447166986576     1.007825032230
         O            5.361999615228     0.619382304058    -1.026177977907    15.994914619570
         H            3.553191562462     0.721406727846    -0.808079016590     1.007825032230
         H            5.907975507943     2.016128016264    -0.011483865664     1.007825032230
         O           -5.423907043098     0.202176128984    -0.458993688886    15.994914619570
         H           -3.681054211563     0.140024926444    -0.454448897555     1.007825032230
         H           -5.731329578914     0.678423017396     1.296386137134     1.007825032230
         O           -1.068056198574    -4.720471610705    -2.666059632866    15.994914619570
         H           -0.829973383479    -3.313530826053    -1.519424842544     1.007825032230
         H           -2.502379114784    -5.731187849454    -2.039451016104     1.007825032230
         O            1.047288108455     3.719411872458     3.242180436734    15.994914619570
         H           -0.711978884206     4.311833453884     3.699376996076     1.007825032230
         H            0.695285043614     2.490899028571     1.889907539166     1.007825032230

  Charge       = -1
  Multiplicity = 1
  Basis Set: AUG-CC-PVTZ
    Blend: AUG-CC-PVTZ
  Basis Set: (AUG-CC-PVTZ AUX)
    Blend: AUG-CC-PVTZ-JKFIT

    Orbital Energies [Eh]
    ---------------------

    Doubly Occupied:

       1A    -26.002407     2A    -20.415708     3A    -20.410818
       4A    -20.407146     5A    -20.406521     6A    -20.401339
       7A     -1.270511     8A     -1.211476     9A     -1.193452
      10A     -1.185316    11A     -1.172629    12A     -1.168509
      13A     -0.567597    14A     -0.559855    15A     -0.550470
      16A     -0.541115    17A     -0.536537    18A     -0.452952
      19A     -0.437099    20A     -0.435642    21A     -0.426252
      22A     -0.418373    23A     -0.365850    24A     -0.362468
      25A     -0.358748    26A     -0.353586    27A     -0.352016
      28A     -0.349440    29A     -0.342784    30A     -0.339134

  @DF-RHF Final Energy:  -479.85940311296304

   => Energetics <=

    Nuclear Repulsion Energy =            261.5880267927134355
    One-Electron Energy =               -1196.9033549262899214
    Two-Electron Energy =                 455.4559250206134493
    Total Energy =                       -479.8594031129630366
 Dipole X            :          3.6501499           -4.2763179           -0.6261680
 Dipole Y            :         35.8868444          -35.2197971            0.6670473
 Dipole Z            :        -30.8030231           31.0999787            0.2969556
 Magnitude           :                                                    0.9618842
  Basis Set: (AUG-CC-PVTZ AUX)
    Blend: AUG-CC-PVTZ-RI
	 Reference Energy          =    -479.8594031129630366 [Eh]
	 Singles Energy            =      -0.0000000000000000 [Eh]
	 Same-Spin Energy          =      -0.4331394694058309 [Eh]
	 Opposite-Spin Energy      =      -1.3177304517523343 [Eh]
	 Correlation Energy        =      -1.7508699211581651 [Eh]
	 Total Energy              =    -481.6102730341211782 [Eh]

	 ================> DF-SCS-MP2 Energies <==================
	-----------------------------------------------------------
	 SCS Same-Spin Scale       =       0.3333333333333333 [-]
	 SCS Opposite-Spin Scale   =       1.2000000000000000 [-]
	 SCS Same-Spin Energy      =      -0.1443798231352770 [Eh]
	 SCS Opposite-Spin Energy  =      -1.5812765421028010 [Eh]
	 SCS Correlation Energy    =      -1.7256563652380779 [Eh]
	 SCS Total Energy          =    -481.5850594782011171 [Eh]
	-----------------------------------------------------------

*** Psi4 exiting successfully. Buy a developer a beer!
