                               Psi4 1.9 release

  ==> Input File <==

--------------------------------------------------------------------------
MEMORY 60 GB

molecule dimer {
-1 1
F      0.000000     0.000000     0.000000
--
0 1
O     -1.945136    -1.413182     1.367579
H     -1.132921    -0.938922     1.171212
H     -2.651383    -0.875104     0.961083
O     -1.350681    -2.008379    -1.670930
H     -0.985944    -1.268364    -1.181080
H     -1.736380    -2.627030    -1.021029
O      0.862309    -0.601341     2.674102
H      1.741873    -0.563225     3.014842
H      0.976276    -0.526036     1.729429
O     -1.323555     2.376947     0.717854
H     -0.951878     1.552126     0.528634
H     -1.972845     2.155135     1.420980
O      1.514005     2.065652    -0.894712
H      0.997807     1.295821    -0.630673
H      2.370089     1.930574    -0.478737

units ang
no_reorient
no_com
symmetry c1
}

set {
basis        aug-cc-pVTZ
scf_type     df
}

energy("mp2", bsse_type="cp")
--------------------------------------------------------------------------

                               Psi4 1.9 release
    Molecular point group: c1
  Charge       = 0
  Multiplicity = 1
  Basis Set: AUG-CC-PVTZ
    Blend: AUG-CC-PVTZ
  Basis Set: (AUG-CC-PVTZ AUX)
    Blend: AUG-CC-PVTZ-JKFIT
  @DF-RHF Final Energy:  -380.28319710302350
    Total Energy =                       -380.2831971030234968
 Dipole X            :         40.9853927          -40.2318346            0.7535582
 Dipole Y            :         -7.0205283            6.5999649           -0.4205635
 Dipole Z            :        -42.6865714           43.5880543            0.9014829
 Magnitude           :                                                    1.2479563
  Basis Set: (AUG-CC-PVTZ AUX)
    Blend: AUG-CC-PVTZ-RI
	 Reference Energy          =    -380.2831971030234968 [Eh]
	 Singles Energy            =      -0.0000000000000000 [Eh]
	 Same-Spin Energy          =      -0.3449660322291846 [Eh]
	 Opposite-Spin Energy      =      -1.0844174347099682 [Eh]
	 Correlation Energy        =      -1.4293834669391527 [Eh]
	 Total Energy              =    -381.7125805699626540 [Eh]
	 SCS Total Energy          =    -381.6994867020852098 [Eh]
                               Psi4 1.9 release
    Molecular point group: c1
  Multiplicity = 1
  Basis Set: AUG-CC-PVTZ
    Blend: AUG-CC-PVTZ
  Basis Set: (AUG-CC-PVTZ AUX)
    Blend: AUG-CC-PVTZ-JKFIT
  @DF-RHF Final Energy:   -99.45110505971454
    Total Energy =                        -99.4511050597145498
  Basis Set: (AUG-CC-PVTZ AUX)
	 Singles Energy            =      -0.0000000000000000 [Eh]
	 Same-Spin Energy          =      -0.0820322792089181 [Eh]
	 Opposite-Spin Energy      =      -0.2299201231996311 [Eh]
	 Correlation Energy        =      -0.3119524024085493 [Eh]
	 Total Energy              =     -99.7630574621230863 [Eh]
	 SCS Total Energy          =     -99.7543533006237340 [Eh]
                               Psi4 1.9 release
    Molecular point group: c1

    Geometry (in Bohr), charge = -1, multiplicity = 1:

       Center              X                  Y                   Z               Mass
    ------------   -----------------  -----------------  -----------------  -----------------
         F            0.000000000000     0.000000000000     0.000000000000    18.998403162730
         O           -3.675774316769    -2.670526945427     2.584349764927    15.994914619570
         H           -2.140910411780    -1.774305433167     2.213269914850     1.007825032230
         H           -5.010387723695    -1.653706891293     1.816183653833     1.007825032230
         O           -2.552417172860    -3.795286266121    -3.157600074811    15.994914619570
         H           -1.863164135038    -2.396860587390    -2.231917732256     1.007825032230
         H           -3.281282649722    -4.964367223361    -1.929465176150     1.007825032230
         O            1.629527845517    -1.136369798009     5.053320411539    15.994914619570
         H            3.291662915330    -1.064340997011     5.697225691528     1.007825032230
         H            1.844894262857    -0.994063972131     3.268147163424     1.007825032230
         O           -2.501156461980     4.491778844729     1.356547458064    15.994914619570
         H           -1.798788724849     2.933093052202     0.998973480605     1.007825032230
         H           -3.728136737979     4.072614913389     2.685263029753     1.007825032230
         O            2.861054802574     3.903516550504    -1.690760641161    15.994914619570
         H            1.885581956065     2.448746797617    -1.191799244721     1.007825032230
         H            4.478819102960     3.648256124930    -0.904681816123     1.007825032230

  Charge       = -1
  Multiplicity = 1
  Basis Set: AUG-CC-PVTZ
    Blend: AUG-CC-PVTZ
  Basis Set: (AUG-CC-PVTZ AUX)
    Blend: AUG-CC-PVTZ-JKFIT

    Orbital Energies [Eh]
    ---------------------

    Doubly Occupied:

       1A    -25.984944     2A    -20.421350     3A    -20.404446
       4A    -20.398464     5A    -20.398007     6A    -20.388007
       7A     -1.251550     8A     -1.215563     9A     -1.190926
      10A     -1.187761    11A     -1.178619    12A     -1.174760
      13A     -0.583280    14A     -0.557600    15A     -0.553224
      16A     -0.550506    17A     -0.540251    18A     -0.447885
      19A     -0.436744    20A     -0.429437    21A     -0.419492
      22A     -0.416199    23A     -0.370502    24A     -0.351320
      25A     -0.350557    26A     -0.347693    27A     -0.340818
      28A     -0.339917    29A     -0.334026    30A     -0.330942

  @DF-RHF Final Energy:  -479.85812863893960

   => Energetics <=

    Nuclear Repulsion Energy =            264.9196323923973182
    One-Electron Energy =               -1203.7659295726905384
    Two-Electron Energy =                 458.9881685413536729
    Total Energy =                       -479.8581286389396041
 Dipole X            :         41.2307907          -40.2318346            0.9989562
 Dipole Y            :         -7.1559691            6.5999649           -0.5560042
 Dipole Z            :        -42.9839263           43.5880543            0.6041280
 Magnitude           :                                                    1.2930680
  Basis Set: (AUG-CC-PVTZ AUX)
    Blend: AUG-CC-PVTZ-RI
	 Reference Energy          =    -479.8581286389396041 [Eh]
	 Singles Energy            =      -0.0000000000000000 [Eh]
	 Same-Spin Energy          =      -0.4317016958595796 [Eh]
	 Opposite-Spin Energy      =      -1.3135089305724534 [Eh]
	 Correlation Energy        =      -1.7452106264320331 [Eh]
	 Total Energy              =    -481.6033392653716305 [Eh]

	 ================> DF-SCS-MP2 Energies <==================
	-----------------------------------------------------------
	 SCS Same-Spin Scale       =       0.3333333333333333 [-]
	 SCS Opposite-Spin Scale   =       1.2000000000000000 [-]
	 SCS Same-Spin Energy      =      -0.1439005652865265 [Eh]
	 SCS Opposite-Spin Energy  =      -1.5762107166869441 [Eh]
	 SCS Correlation Energy    =      -1.7201112819734705 [Eh]
	 SCS Total Energy          =    -481.5782399209130631 [Eh]
	-----------------------------------------------------------

*** Psi4 exiting successfully. Buy a developer a beer!
