                               Psi4 1.8.2 release

  ==> Input File <==

--------------------------------------------------------------------------
MEMORY 60 GB

molecule dimer {
-1 1
F          0.000000     0.000000     0.000000
O         -1.254088    -1.142537    -2.417176
H         -0.631148    -1.581451    -3.028934
H         -0.778164    -0.740928    -1.674863
O         -0.057219     2.426383    -1.313720
H         -0.057407     1.609916    -0.812182
H         -0.845317     2.970306    -1.027585
O          2.516034     0.501269    -0.681349
H          2.742378    -0.372026    -0.952918
H          1.589097     0.394194    -0.467607
O         -1.246877     0.634837     2.442815
H         -0.668058    -0.102871     2.736022
H         -0.910013     0.825774     1.599682
O         -0.108124    -2.872909    -0.185625
H         -0.484207    -3.076891     0.701130
H         -0.163962    -1.865782    -0.238802

units ang
no_reorient
no_com
symmetry c1
}

set {
basis        aug-cc-pVTZ
scf_type     df
}

energy("mp2")
--------------------------------------------------------------------------

    Molecular point group: c1

    Geometry (in Angstrom), charge = -1, multiplicity = 1:

       Center              X                  Y                   Z               Mass
    ------------   -----------------  -----------------  -----------------  -----------------
         F            0.000000000000     0.000000000000     0.000000000000    18.998403162730
         O           -1.254088000000    -1.142537000000    -2.417176000000    15.994914619570
         H           -0.631148000000    -1.581451000000    -3.028934000000     1.007825032230
         H           -0.778164000000    -0.740928000000    -1.674863000000     1.007825032230
         O           -0.057219000000     2.426383000000    -1.313720000000    15.994914619570
         H           -0.057407000000     1.609916000000    -0.812182000000     1.007825032230
         H           -0.845317000000     2.970306000000    -1.027585000000     1.007825032230
         O            2.516034000000     0.501269000000    -0.681349000000    15.994914619570
         H            2.742378000000    -0.372026000000    -0.952918000000     1.007825032230
         H            1.589097000000     0.394194000000    -0.467607000000     1.007825032230
         O           -1.246877000000     0.634837000000     2.442815000000    15.994914619570
         H           -0.668058000000    -0.102871000000     2.736022000000     1.007825032230
         H           -0.910013000000     0.825774000000     1.599682000000     1.007825032230
         O           -0.108124000000    -2.872909000000    -0.185625000000    15.994914619570
         H           -0.484207000000    -3.076891000000     0.701130000000     1.007825032230
         H           -0.163962000000    -1.865782000000    -0.238802000000     1.007825032230

  Charge       = -1
  Multiplicity = 1
  Basis Set: AUG-CC-PVTZ
    Blend: AUG-CC-PVTZ
  Basis Set: (AUG-CC-PVTZ AUX)
    Blend: AUG-CC-PVTZ-JKFIT

    Orbital Energies [Eh]
    ---------------------

    Doubly Occupied:

       1A    -26.000199     2A    -20.414204     3A    -20.413693
       4A    -20.407124     5A    -20.400071     6A    -20.385089
       7A     -1.268476     8A     -1.204512     9A     -1.186180
      10A     -1.182694    11A     -1.178180    12A     -1.174705
      13A     -0.570017    14A     -0.565389    15A     -0.559839
      16A     -0.541572    17A     -0.539238    18A     -0.447861
      19A     -0.434788    20A     -0.429664    21A     -0.419027
      22A     -0.415495    23A     -0.364454    24A     -0.362494
      25A     -0.360190    26A     -0.352904    27A     -0.346961
      28A     -0.342862    29A     -0.339597    30A     -0.333732

  @DF-RHF Final Energy:  -479.85224600946117

   => Energetics <=

    Nuclear Repulsion Energy =            262.6543571911199138
    One-Electron Energy =               -1199.1307731313422664
    Two-Electron Energy =                 456.6241699307611270
    Total Energy =                       -479.8522460094611688
 Dipole X            :          2.6091209           -2.6626109           -0.0534900
 Dipole Y            :          9.8766963          -10.5133307           -0.6366344
 Dipole Z            :         39.5263775          -38.5626905            0.9636870
 Magnitude           :                                                    1.1562254
  Basis Set: (AUG-CC-PVTZ AUX)
    Blend: AUG-CC-PVTZ-RI
	 Reference Energy          =    -479.8522460094611688 [Eh]
	 Singles Energy            =      -0.0000000000000000 [Eh]
	 Same-Spin Energy          =      -0.4325589569966448 [Eh]
	 Opposite-Spin Energy      =      -1.3160182741084798 [Eh]
	 Correlation Energy        =      -1.7485772311051246 [Eh]
	 Total Energy              =    -481.6008232405662852 [Eh]

	 ================> DF-SCS-MP2 Energies <==================
	-----------------------------------------------------------
	 SCS Same-Spin Scale       =       0.3333333333333333 [-]
	 SCS Opposite-Spin Scale   =       1.2000000000000000 [-]
	 SCS Same-Spin Energy      =      -0.1441863189988816 [Eh]
	 SCS Opposite-Spin Energy  =      -1.5792219289301757 [Eh]
	 SCS Correlation Energy    =      -1.7234082479290573 [Eh]
	 SCS Total Energy          =    -481.5756542573902266 [Eh]
	-----------------------------------------------------------

*** Psi4 exiting successfully. Buy a developer a beer!
