                               Psi4 1.8.2 release

  ==> Input File <==

--------------------------------------------------------------------------
MEMORY 60 GB

molecule dimer {
0 1
Gh(F)      0.000000     0.000000     0.000000
Gh(O)      1.372061    -1.347210    -1.932574
Gh(H)      1.774702    -2.112636    -1.501750
Gh(H)      0.855323    -0.909015    -1.230796
Gh(O)     -1.740094    -2.011283    -0.219246
Gh(H)     -1.508601    -2.530431    -0.974565
Gh(H)     -1.010642    -1.384241    -0.176034
Gh(O)     -1.563985     1.368744    -1.739992
Gh(H)     -1.407057     0.868260    -2.530266
Gh(H)     -1.046196     0.902619    -1.029123
O         -1.071139    -0.537241     2.612539
H         -0.620873    -0.301090     1.726356
H         -0.452618    -0.183595     3.292619

units ang
no_reorient
no_com
symmetry c1
}

set {
basis        aug-cc-pVTZ
scf_type     df
}

energy("mp2")
--------------------------------------------------------------------------

    Molecular point group: c1

    Geometry (in Angstrom), charge = 0, multiplicity = 1:

       Center              X                  Y                   Z               Mass
    ------------   -----------------  -----------------  -----------------  -----------------
      Gh(F)           0.000000000000     0.000000000000     0.000000000000    18.998403162730
      Gh(O)           1.372061000000    -1.347210000000    -1.932574000000    15.994914619570
      Gh(H)           1.774702000000    -2.112636000000    -1.501750000000     1.007825032230
      Gh(H)           0.855323000000    -0.909015000000    -1.230796000000     1.007825032230
      Gh(O)          -1.740094000000    -2.011283000000    -0.219246000000    15.994914619570
      Gh(H)          -1.508601000000    -2.530431000000    -0.974565000000     1.007825032230
      Gh(H)          -1.010642000000    -1.384241000000    -0.176034000000     1.007825032230
      Gh(O)          -1.563985000000     1.368744000000    -1.739992000000    15.994914619570
      Gh(H)          -1.407057000000     0.868260000000    -2.530266000000     1.007825032230
      Gh(H)          -1.046196000000     0.902619000000    -1.029123000000     1.007825032230
         O           -1.071139000000    -0.537241000000     2.612539000000    15.994914619570
         H           -0.620873000000    -0.301090000000     1.726356000000     1.007825032230
         H           -0.452618000000    -0.183595000000     3.292619000000     1.007825032230

  Charge       = 0
  Multiplicity = 1
  Basis Set: AUG-CC-PVTZ
    Blend: AUG-CC-PVTZ
  Basis Set: (AUG-CC-PVTZ AUX)
    Blend: AUG-CC-PVTZ-JKFIT

    Orbital Energies [Eh]
    ---------------------

    Doubly Occupied:

       1A    -20.575298     2A     -1.331791     3A     -0.692249
       4A     -0.577194     5A     -0.507025

  @DF-RHF Final Energy:   -76.05337085469090

   => Energetics <=

    Nuclear Repulsion Energy =              8.7766557334504451
    One-Electron Energy =                -122.2929373920604235
    Two-Electron Energy =                  37.4629108039190797
    Total Energy =                        -76.0533708546909111
 Dipole X            :         18.9128112          -18.2218788            0.6909324
 Dipole Y            :          9.4191862           -9.0378287            0.3813574
 Dipole Z            :        -49.1071983           48.9803538           -0.1268445
 Magnitude           :                                                    0.7993188
  Basis Set: (AUG-CC-PVTZ AUX)
    Blend: AUG-CC-PVTZ-RI
	 Reference Energy          =     -76.0533708546908969 [Eh]
	 Singles Energy            =      -0.0000000000000000 [Eh]
	 Same-Spin Energy          =      -0.0692093557859313 [Eh]
	 Opposite-Spin Energy      =      -0.2184451760428709 [Eh]
	 Correlation Energy        =      -0.2876545318288022 [Eh]
	 Total Energy              =     -76.3410253865197035 [Eh]

	 ================> DF-SCS-MP2 Energies <==================
	-----------------------------------------------------------
	 SCS Same-Spin Scale       =       0.3333333333333333 [-]
	 SCS Opposite-Spin Scale   =       1.2000000000000000 [-]
	 SCS Same-Spin Energy      =      -0.0230697852619771 [Eh]
	 SCS Opposite-Spin Energy  =      -0.2621342112514450 [Eh]
	 SCS Correlation Energy    =      -0.2852039965134222 [Eh]
	 SCS Total Energy          =     -76.3385748512043136 [Eh]
	-----------------------------------------------------------

*** Psi4 exiting successfully. Buy a developer a beer!
