                               Psi4 1.8.2 release

  ==> Input File <==

--------------------------------------------------------------------------
MEMORY 60 GB

molecule dimer {
-1 1
F          0.000000     0.000000     0.000000
Gh(O)     -2.413496     0.942059     1.683179
Gh(H)     -2.369850     1.675598     2.308522
Gh(H)     -1.516197     0.609131     1.412280
Gh(O)      1.644372    -2.458712     0.050667
Gh(H)      1.033770    -1.732996     0.175981
Gh(H)      1.480271    -2.944848     0.845458
Gh(O)      0.820687     0.822159     2.619673
Gh(H)      0.614436     0.700992     1.654114
Gh(H)      0.656262     1.757957     2.775129
Gh(O)     -2.196713    -1.512783    -0.142220
Gh(H)     -2.784492    -0.795457    -0.455902
Gh(H)     -1.397291    -0.991488    -0.086194
Gh(O)     -0.307997     2.194705    -1.635644
Gh(H)     -0.307018     1.433362    -1.078243
Gh(H)     -1.239503     2.400415    -1.651584

units ang
no_reorient
no_com
symmetry c1
}

set {
basis        aug-cc-pVTZ
scf_type     df
}

energy("mp2")
--------------------------------------------------------------------------

    Molecular point group: c1

    Geometry (in Angstrom), charge = -1, multiplicity = 1:

       Center              X                  Y                   Z               Mass
    ------------   -----------------  -----------------  -----------------  -----------------
         F            0.000000000000     0.000000000000     0.000000000000    18.998403162730
      Gh(O)          -2.413496000000     0.942059000000     1.683179000000    15.994914619570
      Gh(H)          -2.369850000000     1.675598000000     2.308522000000     1.007825032230
      Gh(H)          -1.516197000000     0.609131000000     1.412280000000     1.007825032230
      Gh(O)           1.644372000000    -2.458712000000     0.050667000000    15.994914619570
      Gh(H)           1.033770000000    -1.732996000000     0.175981000000     1.007825032230
      Gh(H)           1.480271000000    -2.944848000000     0.845458000000     1.007825032230
      Gh(O)           0.820687000000     0.822159000000     2.619673000000    15.994914619570
      Gh(H)           0.614436000000     0.700992000000     1.654114000000     1.007825032230
      Gh(H)           0.656262000000     1.757957000000     2.775129000000     1.007825032230
      Gh(O)          -2.196713000000    -1.512783000000    -0.142220000000    15.994914619570
      Gh(H)          -2.784492000000    -0.795457000000    -0.455902000000     1.007825032230
      Gh(H)          -1.397291000000    -0.991488000000    -0.086194000000     1.007825032230
      Gh(O)          -0.307997000000     2.194705000000    -1.635644000000    15.994914619570
      Gh(H)          -0.307018000000     1.433362000000    -1.078243000000     1.007825032230
      Gh(H)          -1.239503000000     2.400415000000    -1.651584000000     1.007825032230

  Charge       = -1
  Multiplicity = 1
  Basis Set: AUG-CC-PVTZ
    Blend: AUG-CC-PVTZ
  Basis Set: (AUG-CC-PVTZ AUX)
    Blend: AUG-CC-PVTZ-JKFIT

    Orbital Energies [Eh]
    ---------------------

    Doubly Occupied:

       1A    -25.833570     2A     -1.075896     3A     -0.180924
       4A     -0.180909     5A     -0.180902

  @DF-RHF Final Energy:   -99.45110629163798

   => Energetics <=

    Nuclear Repulsion Energy =              0.0000000000000000
    One-Electron Energy =                -143.9978019496675472
    Two-Electron Energy =                  44.5466956580295630
    Total Energy =                        -99.4511062916379842
 Dipole X            :         -0.0001830            0.0000000           -0.0001830
 Dipole Y            :          0.0000394            0.0000000            0.0000394
 Dipole Z            :          0.0000705            0.0000000            0.0000705
 Magnitude           :                                                    0.0002000
  Basis Set: (AUG-CC-PVTZ AUX)
    Blend: AUG-CC-PVTZ-RI
	 Reference Energy          =     -99.4511062916379842 [Eh]
	 Singles Energy            =      -0.0000000000000000 [Eh]
	 Same-Spin Energy          =      -0.0820366636063323 [Eh]
	 Opposite-Spin Energy      =      -0.2299784036418310 [Eh]
	 Correlation Energy        =      -0.3120150672481633 [Eh]
	 Total Energy              =     -99.7631213588861527 [Eh]

	 ================> DF-SCS-MP2 Energies <==================
	-----------------------------------------------------------
	 SCS Same-Spin Scale       =       0.3333333333333333 [-]
	 SCS Opposite-Spin Scale   =       1.2000000000000000 [-]
	 SCS Same-Spin Energy      =      -0.0273455545354441 [Eh]
	 SCS Opposite-Spin Energy  =      -0.2759740843701972 [Eh]
	 SCS Correlation Energy    =      -0.3033196389056413 [Eh]
	 SCS Total Energy          =     -99.7544259305436185 [Eh]
	-----------------------------------------------------------

*** Psi4 exiting successfully. Buy a developer a beer!
