                               Psi4 1.8.2 release

  ==> Input File <==

--------------------------------------------------------------------------
MEMORY 60 GB

molecule dimer {
0 1
Gh(F)      0.000000     0.000000     0.000000
Gh(O)     -0.438919    -0.065851    -2.824863
Gh(H)     -0.453151    -0.010706    -1.844303
Gh(H)      0.269337     0.572966    -3.103457
Gh(O)      1.699712     2.467898    -0.707959
Gh(H)      1.972730     2.097516    -1.527574
Gh(H)      0.803553     2.124371    -0.498661
Gh(O)     -1.598723     2.231195     0.689214
Gh(H)     -1.137580     1.418592     0.486558
Gh(H)     -1.200463     2.623434     1.455794
O          0.369426    -1.062940     2.386597
H          0.423642    -0.786785     1.439357
H          1.049594    -0.462803     2.764259
Gh(O)     -2.326821    -1.205989    -0.091246
Gh(H)     -1.446384    -0.840894    -0.034548
Gh(H)     -2.150655    -2.055095    -0.428599
Gh(O)      2.110671    -1.418731    -1.257848
Gh(H)      1.265691    -1.026664    -0.962676
Gh(H)      2.460850    -0.901074    -2.008568

units ang
no_reorient
no_com
symmetry c1
}

set {
basis        aug-cc-pVTZ
scf_type     df
}

energy("mp2")
--------------------------------------------------------------------------

    Molecular point group: c1

    Geometry (in Angstrom), charge = 0, multiplicity = 1:

       Center              X                  Y                   Z               Mass
    ------------   -----------------  -----------------  -----------------  -----------------
      Gh(F)           0.000000000000     0.000000000000     0.000000000000    18.998403162730
      Gh(O)          -0.438919000000    -0.065851000000    -2.824863000000    15.994914619570
      Gh(H)          -0.453151000000    -0.010706000000    -1.844303000000     1.007825032230
      Gh(H)           0.269337000000     0.572966000000    -3.103457000000     1.007825032230
      Gh(O)           1.699712000000     2.467898000000    -0.707959000000    15.994914619570
      Gh(H)           1.972730000000     2.097516000000    -1.527574000000     1.007825032230
      Gh(H)           0.803553000000     2.124371000000    -0.498661000000     1.007825032230
      Gh(O)          -1.598723000000     2.231195000000     0.689214000000    15.994914619570
      Gh(H)          -1.137580000000     1.418592000000     0.486558000000     1.007825032230
      Gh(H)          -1.200463000000     2.623434000000     1.455794000000     1.007825032230
         O            0.369426000000    -1.062940000000     2.386597000000    15.994914619570
         H            0.423642000000    -0.786785000000     1.439357000000     1.007825032230
         H            1.049594000000    -0.462803000000     2.764259000000     1.007825032230
      Gh(O)          -2.326821000000    -1.205989000000    -0.091246000000    15.994914619570
      Gh(H)          -1.446384000000    -0.840894000000    -0.034548000000     1.007825032230
      Gh(H)          -2.150655000000    -2.055095000000    -0.428599000000     1.007825032230
      Gh(O)           2.110671000000    -1.418731000000    -1.257848000000    15.994914619570
      Gh(H)           1.265691000000    -1.026664000000    -0.962676000000     1.007825032230
      Gh(H)           2.460850000000    -0.901074000000    -2.008568000000     1.007825032230

  Charge       = 0
  Multiplicity = 1
  Basis Set: AUG-CC-PVTZ
    Blend: AUG-CC-PVTZ
  Basis Set: (AUG-CC-PVTZ AUX)
    Blend: AUG-CC-PVTZ-JKFIT

    Orbital Energies [Eh]
    ---------------------

    Doubly Occupied:

       1A    -20.574281     2A     -1.343152     3A     -0.692481
       4A     -0.589772     5A     -0.509690

  @DF-RHF Final Energy:   -76.05658123806930

   => Energetics <=

    Nuclear Repulsion Energy =              8.9453138624888329
    One-Electron Energy =                -122.5850351901145388
    Two-Electron Energy =                  37.5831400895564158
    Total Energy =                        -76.0565812380692989
 Dipole X            :         -7.8953605            8.3689243            0.4735638
 Dipole Y            :         18.9952570          -18.4307030            0.5645540
 Dipole Z            :        -44.3902133           44.0238006           -0.3664127
 Magnitude           :                                                    0.8229472
  Basis Set: (AUG-CC-PVTZ AUX)
    Blend: AUG-CC-PVTZ-RI
	 Reference Energy          =     -76.0565812380692989 [Eh]
	 Singles Energy            =      -0.0000000000000000 [Eh]
	 Same-Spin Energy          =      -0.0690603209025637 [Eh]
	 Opposite-Spin Energy      =      -0.2180647521391591 [Eh]
	 Correlation Energy        =      -0.2871250730417229 [Eh]
	 Total Energy              =     -76.3437063111110206 [Eh]

	 ================> DF-SCS-MP2 Energies <==================
	-----------------------------------------------------------
	 SCS Same-Spin Scale       =       0.3333333333333333 [-]
	 SCS Opposite-Spin Scale   =       1.2000000000000000 [-]
	 SCS Same-Spin Energy      =      -0.0230201069675212 [Eh]
	 SCS Opposite-Spin Energy  =      -0.2616777025669909 [Eh]
	 SCS Correlation Energy    =      -0.2846978095345122 [Eh]
	 SCS Total Energy          =     -76.3412790476038055 [Eh]
	-----------------------------------------------------------

*** Psi4 exiting successfully. Buy a developer a beer!
