                               Psi4 1.8.2 release

  ==> Input File <==

--------------------------------------------------------------------------
MEMORY 60 GB

molecule dimer {
-1 1
F          0.000000     0.000000     0.000000
O          1.372061    -1.347210    -1.932574
H          1.774702    -2.112636    -1.501750
H          0.855323    -0.909015    -1.230796
O         -1.740094    -2.011283    -0.219246
H         -1.508601    -2.530431    -0.974565
H         -1.010642    -1.384241    -0.176034
O         -1.563985     1.368744    -1.739992
H         -1.407057     0.868260    -2.530266
H         -1.046196     0.902619    -1.029123
O         -1.071139    -0.537241     2.612539
H         -0.620873    -0.301090     1.726356
H         -0.452618    -0.183595     3.292619

units ang
no_reorient
no_com
symmetry c1
}

set {
basis        aug-cc-pVTZ
scf_type     df
}

energy("mp2")
--------------------------------------------------------------------------

    Molecular point group: c1

    Geometry (in Angstrom), charge = -1, multiplicity = 1:

       Center              X                  Y                   Z               Mass
    ------------   -----------------  -----------------  -----------------  -----------------
         F            0.000000000000     0.000000000000     0.000000000000    18.998403162730
         O            1.372061000000    -1.347210000000    -1.932574000000    15.994914619570
         H            1.774702000000    -2.112636000000    -1.501750000000     1.007825032230
         H            0.855323000000    -0.909015000000    -1.230796000000     1.007825032230
         O           -1.740094000000    -2.011283000000    -0.219246000000    15.994914619570
         H           -1.508601000000    -2.530431000000    -0.974565000000     1.007825032230
         H           -1.010642000000    -1.384241000000    -0.176034000000     1.007825032230
         O           -1.563985000000     1.368744000000    -1.739992000000    15.994914619570
         H           -1.407057000000     0.868260000000    -2.530266000000     1.007825032230
         H           -1.046196000000     0.902619000000    -1.029123000000     1.007825032230
         O           -1.071139000000    -0.537241000000     2.612539000000    15.994914619570
         H           -0.620873000000    -0.301090000000     1.726356000000     1.007825032230
         H           -0.452618000000    -0.183595000000     3.292619000000     1.007825032230

  Charge       = -1
  Multiplicity = 1
  Basis Set: AUG-CC-PVTZ
    Blend: AUG-CC-PVTZ
  Basis Set: (AUG-CC-PVTZ AUX)
    Blend: AUG-CC-PVTZ-JKFIT

    Orbital Energies [Eh]
    ---------------------

    Doubly Occupied:

       1A    -25.987245     2A    -20.404478     3A    -20.400096
       4A    -20.381596     5A    -20.377747     6A     -1.256497
       7A     -1.185901     8A     -1.175984     9A     -1.161146
      10A     -1.159854    11A     -0.556573    12A     -0.544081
      13A     -0.532090    14A     -0.520793    15A     -0.434125
      16A     -0.420141    17A     -0.416791    18A     -0.406461
      19A     -0.351891    20A     -0.343671    21A     -0.341398
      22A     -0.338530    23A     -0.333031    24A     -0.328386
      25A     -0.321296

  @DF-RHF Final Energy:  -403.78791254300234

   => Energetics <=

    Nuclear Repulsion Energy =            190.0805305552561606
    One-Electron Energy =                -948.3772790352834363
    Two-Electron Energy =                 354.5088359370249691
    Total Energy =                       -403.7879125430023350
 Dipole X            :         53.9065876          -51.8563866            2.0502010
 Dipole Y            :         48.8777658          -48.8797486           -0.0019828
 Dipole Z            :         24.2803289          -23.9196676            0.3606613
 Magnitude           :                                                    2.0816831
  Basis Set: (AUG-CC-PVTZ AUX)
    Blend: AUG-CC-PVTZ-RI
	 Reference Energy          =    -403.7879125430023350 [Eh]
	 Singles Energy            =      -0.0000000000000000 [Eh]
	 Same-Spin Energy          =      -0.3639073034200347 [Eh]
	 Opposite-Spin Energy      =      -1.0997079694812113 [Eh]
	 Correlation Energy        =      -1.4636152729012459 [Eh]
	 Total Energy              =    -405.2515278159035574 [Eh]

	 ================> DF-SCS-MP2 Energies <==================
	-----------------------------------------------------------
	 SCS Same-Spin Scale       =       0.3333333333333333 [-]
	 SCS Opposite-Spin Scale   =       1.2000000000000000 [-]
	 SCS Same-Spin Energy      =      -0.1213024344733449 [Eh]
	 SCS Opposite-Spin Energy  =      -1.3196495633774534 [Eh]
	 SCS Correlation Energy    =      -1.4409519978507983 [Eh]
	 SCS Total Energy          =    -405.2288645408531238 [Eh]
	-----------------------------------------------------------

*** Psi4 exiting successfully. Buy a developer a beer!
