                               Psi4 1.8.2 release

  ==> Input File <==

--------------------------------------------------------------------------
MEMORY 60 GB

molecule dimer {
0 1
Gh(F)      0.000000     0.000000     0.000000
Gh(O)      2.385569     0.742591     1.674951
Gh(H)      1.619624     0.724586     1.100121
Gh(H)      2.424688    -0.125409     2.056396
Gh(O)     -0.239041    -2.096331    -1.876795
Gh(H)      0.025958    -2.893733    -1.489325
Gh(H)     -0.471491    -1.429774    -1.203876
Gh(O)      0.205984    -2.249977     1.611546
Gh(H)     -0.314760    -2.967836     1.148222
Gh(H)      0.191515    -1.386093     1.171929
O         -1.908189     0.748542     1.890951
H         -1.585089     1.599532     2.357873
H         -1.246971     0.562129     1.226859
Gh(O)     -0.543220     2.567600    -0.603874
Gh(H)     -0.100372     1.702524    -0.500902
Gh(H)     -1.436617     2.597652    -0.284137
Gh(O)      2.601881     0.224157    -1.352015
Gh(H)      1.685409     0.167066    -1.062671
Gh(H)      2.612419     0.812342    -2.122170

units ang
no_reorient
no_com
symmetry c1
}

set {
basis        aug-cc-pVTZ
scf_type     df
}

energy("mp2")
--------------------------------------------------------------------------

    Molecular point group: c1

    Geometry (in Angstrom), charge = 0, multiplicity = 1:

       Center              X                  Y                   Z               Mass
    ------------   -----------------  -----------------  -----------------  -----------------
      Gh(F)           0.000000000000     0.000000000000     0.000000000000    18.998403162730
      Gh(O)           2.385569000000     0.742591000000     1.674951000000    15.994914619570
      Gh(H)           1.619624000000     0.724586000000     1.100121000000     1.007825032230
      Gh(H)           2.424688000000    -0.125409000000     2.056396000000     1.007825032230
      Gh(O)          -0.239041000000    -2.096331000000    -1.876795000000    15.994914619570
      Gh(H)           0.025958000000    -2.893733000000    -1.489325000000     1.007825032230
      Gh(H)          -0.471491000000    -1.429774000000    -1.203876000000     1.007825032230
      Gh(O)           0.205984000000    -2.249977000000     1.611546000000    15.994914619570
      Gh(H)          -0.314760000000    -2.967836000000     1.148222000000     1.007825032230
      Gh(H)           0.191515000000    -1.386093000000     1.171929000000     1.007825032230
         O           -1.908189000000     0.748542000000     1.890951000000    15.994914619570
         H           -1.585089000000     1.599532000000     2.357873000000     1.007825032230
         H           -1.246971000000     0.562129000000     1.226859000000     1.007825032230
      Gh(O)          -0.543220000000     2.567600000000    -0.603874000000    15.994914619570
      Gh(H)          -0.100372000000     1.702524000000    -0.500902000000     1.007825032230
      Gh(H)          -1.436617000000     2.597652000000    -0.284137000000     1.007825032230
      Gh(O)           2.601881000000     0.224157000000    -1.352015000000    15.994914619570
      Gh(H)           1.685409000000     0.167066000000    -1.062671000000     1.007825032230
      Gh(H)           2.612419000000     0.812342000000    -2.122170000000     1.007825032230

  Charge       = 0
  Multiplicity = 1
  Basis Set: AUG-CC-PVTZ
    Blend: AUG-CC-PVTZ
  Basis Set: (AUG-CC-PVTZ AUX)
    Blend: AUG-CC-PVTZ-JKFIT

    Orbital Energies [Eh]
    ---------------------

    Doubly Occupied:

       1A    -20.572088     2A     -1.338185     3A     -0.702101
       4A     -0.577106     5A     -0.507688

  @DF-RHF Final Energy:   -76.05489972077461

   => Energetics <=

    Nuclear Repulsion Energy =              8.9054223317831571
    One-Electron Energy =                -122.5263036532095242
    Two-Electron Energy =                  37.5659816006517460
    Total Energy =                        -76.0548997207746140
 Dipole X            :         34.8452281          -34.1994546            0.6457735
 Dipole Y            :        -14.9745943           15.4012623            0.4266680
 Dipole Z            :        -35.4987040           35.3611978           -0.1375062
 Magnitude           :                                                    0.7861151
  Basis Set: (AUG-CC-PVTZ AUX)
    Blend: AUG-CC-PVTZ-RI
	 Reference Energy          =     -76.0548997207746140 [Eh]
	 Singles Energy            =      -0.0000000000000000 [Eh]
	 Same-Spin Energy          =      -0.0689521108029974 [Eh]
	 Opposite-Spin Energy      =      -0.2181107130603230 [Eh]
	 Correlation Energy        =      -0.2870628238633203 [Eh]
	 Total Energy              =     -76.3419625446379371 [Eh]

	 ================> DF-SCS-MP2 Energies <==================
	-----------------------------------------------------------
	 SCS Same-Spin Scale       =       0.3333333333333333 [-]
	 SCS Opposite-Spin Scale   =       1.2000000000000000 [-]
	 SCS Same-Spin Energy      =      -0.0229840369343325 [Eh]
	 SCS Opposite-Spin Energy  =      -0.2617328556723876 [Eh]
	 SCS Correlation Energy    =      -0.2847168926067200 [Eh]
	 SCS Total Energy          =     -76.3396166133813381 [Eh]
	-----------------------------------------------------------

*** Psi4 exiting successfully. Buy a developer a beer!
