                               Psi4 1.8.2 release

  ==> Input File <==

--------------------------------------------------------------------------
MEMORY 60 GB

molecule dimer {
-1 1
F          0.000000     0.000000     0.000000
O          2.300634    -1.333306    -0.902108
H          1.393934    -1.048189    -0.537281
H          2.196325    -1.676113    -1.778413
O         -0.721455     0.039200     2.664180
H         -0.478323    -0.147144     1.721719
H         -0.301277    -0.711256     3.142866
O         -1.968178     1.181669    -1.178721
H         -2.732253     0.755644    -0.806522
H         -1.213738     0.822443    -0.721049
O         -2.147115    -1.870979    -0.798426
H         -1.363119    -1.488592    -0.414049
H         -2.860249    -1.280709    -0.613524
O          0.601987     2.534872     1.009589
H          0.625186     1.602289     0.786548
H          1.072015     2.565401     1.876249

units ang
no_reorient
no_com
symmetry c1
}

set {
basis        aug-cc-pVTZ
scf_type     df
}

energy("mp2")
--------------------------------------------------------------------------

    Molecular point group: c1

    Geometry (in Angstrom), charge = -1, multiplicity = 1:

       Center              X                  Y                   Z               Mass
    ------------   -----------------  -----------------  -----------------  -----------------
         F            0.000000000000     0.000000000000     0.000000000000    18.998403162730
         O            2.300634000000    -1.333306000000    -0.902108000000    15.994914619570
         H            1.393934000000    -1.048189000000    -0.537281000000     1.007825032230
         H            2.196325000000    -1.676113000000    -1.778413000000     1.007825032230
         O           -0.721455000000     0.039200000000     2.664180000000    15.994914619570
         H           -0.478323000000    -0.147144000000     1.721719000000     1.007825032230
         H           -0.301277000000    -0.711256000000     3.142866000000     1.007825032230
         O           -1.968178000000     1.181669000000    -1.178721000000    15.994914619570
         H           -2.732253000000     0.755644000000    -0.806522000000     1.007825032230
         H           -1.213738000000     0.822443000000    -0.721049000000     1.007825032230
         O           -2.147115000000    -1.870979000000    -0.798426000000    15.994914619570
         H           -1.363119000000    -1.488592000000    -0.414049000000     1.007825032230
         H           -2.860249000000    -1.280709000000    -0.613524000000     1.007825032230
         O            0.601987000000     2.534872000000     1.009589000000    15.994914619570
         H            0.625186000000     1.602289000000     0.786548000000     1.007825032230
         H            1.072015000000     2.565401000000     1.876249000000     1.007825032230

  Charge       = -1
  Multiplicity = 1
  Basis Set: AUG-CC-PVTZ
    Blend: AUG-CC-PVTZ
  Basis Set: (AUG-CC-PVTZ AUX)
    Blend: AUG-CC-PVTZ-JKFIT

    Orbital Energies [Eh]
    ---------------------

    Doubly Occupied:

       1A    -26.003641     2A    -20.416902     3A    -20.414394
       4A    -20.405080     5A    -20.396368     6A    -20.378566
       7A     -1.274723     8A     -1.211910     9A     -1.185661
      10A     -1.179819    11A     -1.175378    12A     -1.173956
      13A     -0.585929    14A     -0.561566    15A     -0.552441
      16A     -0.547585    17A     -0.537095    18A     -0.450967
      19A     -0.437962    20A     -0.424763    21A     -0.420089
      22A     -0.410941    23A     -0.370341    24A     -0.363195
      25A     -0.360964    26A     -0.353198    27A     -0.349426
      28A     -0.345241    29A     -0.336412    30A     -0.326934

  @DF-RHF Final Energy:  -479.85470095853003

   => Energetics <=

    Nuclear Repulsion Energy =            265.3635331213361042
    One-Electron Energy =               -1204.5335647520055318
    Two-Electron Energy =                 459.3153306721393960
    Total Energy =                       -479.8547009585300316
 Dipole X            :         36.5378244          -36.1589929            0.3788315
 Dipole Y            :         -8.3062825            7.1912054           -1.1150772
 Dipole Z            :        -16.4911712           17.0314515            0.5402803
 Magnitude           :                                                    1.2956903
  Basis Set: (AUG-CC-PVTZ AUX)
    Blend: AUG-CC-PVTZ-RI
	 Reference Energy          =    -479.8547009585300316 [Eh]
	 Singles Energy            =      -0.0000000000000000 [Eh]
	 Same-Spin Energy          =      -0.4332402097070666 [Eh]
	 Opposite-Spin Energy      =      -1.3159994799521308 [Eh]
	 Correlation Energy        =      -1.7492396896591975 [Eh]
	 Total Energy              =    -481.6039406481892229 [Eh]

	 ================> DF-SCS-MP2 Energies <==================
	-----------------------------------------------------------
	 SCS Same-Spin Scale       =       0.3333333333333333 [-]
	 SCS Opposite-Spin Scale   =       1.2000000000000000 [-]
	 SCS Same-Spin Energy      =      -0.1444134032356889 [Eh]
	 SCS Opposite-Spin Energy  =      -1.5791993759425569 [Eh]
	 SCS Correlation Energy    =      -1.7236127791782456 [Eh]
	 SCS Total Energy          =    -481.5783137377082994 [Eh]
	-----------------------------------------------------------

*** Psi4 exiting successfully. Buy a developer a beer!
