                               Psi4 1.8.2 release

  ==> Input File <==

--------------------------------------------------------------------------
MEMORY 60 GB

molecule dimer {
0 1
Gh(F)      0.000000     0.000000     0.000000
O         -1.254088    -1.142537    -2.417176
H         -0.631148    -1.581451    -3.028934
H         -0.778164    -0.740928    -1.674863
Gh(O)     -0.057219     2.426383    -1.313720
Gh(H)     -0.057407     1.609916    -0.812182
Gh(H)     -0.845317     2.970306    -1.027585
Gh(O)      2.516034     0.501269    -0.681349
Gh(H)      2.742378    -0.372026    -0.952918
Gh(H)      1.589097     0.394194    -0.467607
Gh(O)     -1.246877     0.634837     2.442815
Gh(H)     -0.668058    -0.102871     2.736022
Gh(H)     -0.910013     0.825774     1.599682
Gh(O)     -0.108124    -2.872909    -0.185625
Gh(H)     -0.484207    -3.076891     0.701130
Gh(H)     -0.163962    -1.865782    -0.238802

units ang
no_reorient
no_com
symmetry c1
}

set {
basis        aug-cc-pVTZ
scf_type     df
}

energy("mp2")
--------------------------------------------------------------------------

    Molecular point group: c1

    Geometry (in Angstrom), charge = 0, multiplicity = 1:

       Center              X                  Y                   Z               Mass
    ------------   -----------------  -----------------  -----------------  -----------------
      Gh(F)           0.000000000000     0.000000000000     0.000000000000    18.998403162730
         O           -1.254088000000    -1.142537000000    -2.417176000000    15.994914619570
         H           -0.631148000000    -1.581451000000    -3.028934000000     1.007825032230
         H           -0.778164000000    -0.740928000000    -1.674863000000     1.007825032230
      Gh(O)          -0.057219000000     2.426383000000    -1.313720000000    15.994914619570
      Gh(H)          -0.057407000000     1.609916000000    -0.812182000000     1.007825032230
      Gh(H)          -0.845317000000     2.970306000000    -1.027585000000     1.007825032230
      Gh(O)           2.516034000000     0.501269000000    -0.681349000000    15.994914619570
      Gh(H)           2.742378000000    -0.372026000000    -0.952918000000     1.007825032230
      Gh(H)           1.589097000000     0.394194000000    -0.467607000000     1.007825032230
      Gh(O)          -1.246877000000     0.634837000000     2.442815000000    15.994914619570
      Gh(H)          -0.668058000000    -0.102871000000     2.736022000000     1.007825032230
      Gh(H)          -0.910013000000     0.825774000000     1.599682000000     1.007825032230
      Gh(O)          -0.108124000000    -2.872909000000    -0.185625000000    15.994914619570
      Gh(H)          -0.484207000000    -3.076891000000     0.701130000000     1.007825032230
      Gh(H)          -0.163962000000    -1.865782000000    -0.238802000000     1.007825032230

  Charge       = 0
  Multiplicity = 1
  Basis Set: AUG-CC-PVTZ
    Blend: AUG-CC-PVTZ
  Basis Set: (AUG-CC-PVTZ AUX)
    Blend: AUG-CC-PVTZ-JKFIT

    Orbital Energies [Eh]
    ---------------------

    Doubly Occupied:

       1A    -20.566961     2A     -1.341323     3A     -0.720211
       4A     -0.570012     5A     -0.507133

  @DF-RHF Final Energy:   -76.05842430797469

   => Energetics <=

    Nuclear Repulsion Energy =              9.0319365283451400
    One-Electron Energy =                -122.7694383156432991
    Two-Electron Energy =                  37.6790774793234675
    Total Energy =                        -76.0584243079746898
 Dipole X            :         22.3598138          -21.6222766            0.7375373
 Dipole Y            :         21.6371792          -21.6613164           -0.0241372
 Dipole Z            :         45.5202038          -45.4312932            0.0889106
 Magnitude           :                                                    0.7432691
  Basis Set: (AUG-CC-PVTZ AUX)
    Blend: AUG-CC-PVTZ-RI
	 Reference Energy          =     -76.0584243079746898 [Eh]
	 Singles Energy            =      -0.0000000000000000 [Eh]
	 Same-Spin Energy          =      -0.0686105994822478 [Eh]
	 Opposite-Spin Energy      =      -0.2167060374120248 [Eh]
	 Correlation Energy        =      -0.2853166368942727 [Eh]
	 Total Energy              =     -76.3437409448689692 [Eh]

	 ================> DF-SCS-MP2 Energies <==================
	-----------------------------------------------------------
	 SCS Same-Spin Scale       =       0.3333333333333333 [-]
	 SCS Opposite-Spin Scale   =       1.2000000000000000 [-]
	 SCS Same-Spin Energy      =      -0.0228701998274159 [Eh]
	 SCS Opposite-Spin Energy  =      -0.2600472448944298 [Eh]
	 SCS Correlation Energy    =      -0.2829174447218457 [Eh]
	 SCS Total Energy          =     -76.3413417526965361 [Eh]
	-----------------------------------------------------------

*** Psi4 exiting successfully. Buy a developer a beer!
