                               Psi4 1.8.2 release

  ==> Input File <==

--------------------------------------------------------------------------
MEMORY 60 GB

molecule dimer {
-1 1
F          0.000000     0.000000     0.000000
Gh(O)     -1.634092    -2.280820    -0.139745
Gh(H)     -2.469094    -2.598153    -0.454292
Gh(H)     -1.459954    -1.358967    -0.387524
Gh(O)      2.308208    -1.014352     1.406738
Gh(H)      2.138362    -1.947872     1.369305
Gh(H)      1.553052    -0.587244     0.905967
Gh(O)     -0.221383     0.329741     2.737359
Gh(H)     -0.415990     0.182845     1.824673
Gh(H)      0.050573     1.283931     2.640379
Gh(O)      1.357013    -0.222007    -2.440875
Gh(H)      1.051868    -0.181679    -1.581215
Gh(H)      0.660440    -0.731668    -2.801612
Gh(O)     -1.883257     1.778764    -0.837831
Gh(H)     -1.474462     2.655647    -0.726004
Gh(H)     -1.106142     1.188873    -0.668005

units ang
no_reorient
no_com
symmetry c1
}

set {
basis        aug-cc-pVTZ
scf_type     df
}

energy("mp2")
--------------------------------------------------------------------------

    Molecular point group: c1

    Geometry (in Angstrom), charge = -1, multiplicity = 1:

       Center              X                  Y                   Z               Mass
    ------------   -----------------  -----------------  -----------------  -----------------
         F            0.000000000000     0.000000000000     0.000000000000    18.998403162730
      Gh(O)          -1.634092000000    -2.280820000000    -0.139745000000    15.994914619570
      Gh(H)          -2.469094000000    -2.598153000000    -0.454292000000     1.007825032230
      Gh(H)          -1.459954000000    -1.358967000000    -0.387524000000     1.007825032230
      Gh(O)           2.308208000000    -1.014352000000     1.406738000000    15.994914619570
      Gh(H)           2.138362000000    -1.947872000000     1.369305000000     1.007825032230
      Gh(H)           1.553052000000    -0.587244000000     0.905967000000     1.007825032230
      Gh(O)          -0.221383000000     0.329741000000     2.737359000000    15.994914619570
      Gh(H)          -0.415990000000     0.182845000000     1.824673000000     1.007825032230
      Gh(H)           0.050573000000     1.283931000000     2.640379000000     1.007825032230
      Gh(O)           1.357013000000    -0.222007000000    -2.440875000000    15.994914619570
      Gh(H)           1.051868000000    -0.181679000000    -1.581215000000     1.007825032230
      Gh(H)           0.660440000000    -0.731668000000    -2.801612000000     1.007825032230
      Gh(O)          -1.883257000000     1.778764000000    -0.837831000000    15.994914619570
      Gh(H)          -1.474462000000     2.655647000000    -0.726004000000     1.007825032230
      Gh(H)          -1.106142000000     1.188873000000    -0.668005000000     1.007825032230

  Charge       = -1
  Multiplicity = 1
  Basis Set: AUG-CC-PVTZ
    Blend: AUG-CC-PVTZ
  Basis Set: (AUG-CC-PVTZ AUX)
    Blend: AUG-CC-PVTZ-JKFIT

    Orbital Energies [Eh]
    ---------------------

    Doubly Occupied:

       1A    -25.833569     2A     -1.075892     3A     -0.180932
       4A     -0.180914     5A     -0.180879

  @DF-RHF Final Energy:   -99.45110637333360

   => Energetics <=

    Nuclear Repulsion Energy =              0.0000000000000000
    One-Electron Energy =                -143.9978344913676835
    Two-Electron Energy =                  44.5467281180340891
    Total Energy =                        -99.4511063733336016
 Dipole X            :         -0.0000147            0.0000000           -0.0000147
 Dipole Y            :         -0.0000747            0.0000000           -0.0000747
 Dipole Z            :         -0.0000992            0.0000000           -0.0000992
 Magnitude           :                                                    0.0001251
  Basis Set: (AUG-CC-PVTZ AUX)
    Blend: AUG-CC-PVTZ-RI
	 Reference Energy          =     -99.4511063733336016 [Eh]
	 Singles Energy            =      -0.0000000000000000 [Eh]
	 Same-Spin Energy          =      -0.0820396153320145 [Eh]
	 Opposite-Spin Energy      =      -0.2299539014855686 [Eh]
	 Correlation Energy        =      -0.3119935168175831 [Eh]
	 Total Energy              =     -99.7630998901511816 [Eh]

	 ================> DF-SCS-MP2 Energies <==================
	-----------------------------------------------------------
	 SCS Same-Spin Scale       =       0.3333333333333333 [-]
	 SCS Opposite-Spin Scale   =       1.2000000000000000 [-]
	 SCS Same-Spin Energy      =      -0.0273465384440048 [Eh]
	 SCS Opposite-Spin Energy  =      -0.2759446817826823 [Eh]
	 SCS Correlation Energy    =      -0.3032912202266872 [Eh]
	 SCS Total Energy          =     -99.7543975935602845 [Eh]
	-----------------------------------------------------------

*** Psi4 exiting successfully. Buy a developer a beer!
