                               Psi4 1.9 release

  ==> Input File <==

--------------------------------------------------------------------------
MEMORY 60 GB

molecule dimer {
-1 1
F      0.000000     0.000000     0.000000
--
0 1
O      1.512197     2.406580     0.840529
H      1.189138     1.586338     0.433157
H      2.329104     2.157667     1.308984
O      2.683513    -0.541509    -1.145838
H      1.792279    -0.332970    -1.099115
H      2.865836    -1.009315    -1.953440
O      0.329378     0.134783     2.607000
H      0.981309    -0.433808     3.083691
H      0.427067     0.007313     1.637742
O     -1.529615     2.372468    -0.487485
H     -2.400986     2.019607    -0.798232
H     -0.921564     1.683072    -0.056461
O     -1.725904    -1.071838    -2.007168
H     -0.961340    -0.890348    -1.431397
H     -2.335466    -0.373033    -1.946563
O     -1.183214    -2.045956     1.508332
H     -0.765362    -1.328612     0.983167
H     -0.774333    -1.986699     2.409746

units ang
no_reorient
no_com
symmetry c1
}

set {
basis        aug-cc-pVTZ
scf_type     df
}

energy("mp2", bsse_type="cp")
--------------------------------------------------------------------------

                               Psi4 1.9 release
    Molecular point group: c1
  Charge       = 0
  Multiplicity = 1
  Basis Set: AUG-CC-PVTZ
    Blend: AUG-CC-PVTZ
  Basis Set: (AUG-CC-PVTZ AUX)
    Blend: AUG-CC-PVTZ-JKFIT
  @DF-RHF Final Energy:  -456.31260918018717
    Total Energy =                       -456.3126091801871667
 Dipole X            :         -3.1810567            3.9996469            0.8185902
 Dipole Y            :        -21.8255334           21.0429243           -0.7826091
 Dipole Z            :        -24.6480571           24.7445255            0.0964684
 Magnitude           :                                                    1.1366060
  Basis Set: (AUG-CC-PVTZ AUX)
    Blend: AUG-CC-PVTZ-RI
	 Reference Energy          =    -456.3126091801871667 [Eh]
	 Singles Energy            =      -0.0000000000000000 [Eh]
	 Same-Spin Energy          =      -0.4158055902415453 [Eh]
	 Opposite-Spin Energy      =      -1.3055216553277178 [Eh]
	 Correlation Energy        =      -1.7213272455692632 [Eh]
	 Total Energy              =    -458.0339364257564512 [Eh]
	 SCS Total Energy          =    -458.0178370299942685 [Eh]
                               Psi4 1.9 release
    Molecular point group: c1
  Multiplicity = 1
  Basis Set: AUG-CC-PVTZ
    Blend: AUG-CC-PVTZ
  Basis Set: (AUG-CC-PVTZ AUX)
    Blend: AUG-CC-PVTZ-JKFIT
  @DF-RHF Final Energy:   -99.45115734864251
    Total Energy =                        -99.4511573486425107
  Basis Set: (AUG-CC-PVTZ AUX)
	 Singles Energy            =      -0.0000000000000000 [Eh]
	 Same-Spin Energy          =      -0.0820850996261511 [Eh]
	 Opposite-Spin Energy      =      -0.2304042335818827 [Eh]
	 Correlation Energy        =      -0.3124893332080337 [Eh]
	 Total Energy              =     -99.7636466818505454 [Eh]
	 SCS Total Energy          =     -99.7550041288161538 [Eh]
                               Psi4 1.9 release
    Molecular point group: c1

    Geometry (in Bohr), charge = -1, multiplicity = 1:

       Center              X                  Y                   Z               Mass
    ------------   -----------------  -----------------  -----------------  -----------------
         F            0.000000000000     0.000000000000     0.000000000000    18.998403162730
         O            2.857638177739     4.547777099004     1.588369610505    15.994914619570
         H            2.247145145375     2.997744362407     0.818548099325     1.007825032230
         H            4.401368677708     4.077399699938     2.473621262606     1.007825032230
         O            5.071104624106    -1.023303704471    -2.165320004142    15.994914619570
         H            3.386916450409    -0.629222107994    -2.077026330383     1.007825032230
         H            5.415645160478    -1.907328924316    -3.691466602514     1.007825032230
         O            0.622434211751     0.254702956368     4.926516009069    15.994914619570
         H            1.854405254447    -0.819778311033     5.827331445539     1.007825032230
         H            0.807039667221     0.013819567155     3.094883844160     1.007825032230
         O           -2.890553427392     4.483314761413    -0.921213140269    15.994914619570
         H           -4.537205971058     3.816504111058    -1.508439864576     1.007825032230
         H           -1.741503567081     3.180545129427    -0.106695826769     1.007825032230
         O           -3.261485878832    -2.025480270858    -3.792997807783    15.994914619570
         H           -1.816669313448    -1.682513876349    -2.704948306802     1.007825032230
         H           -4.413391115318    -0.704930205758    -3.678470955950     1.007825032230
         O           -2.235950407807    -3.866296504737     2.850334386264    15.994914619570
         H           -1.446324566833    -2.510712806997     1.857916365588     1.007825032230
         H           -1.463277299904    -3.754317003721     4.553759971917     1.007825032230

  Charge       = -1
  Multiplicity = 1
  Basis Set: AUG-CC-PVTZ
    Blend: AUG-CC-PVTZ
  Basis Set: (AUG-CC-PVTZ AUX)
    Blend: AUG-CC-PVTZ-JKFIT

    Orbital Energies [Eh]
    ---------------------

    Doubly Occupied:

       1A    -26.015455     2A    -20.429110     3A    -20.410353
       4A    -20.408289     5A    -20.407392     6A    -20.406911
       7A    -20.395275     8A     -1.284572     9A     -1.231707
      10A     -1.199632    11A     -1.189988    12A     -1.184142
      13A     -1.166316    14A     -1.165485    15A     -0.612394
      16A     -0.581741    17A     -0.570970    18A     -0.564791
      19A     -0.547309    20A     -0.535315    21A     -0.452209
      22A     -0.439419    23A     -0.435046    24A     -0.427302
      25A     -0.414355    26A     -0.409748    27A     -0.382598
      28A     -0.371334    29A     -0.366899    30A     -0.363644
      31A     -0.359565    32A     -0.355315    33A     -0.343746
      34A     -0.340716    35A     -0.333655

  @DF-RHF Final Energy:  -555.90872555658439

   => Energetics <=

    Nuclear Repulsion Energy =            354.1212727216476992
    One-Electron Energy =               -1487.8545796633206919
    Two-Electron Energy =                 577.8245813850885497
    Total Energy =                       -555.9087255565843861
 Dipole X            :         -3.0921787            3.9996469            0.9074682
 Dipole Y            :        -21.9145539           21.0429243           -0.8716296
 Dipole Z            :        -25.0200386           24.7445255           -0.2755131
 Magnitude           :                                                    1.2880777
  Basis Set: (AUG-CC-PVTZ AUX)
    Blend: AUG-CC-PVTZ-RI
	 Reference Energy          =    -555.9087255565843861 [Eh]
	 Singles Energy            =      -0.0000000000000000 [Eh]
	 Same-Spin Energy          =      -0.5037692307192465 [Eh]
	 Opposite-Spin Energy      =      -1.5350598918018434 [Eh]
	 Correlation Energy        =      -2.0388291225210899 [Eh]
	 Total Energy              =    -557.9475546791054512 [Eh]

	 ================> DF-SCS-MP2 Energies <==================
	-----------------------------------------------------------
	 SCS Same-Spin Scale       =       0.3333333333333333 [-]
	 SCS Opposite-Spin Scale   =       1.2000000000000000 [-]
	 SCS Same-Spin Energy      =      -0.1679230769064155 [Eh]
	 SCS Opposite-Spin Energy  =      -1.8420718701622121 [Eh]
	 SCS Correlation Energy    =      -2.0099949470686278 [Eh]
	 SCS Total Energy          =    -557.9187205036530486 [Eh]
	-----------------------------------------------------------

*** Psi4 exiting successfully. Buy a developer a beer!
