                               Psi4 1.8.2 release

  ==> Input File <==

--------------------------------------------------------------------------
MEMORY 60 GB

molecule dimer {
-1 1
F          0.000000     0.000000     0.000000
O         -1.487872    -0.217420    -2.363753
H         -1.846266    -1.101990    -2.303354
H         -0.867098    -0.126949    -1.620883
O         -1.868663    -2.007774     0.548444
H         -1.271309    -1.335933     0.538696
H         -2.725726    -1.478875     0.632794
O         -2.203007     1.637413     0.887644
H         -1.407326     1.184148     0.615864
H         -1.872138     2.526221     0.987551
O          1.801115     0.959619    -2.091262
H          2.347007     1.699909    -1.793638
H          1.430991     0.615917    -1.275322
O          1.566564    -2.169919     0.460736
H          1.039338    -1.344244     0.290975
H          1.396974    -2.309900     1.415673

units ang
no_reorient
no_com
symmetry c1
}

set {
basis        aug-cc-pVTZ
scf_type     df
}

energy("mp2")
--------------------------------------------------------------------------

    Molecular point group: c1

    Geometry (in Angstrom), charge = -1, multiplicity = 1:

       Center              X                  Y                   Z               Mass
    ------------   -----------------  -----------------  -----------------  -----------------
         F            0.000000000000     0.000000000000     0.000000000000    18.998403162730
         O           -1.487872000000    -0.217420000000    -2.363753000000    15.994914619570
         H           -1.846266000000    -1.101990000000    -2.303354000000     1.007825032230
         H           -0.867098000000    -0.126949000000    -1.620883000000     1.007825032230
         O           -1.868663000000    -2.007774000000     0.548444000000    15.994914619570
         H           -1.271309000000    -1.335933000000     0.538696000000     1.007825032230
         H           -2.725726000000    -1.478875000000     0.632794000000     1.007825032230
         O           -2.203007000000     1.637413000000     0.887644000000    15.994914619570
         H           -1.407326000000     1.184148000000     0.615864000000     1.007825032230
         H           -1.872138000000     2.526221000000     0.987551000000     1.007825032230
         O            1.801115000000     0.959619000000    -2.091262000000    15.994914619570
         H            2.347007000000     1.699909000000    -1.793638000000     1.007825032230
         H            1.430991000000     0.615917000000    -1.275322000000     1.007825032230
         O            1.566564000000    -2.169919000000     0.460736000000    15.994914619570
         H            1.039338000000    -1.344244000000     0.290975000000     1.007825032230
         H            1.396974000000    -2.309900000000     1.415673000000     1.007825032230

  Charge       = -1
  Multiplicity = 1
  Basis Set: AUG-CC-PVTZ
    Blend: AUG-CC-PVTZ
  Basis Set: (AUG-CC-PVTZ AUX)
    Blend: AUG-CC-PVTZ-JKFIT

    Orbital Energies [Eh]
    ---------------------

    Doubly Occupied:

       1A    -25.994243     2A    -20.415763     3A    -20.410921
       4A    -20.405166     5A    -20.393223     6A    -20.381922
       7A     -1.261259     8A     -1.208028     9A     -1.199913
      10A     -1.195435    11A     -1.167501    12A     -1.165669
      13A     -0.565671    14A     -0.559783    15A     -0.554392
      16A     -0.539296    17A     -0.526762    18A     -0.450740
      19A     -0.439510    20A     -0.433933    21A     -0.424231
      22A     -0.411163    23A     -0.364629    24A     -0.358996
      25A     -0.354975    26A     -0.350642    27A     -0.348199
      28A     -0.342760    29A     -0.332860    30A     -0.327037

  @DF-RHF Final Energy:  -479.85679213633153

   => Energetics <=

    Nuclear Repulsion Energy =            264.7281193589162740
    One-Electron Energy =               -1203.4005687378362381
    Two-Electron Energy =                 458.8156572425884292
    Total Energy =                       -479.8567921363315349
 Dipole X            :         40.8695300          -40.2709273            0.5986027
 Dipole Y            :         31.8384598          -30.3420927            1.4963671
 Dipole Z            :         45.2831470          -43.4205622            1.8625848
 Magnitude           :                                                    2.4630594
  Basis Set: (AUG-CC-PVTZ AUX)
    Blend: AUG-CC-PVTZ-RI
	 Reference Energy          =    -479.8567921363315349 [Eh]
	 Singles Energy            =      -0.0000000000000000 [Eh]
	 Same-Spin Energy          =      -0.4320919728378526 [Eh]
	 Opposite-Spin Energy      =      -1.3148585941163917 [Eh]
	 Correlation Energy        =      -1.7469505669542442 [Eh]
	 Total Energy              =    -481.6037427032857750 [Eh]

	 ================> DF-SCS-MP2 Energies <==================
	-----------------------------------------------------------
	 SCS Same-Spin Scale       =       0.3333333333333333 [-]
	 SCS Opposite-Spin Scale   =       1.2000000000000000 [-]
	 SCS Same-Spin Energy      =      -0.1440306576126175 [Eh]
	 SCS Opposite-Spin Energy  =      -1.5778303129396700 [Eh]
	 SCS Correlation Energy    =      -1.7218609705522876 [Eh]
	 SCS Total Energy          =    -481.5786531068838485 [Eh]
	-----------------------------------------------------------

*** Psi4 exiting successfully. Buy a developer a beer!
