                               Psi4 1.8.2 release

  ==> Input File <==

--------------------------------------------------------------------------
MEMORY 60 GB

molecule dimer {
-1 1
F          0.000000     0.000000     0.000000
O         -0.499858     2.656083    -0.452516
H         -0.568811     1.780548    -0.057749
H         -0.971596     2.655662    -1.273282
O          2.032753     1.165306     1.191711
H          1.862455     1.191590     2.129967
H          1.311241     0.610980     0.867723
O          1.503412    -0.706894    -2.146729
H          2.318272    -0.158179    -2.419535
H          1.004696    -0.164797    -1.460316
O         -1.040215     0.023420     2.545448
H         -0.674650     0.273310     1.628852
H         -1.234537     0.904277     2.858910

units ang
no_reorient
no_com
symmetry c1
}

set {
basis        aug-cc-pVTZ
scf_type     df
}

energy("mp2")
--------------------------------------------------------------------------

    Molecular point group: c1

    Geometry (in Angstrom), charge = -1, multiplicity = 1:

       Center              X                  Y                   Z               Mass
    ------------   -----------------  -----------------  -----------------  -----------------
         F            0.000000000000     0.000000000000     0.000000000000    18.998403162730
         O           -0.499858000000     2.656083000000    -0.452516000000    15.994914619570
         H           -0.568811000000     1.780548000000    -0.057749000000     1.007825032230
         H           -0.971596000000     2.655662000000    -1.273282000000     1.007825032230
         O            2.032753000000     1.165306000000     1.191711000000    15.994914619570
         H            1.862455000000     1.191590000000     2.129967000000     1.007825032230
         H            1.311241000000     0.610980000000     0.867723000000     1.007825032230
         O            1.503412000000    -0.706894000000    -2.146729000000    15.994914619570
         H            2.318272000000    -0.158179000000    -2.419535000000     1.007825032230
         H            1.004696000000    -0.164797000000    -1.460316000000     1.007825032230
         O           -1.040215000000     0.023420000000     2.545448000000    15.994914619570
         H           -0.674650000000     0.273310000000     1.628852000000     1.007825032230
         H           -1.234537000000     0.904277000000     2.858910000000     1.007825032230

  Charge       = -1
  Multiplicity = 1
  Basis Set: AUG-CC-PVTZ
    Blend: AUG-CC-PVTZ
  Basis Set: (AUG-CC-PVTZ AUX)
    Blend: AUG-CC-PVTZ-JKFIT

    Orbital Energies [Eh]
    ---------------------

    Doubly Occupied:

       1A    -25.973600     2A    -20.405268     3A    -20.395656
       4A    -20.392208     5A    -20.378549     6A     -1.243378
       7A     -1.185751     8A     -1.179927     9A     -1.169110
      10A     -1.145481    11A     -0.565491    12A     -0.536080
      13A     -0.532398    14A     -0.515373    15A     -0.436864
      16A     -0.419934    17A     -0.415213    18A     -0.398455
      19A     -0.351425    20A     -0.346783    21A     -0.334480
      22A     -0.330122    23A     -0.324817    24A     -0.321460
      25A     -0.319633

  @DF-RHF Final Energy:  -403.77301665477609

   => Energetics <=

    Nuclear Repulsion Energy =            190.9977376296818932
    One-Electron Energy =                -950.3065873845013130
    Two-Electron Energy =                 355.5358331000433623
    Total Energy =                       -403.7730166547760859
 Dipole X            :        -36.8871204           35.9346654           -0.9524550
 Dipole Y            :        -60.8353032           60.8429659            0.0076627
 Dipole Z            :        -21.7118229           21.5010809           -0.2107420
 Magnitude           :                                                    0.9755212
  Basis Set: (AUG-CC-PVTZ AUX)
    Blend: AUG-CC-PVTZ-RI
	 Reference Energy          =    -403.7730166547760859 [Eh]
	 Singles Energy            =      -0.0000000000000000 [Eh]
	 Same-Spin Energy          =      -0.3646014118939616 [Eh]
	 Opposite-Spin Energy      =      -1.1010948420271542 [Eh]
	 Correlation Energy        =      -1.4656962539211158 [Eh]
	 Total Energy              =    -405.2387129086972095 [Eh]

	 ================> DF-SCS-MP2 Energies <==================
	-----------------------------------------------------------
	 SCS Same-Spin Scale       =       0.3333333333333333 [-]
	 SCS Opposite-Spin Scale   =       1.2000000000000000 [-]
	 SCS Same-Spin Energy      =      -0.1215338039646539 [Eh]
	 SCS Opposite-Spin Energy  =      -1.3213138104325850 [Eh]
	 SCS Correlation Energy    =      -1.4428476143972389 [Eh]
	 SCS Total Energy          =    -405.2158642691733235 [Eh]
	-----------------------------------------------------------

*** Psi4 exiting successfully. Buy a developer a beer!
