                               Psi4 1.8.2 release

  ==> Input File <==

--------------------------------------------------------------------------
MEMORY 60 GB

molecule dimer {
0 1
Gh(F)      0.000000     0.000000     0.000000
Gh(O)     -2.422908     0.436443    -1.499482
Gh(H)     -1.583421     0.540873    -1.128320
Gh(H)     -3.067179     0.942256    -0.943592
Gh(O)     -1.782269    -1.451054     1.490475
Gh(H)     -1.155844    -0.872265     0.947767
Gh(H)     -2.169082    -0.755494     2.122596
Gh(O)      1.567395     0.658397    -2.101903
Gh(H)      1.968802    -0.162329    -2.355360
Gh(H)      1.332041     0.650555    -1.175808
Gh(O)     -0.388868    -1.935975    -2.120670
Gh(H)      0.312952    -1.834528    -2.762104
Gh(H)     -0.331122    -1.285311    -1.418455
Gh(O)      1.307341    -2.198390     1.234552
Gh(H)      0.748192    -1.574726     0.741286
Gh(H)      0.754588    -2.889530     1.584528
O         -0.030587     1.864002     2.308776
H          0.162209     1.252108     1.618688
H          0.368553     1.392861     3.076085

units ang
no_reorient
no_com
symmetry c1
}

set {
basis        aug-cc-pVTZ
scf_type     df
}

energy("mp2")
--------------------------------------------------------------------------

    Molecular point group: c1

    Geometry (in Angstrom), charge = 0, multiplicity = 1:

       Center              X                  Y                   Z               Mass
    ------------   -----------------  -----------------  -----------------  -----------------
      Gh(F)           0.000000000000     0.000000000000     0.000000000000    18.998403162730
      Gh(O)          -2.422908000000     0.436443000000    -1.499482000000    15.994914619570
      Gh(H)          -1.583421000000     0.540873000000    -1.128320000000     1.007825032230
      Gh(H)          -3.067179000000     0.942256000000    -0.943592000000     1.007825032230
      Gh(O)          -1.782269000000    -1.451054000000     1.490475000000    15.994914619570
      Gh(H)          -1.155844000000    -0.872265000000     0.947767000000     1.007825032230
      Gh(H)          -2.169082000000    -0.755494000000     2.122596000000     1.007825032230
      Gh(O)           1.567395000000     0.658397000000    -2.101903000000    15.994914619570
      Gh(H)           1.968802000000    -0.162329000000    -2.355360000000     1.007825032230
      Gh(H)           1.332041000000     0.650555000000    -1.175808000000     1.007825032230
      Gh(O)          -0.388868000000    -1.935975000000    -2.120670000000    15.994914619570
      Gh(H)           0.312952000000    -1.834528000000    -2.762104000000     1.007825032230
      Gh(H)          -0.331122000000    -1.285311000000    -1.418455000000     1.007825032230
      Gh(O)           1.307341000000    -2.198390000000     1.234552000000    15.994914619570
      Gh(H)           0.748192000000    -1.574726000000     0.741286000000     1.007825032230
      Gh(H)           0.754588000000    -2.889530000000     1.584528000000     1.007825032230
         O           -0.030587000000     1.864002000000     2.308776000000    15.994914619570
         H            0.162209000000     1.252108000000     1.618688000000     1.007825032230
         H            0.368553000000     1.392861000000     3.076085000000     1.007825032230

  Charge       = 0
  Multiplicity = 1
  Basis Set: AUG-CC-PVTZ
    Blend: AUG-CC-PVTZ
  Basis Set: (AUG-CC-PVTZ AUX)
    Blend: AUG-CC-PVTZ-JKFIT

    Orbital Energies [Eh]
    ---------------------

    Doubly Occupied:

       1A    -20.569967     2A     -1.353856     3A     -0.705965
       4A     -0.591950     5A     -0.511116

  @DF-RHF Final Energy:   -76.05860024422222

   => Energetics <=

    Nuclear Repulsion Energy =              9.1491089150575835
    One-Electron Energy =                -122.9497112685405256
    Two-Electron Energy =                  37.7420021092607243
    Total Energy =                        -76.0586002442222195
 Dipole X            :         -0.1537905            0.5405864            0.3867959
 Dipole Y            :        -33.8878265           33.1778932           -0.7099333
 Dipole Z            :        -43.7334047           43.7754698            0.0420650
 Magnitude           :                                                    0.8095590
  Basis Set: (AUG-CC-PVTZ AUX)
    Blend: AUG-CC-PVTZ-RI
	 Reference Energy          =     -76.0586002442222195 [Eh]
	 Singles Energy            =      -0.0000000000000000 [Eh]
	 Same-Spin Energy          =      -0.0686115641546661 [Eh]
	 Opposite-Spin Energy      =      -0.2165840876443363 [Eh]
	 Correlation Energy        =      -0.2851956517990024 [Eh]
	 Total Energy              =     -76.3437958960212200 [Eh]

	 ================> DF-SCS-MP2 Energies <==================
	-----------------------------------------------------------
	 SCS Same-Spin Scale       =       0.3333333333333333 [-]
	 SCS Opposite-Spin Scale   =       1.2000000000000000 [-]
	 SCS Same-Spin Energy      =      -0.0228705213848887 [Eh]
	 SCS Opposite-Spin Energy  =      -0.2599009051732035 [Eh]
	 SCS Correlation Energy    =      -0.2827714265580922 [Eh]
	 SCS Total Energy          =     -76.3413716707803047 [Eh]
	-----------------------------------------------------------

*** Psi4 exiting successfully. Buy a developer a beer!
