                               Psi4 1.8.2 release

  ==> Input File <==

--------------------------------------------------------------------------
MEMORY 60 GB

molecule dimer {
-1 1
F          0.000000     0.000000     0.000000
Gh(O)      0.165293     0.083255    -2.915176
Gh(H)      0.664980    -0.212970    -2.135442
Gh(H)      0.048059     1.049442    -2.946154
Gh(O)      2.475389    -0.135408     1.309999
Gh(H)      1.638586    -0.214168     0.812850
Gh(H)      2.520190    -0.810723     1.984287
Gh(O)     -0.309101    -2.782394     0.154485
Gh(H)     -0.245961    -1.824650     0.054161
Gh(H)     -1.220250    -2.823525     0.267269
Gh(O)     -0.285980     0.810005     2.492737
Gh(H)     -0.177233     0.310410     1.663910
Gh(H)      0.145263     0.356847     3.231122
Gh(O)     -2.747590     0.888238    -0.575196
Gh(H)     -1.860637     0.738560    -0.236004
Gh(H)     -3.372019     0.406963     0.065585
Gh(O)      0.830527     2.959937    -0.256319
Gh(H)      0.269201     2.193067    -0.063366
Gh(H)      1.737656     2.830104     0.006673

units ang
no_reorient
no_com
symmetry c1
}

set {
basis        aug-cc-pVTZ
scf_type     df
}

energy("mp2")
--------------------------------------------------------------------------

    Molecular point group: c1

    Geometry (in Angstrom), charge = -1, multiplicity = 1:

       Center              X                  Y                   Z               Mass
    ------------   -----------------  -----------------  -----------------  -----------------
         F            0.000000000000     0.000000000000     0.000000000000    18.998403162730
      Gh(O)           0.165293000000     0.083255000000    -2.915176000000    15.994914619570
      Gh(H)           0.664980000000    -0.212970000000    -2.135442000000     1.007825032230
      Gh(H)           0.048059000000     1.049442000000    -2.946154000000     1.007825032230
      Gh(O)           2.475389000000    -0.135408000000     1.309999000000    15.994914619570
      Gh(H)           1.638586000000    -0.214168000000     0.812850000000     1.007825032230
      Gh(H)           2.520190000000    -0.810723000000     1.984287000000     1.007825032230
      Gh(O)          -0.309101000000    -2.782394000000     0.154485000000    15.994914619570
      Gh(H)          -0.245961000000    -1.824650000000     0.054161000000     1.007825032230
      Gh(H)          -1.220250000000    -2.823525000000     0.267269000000     1.007825032230
      Gh(O)          -0.285980000000     0.810005000000     2.492737000000    15.994914619570
      Gh(H)          -0.177233000000     0.310410000000     1.663910000000     1.007825032230
      Gh(H)           0.145263000000     0.356847000000     3.231122000000     1.007825032230
      Gh(O)          -2.747590000000     0.888238000000    -0.575196000000    15.994914619570
      Gh(H)          -1.860637000000     0.738560000000    -0.236004000000     1.007825032230
      Gh(H)          -3.372019000000     0.406963000000     0.065585000000     1.007825032230
      Gh(O)           0.830527000000     2.959937000000    -0.256319000000    15.994914619570
      Gh(H)           0.269201000000     2.193067000000    -0.063366000000     1.007825032230
      Gh(H)           1.737656000000     2.830104000000     0.006673000000     1.007825032230

  Charge       = -1
  Multiplicity = 1
  Basis Set: AUG-CC-PVTZ
    Blend: AUG-CC-PVTZ
  Basis Set: (AUG-CC-PVTZ AUX)
    Blend: AUG-CC-PVTZ-JKFIT

    Orbital Energies [Eh]
    ---------------------

    Doubly Occupied:

       1A    -25.833549     2A     -1.075865     3A     -0.180900
       4A     -0.180898     5A     -0.180877

  @DF-RHF Final Energy:   -99.45114335371503

   => Energetics <=

    Nuclear Repulsion Energy =              0.0000000000000000
    One-Electron Energy =                -143.9981013589570864
    Two-Electron Energy =                  44.5469580052420611
    Total Energy =                        -99.4511433537150253
 Dipole X            :         -0.0000287            0.0000000           -0.0000287
 Dipole Y            :         -0.0000533            0.0000000           -0.0000533
 Dipole Z            :          0.0001744            0.0000000            0.0001744
 Magnitude           :                                                    0.0001846
  Basis Set: (AUG-CC-PVTZ AUX)
    Blend: AUG-CC-PVTZ-RI
	 Reference Energy          =     -99.4511433537150253 [Eh]
	 Singles Energy            =      -0.0000000000000000 [Eh]
	 Same-Spin Energy          =      -0.0820553579940897 [Eh]
	 Opposite-Spin Energy      =      -0.2302251321009889 [Eh]
	 Correlation Energy        =      -0.3122804900950786 [Eh]
	 Total Energy              =     -99.7634238438101022 [Eh]

	 ================> DF-SCS-MP2 Energies <==================
	-----------------------------------------------------------
	 SCS Same-Spin Scale       =       0.3333333333333333 [-]
	 SCS Opposite-Spin Scale   =       1.2000000000000000 [-]
	 SCS Same-Spin Energy      =      -0.0273517859980299 [Eh]
	 SCS Opposite-Spin Energy  =      -0.2762701585211867 [Eh]
	 SCS Correlation Energy    =      -0.3036219445192166 [Eh]
	 SCS Total Energy          =     -99.7547652982342470 [Eh]
	-----------------------------------------------------------

*** Psi4 exiting successfully. Buy a developer a beer!
