                               Psi4 1.8.2 release

  ==> Input File <==

--------------------------------------------------------------------------
MEMORY 60 GB

molecule dimer {
0 1
Gh(F)      0.000000     0.000000     0.000000
Gh(O)     -0.403439     1.183217     2.402459
Gh(H)     -0.368174     0.518223     1.697033
Gh(H)      0.232895     0.753495     2.947123
O          2.303742    -1.250421     0.525025
H          1.490227    -0.788707     0.531894
H          2.843314    -1.105727     1.310304
Gh(O)     -2.398892     1.650841    -0.051992
Gh(H)     -1.675125     0.929581     0.042817
Gh(H)     -2.902495     1.553309     0.752774
Gh(O)     -1.481475    -2.214462    -0.034526
Gh(H)     -0.810065    -1.515855    -0.061717
Gh(H)     -1.006129    -3.009721    -0.410769
Gh(O)     -0.656255     0.245235    -2.745367
Gh(H)     -0.053838    -0.438387    -3.118900
Gh(H)     -0.449334     0.215360    -1.787135

units ang
no_reorient
no_com
symmetry c1
}

set {
basis        aug-cc-pVTZ
scf_type     df
}

energy("mp2")
--------------------------------------------------------------------------

    Molecular point group: c1

    Geometry (in Angstrom), charge = 0, multiplicity = 1:

       Center              X                  Y                   Z               Mass
    ------------   -----------------  -----------------  -----------------  -----------------
      Gh(F)           0.000000000000     0.000000000000     0.000000000000    18.998403162730
      Gh(O)          -0.403439000000     1.183217000000     2.402459000000    15.994914619570
      Gh(H)          -0.368174000000     0.518223000000     1.697033000000     1.007825032230
      Gh(H)           0.232895000000     0.753495000000     2.947123000000     1.007825032230
         O            2.303742000000    -1.250421000000     0.525025000000    15.994914619570
         H            1.490227000000    -0.788707000000     0.531894000000     1.007825032230
         H            2.843314000000    -1.105727000000     1.310304000000     1.007825032230
      Gh(O)          -2.398892000000     1.650841000000    -0.051992000000    15.994914619570
      Gh(H)          -1.675125000000     0.929581000000     0.042817000000     1.007825032230
      Gh(H)          -2.902495000000     1.553309000000     0.752774000000     1.007825032230
      Gh(O)          -1.481475000000    -2.214462000000    -0.034526000000    15.994914619570
      Gh(H)          -0.810065000000    -1.515855000000    -0.061717000000     1.007825032230
      Gh(H)          -1.006129000000    -3.009721000000    -0.410769000000     1.007825032230
      Gh(O)          -0.656255000000     0.245235000000    -2.745367000000    15.994914619570
      Gh(H)          -0.053838000000    -0.438387000000    -3.118900000000     1.007825032230
      Gh(H)          -0.449334000000     0.215360000000    -1.787135000000     1.007825032230

  Charge       = 0
  Multiplicity = 1
  Basis Set: AUG-CC-PVTZ
    Blend: AUG-CC-PVTZ
  Basis Set: (AUG-CC-PVTZ AUX)
    Blend: AUG-CC-PVTZ-JKFIT

    Orbital Energies [Eh]
    ---------------------

    Doubly Occupied:

       1A    -20.561389     2A     -1.351112     3A     -0.739599
       4A     -0.567942     5A     -0.508160

  @DF-RHF Final Energy:   -76.05909963191766

   => Energetics <=

    Nuclear Repulsion Energy =              9.2506734198294058
    One-Electron Energy =                -123.1631420996639150
    Two-Electron Energy =                  37.8533690479168285
    Total Energy =                        -76.0590996319176753
 Dipole X            :        -43.2088127           43.0167372           -0.1920755
 Dipole Y            :         22.9026930          -22.4835873            0.4191057
 Dipole Z            :        -10.8737815           11.4184774            0.5446959
 Magnitude           :                                                    0.7136079
  Basis Set: (AUG-CC-PVTZ AUX)
    Blend: AUG-CC-PVTZ-RI
	 Reference Energy          =     -76.0590996319176611 [Eh]
	 Singles Energy            =      -0.0000000000000000 [Eh]
	 Same-Spin Energy          =      -0.0681942298597007 [Eh]
	 Opposite-Spin Energy      =      -0.2153363217578047 [Eh]
	 Correlation Energy        =      -0.2835305516175054 [Eh]
	 Total Energy              =     -76.3426301835351637 [Eh]

	 ================> DF-SCS-MP2 Energies <==================
	-----------------------------------------------------------
	 SCS Same-Spin Scale       =       0.3333333333333333 [-]
	 SCS Opposite-Spin Scale   =       1.2000000000000000 [-]
	 SCS Same-Spin Energy      =      -0.0227314099532336 [Eh]
	 SCS Opposite-Spin Energy  =      -0.2584035861093656 [Eh]
	 SCS Correlation Energy    =      -0.2811349960625992 [Eh]
	 SCS Total Energy          =     -76.3402346279802657 [Eh]
	-----------------------------------------------------------

*** Psi4 exiting successfully. Buy a developer a beer!
