                               Psi4 1.9 release

  ==> Input File <==

--------------------------------------------------------------------------
MEMORY 60 GB

molecule dimer {
-1 1
F      0.000000     0.000000     0.000000
--
0 1
O      1.451835    -1.452535     2.052395
H      1.469584    -0.899906     1.315952
H      1.373633    -0.980960     2.860466
O     -0.559359    -2.672142    -0.866309
H      0.288354    -3.135902    -0.865194
H     -0.225876    -1.778096    -0.742343
O      1.611940     2.034987     1.608686
H      1.025985     2.541931     2.212233
H      0.965893     1.555115     0.966858
O     -1.608533    -0.904734     2.300778
H     -1.271895    -0.716260     1.375122
H     -0.910123    -1.497503     2.647384
O     -2.280907     1.332090     0.163613
H     -1.494680     0.704833    -0.100659
H     -1.895508     2.117946     0.620702
O      0.450456     0.337148    -2.757854
H      1.193771     0.963211    -3.022596
H      0.495681     0.289983    -1.818199

units ang
no_reorient
no_com
symmetry c1
}

set {
basis        aug-cc-pVTZ
scf_type     df
}

energy("mp2", bsse_type="cp")
--------------------------------------------------------------------------

                               Psi4 1.9 release
    Molecular point group: c1
  Charge       = 0
  Multiplicity = 1
  Basis Set: AUG-CC-PVTZ
    Blend: AUG-CC-PVTZ
  Basis Set: (AUG-CC-PVTZ AUX)
    Blend: AUG-CC-PVTZ-JKFIT
  @DF-RHF Final Energy:  -456.31401483007323
    Total Energy =                       -456.3140148300732335
 Dipole X            :         14.0280909          -12.2108905            1.8172004
 Dipole Y            :         22.8373159          -21.6129791            1.2243368
 Dipole Z            :        -47.7808765           48.1128013            0.3319248
 Magnitude           :                                                    2.2161661
  Basis Set: (AUG-CC-PVTZ AUX)
    Blend: AUG-CC-PVTZ-RI
	 Reference Energy          =    -456.3140148300732335 [Eh]
	 Singles Energy            =      -0.0000000000000000 [Eh]
	 Same-Spin Energy          =      -0.4166024022976352 [Eh]
	 Opposite-Spin Energy      =      -1.3083818289767384 [Eh]
	 Correlation Energy        =      -1.7249842312743735 [Eh]
	 Total Energy              =    -458.0389990613476243 [Eh]
	 SCS Total Energy          =    -458.0229404922778826 [Eh]
                               Psi4 1.9 release
    Molecular point group: c1
  Multiplicity = 1
  Basis Set: AUG-CC-PVTZ
    Blend: AUG-CC-PVTZ
  Basis Set: (AUG-CC-PVTZ AUX)
    Blend: AUG-CC-PVTZ-JKFIT
  @DF-RHF Final Energy:   -99.45115311489378
    Total Energy =                        -99.4511531148937706
  Basis Set: (AUG-CC-PVTZ AUX)
	 Singles Energy            =      -0.0000000000000000 [Eh]
	 Same-Spin Energy          =      -0.0820618049013494 [Eh]
	 Opposite-Spin Energy      =      -0.2301989545644299 [Eh]
	 Correlation Energy        =      -0.3122607594657792 [Eh]
	 Total Energy              =     -99.7634138743595571 [Eh]
	 SCS Total Energy          =     -99.7547457953382235 [Eh]
                               Psi4 1.9 release
    Molecular point group: c1

    Geometry (in Bohr), charge = -1, multiplicity = 1:

       Center              X                  Y                   Z               Mass
    ------------   -----------------  -----------------  -----------------  -----------------
         F            0.000000000000     0.000000000000     0.000000000000    18.998403162730
         O            2.743570529354    -2.744893337642     3.878464451259    15.994914619570
         H            2.777111278355    -1.700575878656     2.486788874248     1.007825032230
         H            2.595790166891    -1.853745740029     5.405497331184     1.007825032230
         O           -1.057035315810    -5.049616548333    -1.637086750019    15.994914619570
         H            0.544910087180    -5.925995936275    -1.634979705389     1.007825032230
         H           -0.426843778314    -3.360114464772    -1.402824961151     1.007825032230
         O            3.046125130670     3.845568098867     3.039975961858    15.994914619570
         H            1.938830658828     4.803553419811     4.180514495700     1.007825032230
         H            1.825273236497     2.938741443591     1.827096822208     1.007825032230
         O           -3.039686833761    -1.709699476390     4.347840295479    15.994914619570
         H           -2.403533210339    -1.353535234620     2.598603969092     1.007825032230
         H           -1.719883210480    -2.829870542051     5.002830708919     1.007825032230
         O           -4.310289547640     2.517285274461     0.309183760565    15.994914619570
         H           -2.824535845199     1.331941334185    -0.190217942062     1.007825032230
         H           -3.581990988614     4.002337888509     1.172956785524     1.007825032230
         O            0.851238471569     0.637117383746    -5.211588753998    15.994914619570
         H            2.255900246514     1.820204991028    -5.711878627904     1.007825032230
         H            0.936701335593     0.547988451039    -3.435898151581     1.007825032230

  Charge       = -1
  Multiplicity = 1
  Basis Set: AUG-CC-PVTZ
    Blend: AUG-CC-PVTZ
  Basis Set: (AUG-CC-PVTZ AUX)
    Blend: AUG-CC-PVTZ-JKFIT

    Orbital Energies [Eh]
    ---------------------

    Doubly Occupied:

       1A    -26.012113     2A    -20.445284     3A    -20.421054
       4A    -20.420763     5A    -20.407799     6A    -20.396120
       7A    -20.389719     8A     -1.279708     9A     -1.226824
      10A     -1.203928    11A     -1.198490    12A     -1.194271
      13A     -1.165027    14A     -1.147899    15A     -0.615581
      16A     -0.568104    17A     -0.566478    18A     -0.544505
      19A     -0.534488    20A     -0.516996    21A     -0.454710
      22A     -0.444446    23A     -0.442182    24A     -0.439713
      25A     -0.425540    26A     -0.416660    27A     -0.381337
      28A     -0.375201    29A     -0.368577    30A     -0.366113
      31A     -0.362876    32A     -0.351939    33A     -0.345860
      34A     -0.334575    35A     -0.325892

  @DF-RHF Final Energy:  -555.90615559393950

   => Energetics <=

    Nuclear Repulsion Energy =            352.2755904148125410
    One-Electron Energy =               -1484.1819376326379825
    Two-Electron Energy =                 576.0001916238859394
    Total Energy =                       -555.9061555939395021
 Dipole X            :         14.2858001          -12.2108905            2.0749095
 Dipole Y            :         22.7653613          -21.6129791            1.1523822
 Dipole Z            :        -48.0297118           48.1128013            0.0830896
 Magnitude           :                                                    2.3748975
  Basis Set: (AUG-CC-PVTZ AUX)
    Blend: AUG-CC-PVTZ-RI
	 Reference Energy          =    -555.9061555939395021 [Eh]
	 Singles Energy            =      -0.0000000000000000 [Eh]
	 Same-Spin Energy          =      -0.5042825651296526 [Eh]
	 Opposite-Spin Energy      =      -1.5372399242344010 [Eh]
	 Correlation Energy        =      -2.0415224893640538 [Eh]
	 Total Energy              =    -557.9476780833035718 [Eh]

	 ================> DF-SCS-MP2 Energies <==================
	-----------------------------------------------------------
	 SCS Same-Spin Scale       =       0.3333333333333333 [-]
	 SCS Opposite-Spin Scale   =       1.2000000000000000 [-]
	 SCS Same-Spin Energy      =      -0.1680941883765509 [Eh]
	 SCS Opposite-Spin Energy  =      -1.8446879090812811 [Eh]
	 SCS Correlation Energy    =      -2.0127820974578321 [Eh]
	 SCS Total Energy          =    -557.9189376913973319 [Eh]
	-----------------------------------------------------------

*** Psi4 exiting successfully. Buy a developer a beer!
