                               Psi4 1.8.2 release

  ==> Input File <==

--------------------------------------------------------------------------
MEMORY 60 GB

molecule dimer {
0 1
Gh(F)      0.000000     0.000000     0.000000
Gh(O)      0.267898     1.190999     2.490967
Gh(H)      0.231648     0.918893     1.585672
Gh(H)      1.150368     0.873921     2.774655
Gh(O)      1.989861     1.908491    -0.696683
Gh(H)      2.519841     1.786306     0.028333
Gh(H)      1.155472     1.444242    -0.489303
Gh(O)     -0.232516     0.521451    -2.764163
Gh(H)     -0.239694     0.176774    -1.911270
Gh(H)     -0.781563    -0.064568    -3.269363
O          2.028485    -1.193703     1.417716
H          1.489509    -1.545613     2.154059
H          1.368958    -0.882699     0.721738

units ang
no_reorient
no_com
symmetry c1
}

set {
basis        aug-cc-pVTZ
scf_type     df
}

energy("mp2")
--------------------------------------------------------------------------

    Molecular point group: c1

    Geometry (in Angstrom), charge = 0, multiplicity = 1:

       Center              X                  Y                   Z               Mass
    ------------   -----------------  -----------------  -----------------  -----------------
      Gh(F)           0.000000000000     0.000000000000     0.000000000000    18.998403162730
      Gh(O)           0.267898000000     1.190999000000     2.490967000000    15.994914619570
      Gh(H)           0.231648000000     0.918893000000     1.585672000000     1.007825032230
      Gh(H)           1.150368000000     0.873921000000     2.774655000000     1.007825032230
      Gh(O)           1.989861000000     1.908491000000    -0.696683000000    15.994914619570
      Gh(H)           2.519841000000     1.786306000000     0.028333000000     1.007825032230
      Gh(H)           1.155472000000     1.444242000000    -0.489303000000     1.007825032230
      Gh(O)          -0.232516000000     0.521451000000    -2.764163000000    15.994914619570
      Gh(H)          -0.239694000000     0.176774000000    -1.911270000000     1.007825032230
      Gh(H)          -0.781563000000    -0.064568000000    -3.269363000000     1.007825032230
         O            2.028485000000    -1.193703000000     1.417716000000    15.994914619570
         H            1.489509000000    -1.545613000000     2.154059000000     1.007825032230
         H            1.368958000000    -0.882699000000     0.721738000000     1.007825032230

  Charge       = 0
  Multiplicity = 1
  Basis Set: AUG-CC-PVTZ
    Blend: AUG-CC-PVTZ
  Basis Set: (AUG-CC-PVTZ AUX)
    Blend: AUG-CC-PVTZ-JKFIT

    Orbital Energies [Eh]
    ---------------------

    Doubly Occupied:

       1A    -20.572632     2A     -1.335213     3A     -0.700754
       4A     -0.575654     5A     -0.507166

  @DF-RHF Final Energy:   -76.05565417872558

   => Energetics <=

    Nuclear Repulsion Energy =              8.8626162310483370
    One-Electron Energy =                -122.4536955594078762
    Two-Electron Energy =                  37.5354251496339657
    Total Energy =                        -76.0556541787255753
 Dipole X            :        -36.8501563           36.0679686           -0.7821878
 Dipole Y            :         22.6059941          -22.6350186           -0.0290245
 Dipole Z            :        -26.8367651           26.8672284            0.0304633
 Magnitude           :                                                    0.7833187
  Basis Set: (AUG-CC-PVTZ AUX)
    Blend: AUG-CC-PVTZ-RI
	 Reference Energy          =     -76.0556541787255753 [Eh]
	 Singles Energy            =      -0.0000000000000000 [Eh]
	 Same-Spin Energy          =      -0.0690119898062181 [Eh]
	 Opposite-Spin Energy      =      -0.2179088076231046 [Eh]
	 Correlation Energy        =      -0.2869207974293226 [Eh]
	 Total Energy              =     -76.3425749761548929 [Eh]

	 ================> DF-SCS-MP2 Energies <==================
	-----------------------------------------------------------
	 SCS Same-Spin Scale       =       0.3333333333333333 [-]
	 SCS Opposite-Spin Scale   =       1.2000000000000000 [-]
	 SCS Same-Spin Energy      =      -0.0230039966020727 [Eh]
	 SCS Opposite-Spin Energy  =      -0.2614905691477255 [Eh]
	 SCS Correlation Energy    =      -0.2844945657497982 [Eh]
	 SCS Total Energy          =     -76.3401487444753712 [Eh]
	-----------------------------------------------------------

*** Psi4 exiting successfully. Buy a developer a beer!
