                               Psi4 1.8.2 release

  ==> Input File <==

--------------------------------------------------------------------------
MEMORY 60 GB

molecule dimer {
-1 1
F          0.000000     0.000000     0.000000
O          1.590084    -1.184330    -2.003102
H          1.148328    -0.682878    -1.303231
H          0.913372    -1.486227    -2.592972
O         -2.579713     0.695595     0.903205
H         -1.766790     0.373051     0.472017
H         -2.556590     0.408652     1.799991
O          0.006302    -2.680277     0.762718
H         -0.174598    -1.785268     0.559851
H          0.461896    -3.084610     0.019470
O         -1.603595     0.178698    -2.497753
H         -1.541862     0.933686    -3.056288
H         -0.984133     0.301020    -1.747949
O          0.426525     1.345587     2.362969
H         -0.180704     2.043739     2.250203
H          0.386881     0.812199     1.526283

units ang
no_reorient
no_com
symmetry c1
}

set {
basis        aug-cc-pVTZ
scf_type     df
}

energy("mp2")
--------------------------------------------------------------------------

    Molecular point group: c1

    Geometry (in Angstrom), charge = -1, multiplicity = 1:

       Center              X                  Y                   Z               Mass
    ------------   -----------------  -----------------  -----------------  -----------------
         F            0.000000000000     0.000000000000     0.000000000000    18.998403162730
         O            1.590084000000    -1.184330000000    -2.003102000000    15.994914619570
         H            1.148328000000    -0.682878000000    -1.303231000000     1.007825032230
         H            0.913372000000    -1.486227000000    -2.592972000000     1.007825032230
         O           -2.579713000000     0.695595000000     0.903205000000    15.994914619570
         H           -1.766790000000     0.373051000000     0.472017000000     1.007825032230
         H           -2.556590000000     0.408652000000     1.799991000000     1.007825032230
         O            0.006302000000    -2.680277000000     0.762718000000    15.994914619570
         H           -0.174598000000    -1.785268000000     0.559851000000     1.007825032230
         H            0.461896000000    -3.084610000000     0.019470000000     1.007825032230
         O           -1.603595000000     0.178698000000    -2.497753000000    15.994914619570
         H           -1.541862000000     0.933686000000    -3.056288000000     1.007825032230
         H           -0.984133000000     0.301020000000    -1.747949000000     1.007825032230
         O            0.426525000000     1.345587000000     2.362969000000    15.994914619570
         H           -0.180704000000     2.043739000000     2.250203000000     1.007825032230
         H            0.386881000000     0.812199000000     1.526283000000     1.007825032230

  Charge       = -1
  Multiplicity = 1
  Basis Set: AUG-CC-PVTZ
    Blend: AUG-CC-PVTZ
  Basis Set: (AUG-CC-PVTZ AUX)
    Blend: AUG-CC-PVTZ-JKFIT

    Orbital Energies [Eh]
    ---------------------

    Doubly Occupied:

       1A    -26.000043     2A    -20.422965     3A    -20.406057
       4A    -20.400468     5A    -20.393934     6A    -20.392294
       7A     -1.266643     8A     -1.209286     9A     -1.195897
      10A     -1.189683    11A     -1.188164    12A     -1.180853
      13A     -0.585162    14A     -0.570900    15A     -0.568470
      16A     -0.562435    17A     -0.552143    18A     -0.442906
      19A     -0.439304    20A     -0.426794    21A     -0.423391
      22A     -0.419115    23A     -0.369809    24A     -0.360330
      25A     -0.356073    26A     -0.353572    27A     -0.352367
      28A     -0.345616    29A     -0.342188    30A     -0.337897

  @DF-RHF Final Energy:  -479.87281305850098

   => Energetics <=

    Nuclear Repulsion Energy =            263.3392905465915419
    One-Electron Energy =               -1200.3146860072204163
    Two-Electron Energy =                 457.1025824021278936
    Total Energy =                       -479.8728130585009808
 Dipole X            :         40.9966096          -40.7753311            0.2212784
 Dipole Y            :         29.8643109          -28.9590173            0.9052936
 Dipole Z            :         10.2394779          -11.0517401           -0.8122622
 Magnitude           :                                                    1.2362405
  Basis Set: (AUG-CC-PVTZ AUX)
    Blend: AUG-CC-PVTZ-RI
	 Reference Energy          =    -479.8728130585009808 [Eh]
	 Singles Energy            =      -0.0000000000000000 [Eh]
	 Same-Spin Energy          =      -0.4311079354068471 [Eh]
	 Opposite-Spin Energy      =      -1.3111594278392298 [Eh]
	 Correlation Energy        =      -1.7422673632460768 [Eh]
	 Total Energy              =    -481.6150804217470522 [Eh]

	 ================> DF-SCS-MP2 Energies <==================
	-----------------------------------------------------------
	 SCS Same-Spin Scale       =       0.3333333333333333 [-]
	 SCS Opposite-Spin Scale   =       1.2000000000000000 [-]
	 SCS Same-Spin Energy      =      -0.1437026451356157 [Eh]
	 SCS Opposite-Spin Energy  =      -1.5733913134070756 [Eh]
	 SCS Correlation Energy    =      -1.7170939585426912 [Eh]
	 SCS Total Energy          =    -481.5899070170436858 [Eh]
	-----------------------------------------------------------

*** Psi4 exiting successfully. Buy a developer a beer!
