                               Psi4 1.8.2 release

  ==> Input File <==

--------------------------------------------------------------------------
MEMORY 60 GB

molecule dimer {
0 1
Gh(F)      0.000000     0.000000     0.000000
Gh(O)      1.085350    -0.452967    -2.498595
Gh(H)      0.740226    -0.290867    -1.628710
Gh(H)      1.712584     0.278333    -2.718517
Gh(O)      2.724779     1.025508     1.044409
Gh(H)      1.842746     0.753869     0.654207
Gh(H)      2.827630     0.510970     1.864390
Gh(O)      0.347464     2.793856    -0.347316
Gh(H)      0.359101     1.813032    -0.464677
Gh(H)      1.260776     3.131718    -0.519961
Gh(O)     -0.522190    -0.709648     2.712844
Gh(H)     -1.491139    -0.927418     2.859256
Gh(H)     -0.468495    -0.514250     1.793049
O          1.416063    -2.457372     0.057633
H          0.659838    -3.068519     0.149532
H          0.955921    -1.620980    -0.132078
Gh(O)     -2.262354    -0.569114    -1.491409
Gh(H)     -1.655329    -0.029416    -0.956922
Gh(H)     -2.394828    -1.281723    -0.858167

units ang
no_reorient
no_com
symmetry c1
}

set {
basis        aug-cc-pVTZ
scf_type     df
}

energy("mp2")
--------------------------------------------------------------------------

    Molecular point group: c1

    Geometry (in Angstrom), charge = 0, multiplicity = 1:

       Center              X                  Y                   Z               Mass
    ------------   -----------------  -----------------  -----------------  -----------------
      Gh(F)           0.000000000000     0.000000000000     0.000000000000    18.998403162730
      Gh(O)           1.085350000000    -0.452967000000    -2.498595000000    15.994914619570
      Gh(H)           0.740226000000    -0.290867000000    -1.628710000000     1.007825032230
      Gh(H)           1.712584000000     0.278333000000    -2.718517000000     1.007825032230
      Gh(O)           2.724779000000     1.025508000000     1.044409000000    15.994914619570
      Gh(H)           1.842746000000     0.753869000000     0.654207000000     1.007825032230
      Gh(H)           2.827630000000     0.510970000000     1.864390000000     1.007825032230
      Gh(O)           0.347464000000     2.793856000000    -0.347316000000    15.994914619570
      Gh(H)           0.359101000000     1.813032000000    -0.464677000000     1.007825032230
      Gh(H)           1.260776000000     3.131718000000    -0.519961000000     1.007825032230
      Gh(O)          -0.522190000000    -0.709648000000     2.712844000000    15.994914619570
      Gh(H)          -1.491139000000    -0.927418000000     2.859256000000     1.007825032230
      Gh(H)          -0.468495000000    -0.514250000000     1.793049000000     1.007825032230
         O            1.416063000000    -2.457372000000     0.057633000000    15.994914619570
         H            0.659838000000    -3.068519000000     0.149532000000     1.007825032230
         H            0.955921000000    -1.620980000000    -0.132078000000     1.007825032230
      Gh(O)          -2.262354000000    -0.569114000000    -1.491409000000    15.994914619570
      Gh(H)          -1.655329000000    -0.029416000000    -0.956922000000     1.007825032230
      Gh(H)          -2.394828000000    -1.281723000000    -0.858167000000     1.007825032230

  Charge       = 0
  Multiplicity = 1
  Basis Set: AUG-CC-PVTZ
    Blend: AUG-CC-PVTZ
  Basis Set: (AUG-CC-PVTZ AUX)
    Blend: AUG-CC-PVTZ-JKFIT

    Orbital Energies [Eh]
    ---------------------

    Doubly Occupied:

       1A    -20.571715     2A     -1.347029     3A     -0.701281
       4A     -0.588379     5A     -0.509948

  @DF-RHF Final Energy:   -76.05852200446452

   => Energetics <=

    Nuclear Repulsion Energy =              9.0361482227595200
    One-Electron Energy =                -122.7526304190612052
    Two-Electron Energy =                  37.6579601918371552
    Total Energy =                        -76.0585220044645212
 Dipole X            :        -25.2531640           24.4611120           -0.7920521
 Dipole Y            :         46.1595884          -46.0119493            0.1476391
 Dipole Z            :         -0.9681467            0.9042680           -0.0638788
 Magnitude           :                                                    0.8082229
  Basis Set: (AUG-CC-PVTZ AUX)
    Blend: AUG-CC-PVTZ-RI
	 Reference Energy          =     -76.0585220044645212 [Eh]
	 Singles Energy            =      -0.0000000000000000 [Eh]
	 Same-Spin Energy          =      -0.0688237560431123 [Eh]
	 Opposite-Spin Energy      =      -0.2174599768206788 [Eh]
	 Correlation Energy        =      -0.2862837328637911 [Eh]
	 Total Energy              =     -76.3448057373283149 [Eh]

	 ================> DF-SCS-MP2 Energies <==================
	-----------------------------------------------------------
	 SCS Same-Spin Scale       =       0.3333333333333333 [-]
	 SCS Opposite-Spin Scale   =       1.2000000000000000 [-]
	 SCS Same-Spin Energy      =      -0.0229412520143708 [Eh]
	 SCS Opposite-Spin Energy  =      -0.2609519721848145 [Eh]
	 SCS Correlation Energy    =      -0.2838932241991853 [Eh]
	 SCS Total Energy          =     -76.3424152286637110 [Eh]
	-----------------------------------------------------------

*** Psi4 exiting successfully. Buy a developer a beer!
