                               Psi4 1.8.2 release

  ==> Input File <==

--------------------------------------------------------------------------
MEMORY 60 GB

molecule dimer {
-1 1
F          0.000000     0.000000     0.000000
O         -2.554885    -0.515321     0.758406
H         -1.612284    -0.473038     0.582957
H         -2.842041    -1.403277     1.084241
O          1.083037     2.154867     1.385653
H          0.609748     1.409713     0.882328
H          1.632519     2.510959     0.665831
O          0.426737    -2.496911    -0.665385
H          0.303600    -3.137566     0.078614
H         -0.052202    -1.707756    -0.340693
O         -1.104728     2.400067    -1.171868
H         -1.500405     1.941350    -1.947783
H         -0.886647     1.656492    -0.613653

units ang
no_reorient
no_com
symmetry c1
}

set {
basis        aug-cc-pVTZ
scf_type     df
}

energy("mp2")
--------------------------------------------------------------------------

    Molecular point group: c1

    Geometry (in Angstrom), charge = -1, multiplicity = 1:

       Center              X                  Y                   Z               Mass
    ------------   -----------------  -----------------  -----------------  -----------------
         F            0.000000000000     0.000000000000     0.000000000000    18.998403162730
         O           -2.554885000000    -0.515321000000     0.758406000000    15.994914619570
         H           -1.612284000000    -0.473038000000     0.582957000000     1.007825032230
         H           -2.842041000000    -1.403277000000     1.084241000000     1.007825032230
         O            1.083037000000     2.154867000000     1.385653000000    15.994914619570
         H            0.609748000000     1.409713000000     0.882328000000     1.007825032230
         H            1.632519000000     2.510959000000     0.665831000000     1.007825032230
         O            0.426737000000    -2.496911000000    -0.665385000000    15.994914619570
         H            0.303600000000    -3.137566000000     0.078614000000     1.007825032230
         H           -0.052202000000    -1.707756000000    -0.340693000000     1.007825032230
         O           -1.104728000000     2.400067000000    -1.171868000000    15.994914619570
         H           -1.500405000000     1.941350000000    -1.947783000000     1.007825032230
         H           -0.886647000000     1.656492000000    -0.613653000000     1.007825032230

  Charge       = -1
  Multiplicity = 1
  Basis Set: AUG-CC-PVTZ
    Blend: AUG-CC-PVTZ
  Basis Set: (AUG-CC-PVTZ AUX)
    Blend: AUG-CC-PVTZ-JKFIT

    Orbital Energies [Eh]
    ---------------------

    Doubly Occupied:

       1A    -25.972669     2A    -20.400745     3A    -20.398559
       4A    -20.397860     5A    -20.385042     6A     -1.239965
       7A     -1.179988     8A     -1.177164     9A     -1.169992
      10A     -1.153910    11A     -0.565334    12A     -0.541806
      13A     -0.532073    14A     -0.507861    15A     -0.428929
      16A     -0.423510    17A     -0.412166    18A     -0.408937
      19A     -0.348922    20A     -0.344799    21A     -0.343859
      22A     -0.329597    23A     -0.327649    24A     -0.320472
      25A     -0.319169

  @DF-RHF Final Energy:  -403.77603034142555

   => Energetics <=

    Nuclear Repulsion Energy =            185.5020870327365401
    One-Electron Energy =                -939.2942751876570355
    Two-Electron Energy =                 350.0161578134949423
    Total Energy =                       -403.7760303414255532
 Dipole X            :         40.9719392          -40.7168403            0.2550989
 Dipole Y            :        -26.3706793           24.8281535           -1.5425259
 Dipole Z            :         -5.6177378            5.3787086           -0.2390293
 Magnitude           :                                                    1.5816436
  Basis Set: (AUG-CC-PVTZ AUX)
    Blend: AUG-CC-PVTZ-RI
	 Reference Energy          =    -403.7760303414255532 [Eh]
	 Singles Energy            =      -0.0000000000000000 [Eh]
	 Same-Spin Energy          =      -0.3637722957834404 [Eh]
	 Opposite-Spin Energy      =      -1.1006061999691574 [Eh]
	 Correlation Energy        =      -1.4643784957525978 [Eh]
	 Total Energy              =    -405.2404088371781654 [Eh]

	 ================> DF-SCS-MP2 Energies <==================
	-----------------------------------------------------------
	 SCS Same-Spin Scale       =       0.3333333333333333 [-]
	 SCS Opposite-Spin Scale   =       1.2000000000000000 [-]
	 SCS Same-Spin Energy      =      -0.1212574319278135 [Eh]
	 SCS Opposite-Spin Energy  =      -1.3207274399629889 [Eh]
	 SCS Correlation Energy    =      -1.4419848718908024 [Eh]
	 SCS Total Energy          =    -405.2180152133163347 [Eh]
	-----------------------------------------------------------

*** Psi4 exiting successfully. Buy a developer a beer!
