                               Psi4 1.8.2 release

  ==> Input File <==

--------------------------------------------------------------------------
MEMORY 60 GB

molecule dimer {
0 1
Gh(F)      0.000000     0.000000     0.000000
O         -2.059057     0.556806    -1.512511
H         -1.631697     0.750314    -2.355200
H         -1.337052     0.357530    -0.924989
Gh(O)     -1.092632     0.531104     2.514755
Gh(H)     -0.595685     0.472327     1.701018
Gh(H)     -0.807881     1.360419     2.908593
Gh(O)      1.853987     2.045109    -0.296217
Gh(H)      1.205149     1.477398     0.090440
Gh(H)      1.333577     2.420067    -1.019413

units ang
no_reorient
no_com
symmetry c1
}

set {
basis        aug-cc-pVTZ
scf_type     df
}

energy("mp2")
--------------------------------------------------------------------------

    Molecular point group: c1

    Geometry (in Angstrom), charge = 0, multiplicity = 1:

       Center              X                  Y                   Z               Mass
    ------------   -----------------  -----------------  -----------------  -----------------
      Gh(F)           0.000000000000     0.000000000000     0.000000000000    18.998403162730
         O           -2.059057000000     0.556806000000    -1.512511000000    15.994914619570
         H           -1.631697000000     0.750314000000    -2.355200000000     1.007825032230
         H           -1.337052000000     0.357530000000    -0.924989000000     1.007825032230
      Gh(O)          -1.092632000000     0.531104000000     2.514755000000    15.994914619570
      Gh(H)          -0.595685000000     0.472327000000     1.701018000000     1.007825032230
      Gh(H)          -0.807881000000     1.360419000000     2.908593000000     1.007825032230
      Gh(O)           1.853987000000     2.045109000000    -0.296217000000    15.994914619570
      Gh(H)           1.205149000000     1.477398000000     0.090440000000     1.007825032230
      Gh(H)           1.333577000000     2.420067000000    -1.019413000000     1.007825032230

  Charge       = 0
  Multiplicity = 1
  Basis Set: AUG-CC-PVTZ
    Blend: AUG-CC-PVTZ
  Basis Set: (AUG-CC-PVTZ AUX)
    Blend: AUG-CC-PVTZ-JKFIT

    Orbital Energies [Eh]
    ---------------------

    Doubly Occupied:

       1A    -20.567472     2A     -1.353333     3A     -0.716669
       4A     -0.585339     5A     -0.510359

  @DF-RHF Final Energy:   -76.06050663678693

   => Energetics <=

    Nuclear Repulsion Energy =              9.1864732523332311
    One-Electron Energy =                -123.0276125893539927
    Two-Electron Energy =                  37.7806327002338378
    Total Energy =                        -76.0605066367869256
 Dipole X            :         37.5029367          -36.7385530            0.7643837
 Dipole Y            :        -10.5158661           10.5112085           -0.0046576
 Dipole Z            :         28.8971512          -29.0645113           -0.1673600
 Magnitude           :                                                    0.7825046
  Basis Set: (AUG-CC-PVTZ AUX)
    Blend: AUG-CC-PVTZ-RI
	 Reference Energy          =     -76.0605066367869256 [Eh]
	 Singles Energy            =      -0.0000000000000000 [Eh]
	 Same-Spin Energy          =      -0.0684170011399850 [Eh]
	 Opposite-Spin Energy      =      -0.2160351781766398 [Eh]
	 Correlation Energy        =      -0.2844521793166248 [Eh]
	 Total Energy              =     -76.3449588161035564 [Eh]

	 ================> DF-SCS-MP2 Energies <==================
	-----------------------------------------------------------
	 SCS Same-Spin Scale       =       0.3333333333333333 [-]
	 SCS Opposite-Spin Scale   =       1.2000000000000000 [-]
	 SCS Same-Spin Energy      =      -0.0228056670466617 [Eh]
	 SCS Opposite-Spin Energy  =      -0.2592422138119677 [Eh]
	 SCS Correlation Energy    =      -0.2820478808586294 [Eh]
	 SCS Total Energy          =     -76.3425545176455529 [Eh]
	-----------------------------------------------------------

*** Psi4 exiting successfully. Buy a developer a beer!
