                               Psi4 1.8.2 release

  ==> Input File <==

--------------------------------------------------------------------------
MEMORY 60 GB

molecule dimer {
-1 1
F          0.000000     0.000000     0.000000
Gh(O)      1.999981     1.872363    -0.549390
Gh(H)      1.832241     2.798537    -0.384091
Gh(H)      1.190518     1.366946    -0.536042
Gh(O)     -0.732147    -0.508733    -2.638181
Gh(H)     -0.559848    -0.335039    -1.688412
Gh(H)     -1.560312    -0.049892    -2.825446
Gh(O)     -1.396072     2.119528     1.247335
Gh(H)     -0.668981     2.736259     1.112284
Gh(H)     -0.986667     1.275496     1.030001
Gh(O)      0.539337    -2.569316     0.762966
Gh(H)      0.351918    -1.701170     0.380121
Gh(H)      0.432027    -3.158462     0.035461
Gh(O)      2.295897     0.161463     1.842537
Gh(H)      1.406911     0.065818     2.189690
Gh(H)      2.212168     0.621719     0.983706
Gh(O)     -2.515644    -1.246307     0.318199
Gh(H)     -2.419320    -2.143283    -0.096705
Gh(H)     -1.667771    -0.781486     0.321701

units ang
no_reorient
no_com
symmetry c1
}

set {
basis        aug-cc-pVTZ
scf_type     df
}

energy("mp2")
--------------------------------------------------------------------------

    Molecular point group: c1

    Geometry (in Angstrom), charge = -1, multiplicity = 1:

       Center              X                  Y                   Z               Mass
    ------------   -----------------  -----------------  -----------------  -----------------
         F            0.000000000000     0.000000000000     0.000000000000    18.998403162730
      Gh(O)           1.999981000000     1.872363000000    -0.549390000000    15.994914619570
      Gh(H)           1.832241000000     2.798537000000    -0.384091000000     1.007825032230
      Gh(H)           1.190518000000     1.366946000000    -0.536042000000     1.007825032230
      Gh(O)          -0.732147000000    -0.508733000000    -2.638181000000    15.994914619570
      Gh(H)          -0.559848000000    -0.335039000000    -1.688412000000     1.007825032230
      Gh(H)          -1.560312000000    -0.049892000000    -2.825446000000     1.007825032230
      Gh(O)          -1.396072000000     2.119528000000     1.247335000000    15.994914619570
      Gh(H)          -0.668981000000     2.736259000000     1.112284000000     1.007825032230
      Gh(H)          -0.986667000000     1.275496000000     1.030001000000     1.007825032230
      Gh(O)           0.539337000000    -2.569316000000     0.762966000000    15.994914619570
      Gh(H)           0.351918000000    -1.701170000000     0.380121000000     1.007825032230
      Gh(H)           0.432027000000    -3.158462000000     0.035461000000     1.007825032230
      Gh(O)           2.295897000000     0.161463000000     1.842537000000    15.994914619570
      Gh(H)           1.406911000000     0.065818000000     2.189690000000     1.007825032230
      Gh(H)           2.212168000000     0.621719000000     0.983706000000     1.007825032230
      Gh(O)          -2.515644000000    -1.246307000000     0.318199000000    15.994914619570
      Gh(H)          -2.419320000000    -2.143283000000    -0.096705000000     1.007825032230
      Gh(H)          -1.667771000000    -0.781486000000     0.321701000000     1.007825032230

  Charge       = -1
  Multiplicity = 1
  Basis Set: AUG-CC-PVTZ
    Blend: AUG-CC-PVTZ
  Basis Set: (AUG-CC-PVTZ AUX)
    Blend: AUG-CC-PVTZ-JKFIT

    Orbital Energies [Eh]
    ---------------------

    Doubly Occupied:

       1A    -25.833523     2A     -1.075868     3A     -0.180918
       4A     -0.180889     5A     -0.180881

  @DF-RHF Final Energy:   -99.45114390803221

   => Energetics <=

    Nuclear Repulsion Energy =              0.0000000000000000
    One-Electron Energy =                -143.9981246267309416
    Two-Electron Energy =                  44.5469807186987339
    Total Energy =                        -99.4511439080322077
 Dipole X            :         -0.0000958            0.0000000           -0.0000958
 Dipole Y            :         -0.0000548            0.0000000           -0.0000548
 Dipole Z            :         -0.0000556            0.0000000           -0.0000556
 Magnitude           :                                                    0.0001236
  Basis Set: (AUG-CC-PVTZ AUX)
    Blend: AUG-CC-PVTZ-RI
	 Reference Energy          =     -99.4511439080322077 [Eh]
	 Singles Energy            =      -0.0000000000000000 [Eh]
	 Same-Spin Energy          =      -0.0820844784590566 [Eh]
	 Opposite-Spin Energy      =      -0.2303309241222016 [Eh]
	 Correlation Energy        =      -0.3124154025812583 [Eh]
	 Total Energy              =     -99.7635593106134593 [Eh]

	 ================> DF-SCS-MP2 Energies <==================
	-----------------------------------------------------------
	 SCS Same-Spin Scale       =       0.3333333333333333 [-]
	 SCS Opposite-Spin Scale   =       1.2000000000000000 [-]
	 SCS Same-Spin Energy      =      -0.0273614928196855 [Eh]
	 SCS Opposite-Spin Energy  =      -0.2763971089466419 [Eh]
	 SCS Correlation Energy    =      -0.3037586017663275 [Eh]
	 SCS Total Energy          =     -99.7549025097985407 [Eh]
	-----------------------------------------------------------

*** Psi4 exiting successfully. Buy a developer a beer!
