                               Psi4 1.8.2 release

  ==> Input File <==

--------------------------------------------------------------------------
MEMORY 60 GB

molecule dimer {
0 1
Gh(F)      0.000000     0.000000     0.000000
O          0.544622     1.947141    -1.930994
H         -0.303699     2.411400    -1.706903
H          0.604706     1.172877    -1.303359
Gh(O)     -2.128467     0.389057     1.730632
Gh(H)     -1.379894     0.192361     1.173874
Gh(H)     -1.919456     0.067224     2.612103
Gh(O)     -0.085529    -2.704846    -1.508295
Gh(H)     -0.656689    -3.406752    -1.099236
Gh(H)     -0.267173    -1.961465    -0.940136
Gh(O)      1.549814     1.756379     1.450147
Gh(H)      1.046493     1.052841     1.074196
Gh(H)      1.497360     2.437675     0.800406
Gh(O)     -2.175092    -0.185080    -1.433318
Gh(H)     -2.620425     0.653858    -1.755423
Gh(H)     -1.332482     0.046421    -1.015543

units ang
no_reorient
no_com
symmetry c1
}

set {
basis        aug-cc-pVTZ
scf_type     df
}

energy("mp2")
--------------------------------------------------------------------------

    Molecular point group: c1

    Geometry (in Angstrom), charge = 0, multiplicity = 1:

       Center              X                  Y                   Z               Mass
    ------------   -----------------  -----------------  -----------------  -----------------
      Gh(F)           0.000000000000     0.000000000000     0.000000000000    18.998403162730
         O            0.544622000000     1.947141000000    -1.930994000000    15.994914619570
         H           -0.303699000000     2.411400000000    -1.706903000000     1.007825032230
         H            0.604706000000     1.172877000000    -1.303359000000     1.007825032230
      Gh(O)          -2.128467000000     0.389057000000     1.730632000000    15.994914619570
      Gh(H)          -1.379894000000     0.192361000000     1.173874000000     1.007825032230
      Gh(H)          -1.919456000000     0.067224000000     2.612103000000     1.007825032230
      Gh(O)          -0.085529000000    -2.704846000000    -1.508295000000    15.994914619570
      Gh(H)          -0.656689000000    -3.406752000000    -1.099236000000     1.007825032230
      Gh(H)          -0.267173000000    -1.961465000000    -0.940136000000     1.007825032230
      Gh(O)           1.549814000000     1.756379000000     1.450147000000    15.994914619570
      Gh(H)           1.046493000000     1.052841000000     1.074196000000     1.007825032230
      Gh(H)           1.497360000000     2.437675000000     0.800406000000     1.007825032230
      Gh(O)          -2.175092000000    -0.185080000000    -1.433318000000    15.994914619570
      Gh(H)          -2.620425000000     0.653858000000    -1.755423000000     1.007825032230
      Gh(H)          -1.332482000000     0.046421000000    -1.015543000000     1.007825032230

  Charge       = 0
  Multiplicity = 1
  Basis Set: AUG-CC-PVTZ
    Blend: AUG-CC-PVTZ
  Basis Set: (AUG-CC-PVTZ AUX)
    Blend: AUG-CC-PVTZ-JKFIT

    Orbital Energies [Eh]
    ---------------------

    Doubly Occupied:

       1A    -20.573076     2A     -1.333750     3A     -0.699524
       4A     -0.575046     5A     -0.506911

  @DF-RHF Final Energy:   -76.05547409382832

   => Energetics <=

    Nuclear Repulsion Energy =              8.8376179838829074
    One-Electron Energy =                -122.4095655914307486
    Two-Electron Energy =                  37.5164735137195251
    Total Energy =                        -76.0554740938283089
 Dipole X            :         -9.3164549            8.8023122           -0.5141428
 Dipole Y            :        -36.4113824           36.2098076           -0.2015748
 Dipole Z            :         35.4361173          -34.8809692            0.5551480
 Magnitude           :                                                    0.7830482
  Basis Set: (AUG-CC-PVTZ AUX)
    Blend: AUG-CC-PVTZ-RI
	 Reference Energy          =     -76.0554740938283231 [Eh]
	 Singles Energy            =      -0.0000000000000000 [Eh]
	 Same-Spin Energy          =      -0.0690513500510472 [Eh]
	 Opposite-Spin Energy      =      -0.2180403549553763 [Eh]
	 Correlation Energy        =      -0.2870917050064234 [Eh]
	 Total Energy              =     -76.3425657988347410 [Eh]

	 ================> DF-SCS-MP2 Energies <==================
	-----------------------------------------------------------
	 SCS Same-Spin Scale       =       0.3333333333333333 [-]
	 SCS Opposite-Spin Scale   =       1.2000000000000000 [-]
	 SCS Same-Spin Energy      =      -0.0230171166836824 [Eh]
	 SCS Opposite-Spin Energy  =      -0.2616484259464515 [Eh]
	 SCS Correlation Energy    =      -0.2846655426301339 [Eh]
	 SCS Total Energy          =     -76.3401396364584599 [Eh]
	-----------------------------------------------------------

*** Psi4 exiting successfully. Buy a developer a beer!
