                               Psi4 1.9 release

  ==> Input File <==

--------------------------------------------------------------------------
MEMORY 60 GB

molecule dimer {
-1 1
F      0.000000     0.000000     0.000000
--
0 1
O      0.588473    -0.884411    -2.532590
H      0.570163    -0.750592    -1.554364
H      0.212599    -1.767260    -2.854982
O      1.249696     2.505029    -0.435608
H      0.855008     1.572903    -0.277964
H      2.124949     2.543701     0.017355
O     -2.575407    -0.483611     0.341632
H     -3.023020    -0.104900    -0.406895
H     -1.638645    -0.352131     0.088858
O      0.581612     0.878877     2.831679
H      0.628358     0.650704     1.918655
H      1.486052     1.034802     3.119274
O     -0.124634    -2.755181     0.993578
H     -0.046177    -1.822951     0.906365
H      0.293841    -3.171635     0.264619

units ang
no_reorient
no_com
symmetry c1
}

set {
basis        aug-cc-pVTZ
scf_type     df
}

energy("mp2", bsse_type="cp")
--------------------------------------------------------------------------

                               Psi4 1.9 release
    Molecular point group: c1
  Charge       = 0
  Multiplicity = 1
  Basis Set: AUG-CC-PVTZ
    Blend: AUG-CC-PVTZ
  Basis Set: (AUG-CC-PVTZ AUX)
    Blend: AUG-CC-PVTZ-JKFIT
  @DF-RHF Final Energy:  -380.26675809959653
    Total Energy =                       -380.2667580995965295
 Dipole X            :          2.7267887           -1.4720059            1.2547828
 Dipole Y            :         14.8509190          -15.2722658           -0.4213468
 Dipole Z            :        -21.2083543           20.4287879           -0.7795664
 Magnitude           :                                                    1.5361434
  Basis Set: (AUG-CC-PVTZ AUX)
    Blend: AUG-CC-PVTZ-RI
	 Reference Energy          =    -380.2667580995965295 [Eh]
	 Singles Energy            =      -0.0000000000000000 [Eh]
	 Same-Spin Energy          =      -0.3450106528225878 [Eh]
	 Opposite-Spin Energy      =      -1.0860689902030591 [Eh]
	 Correlation Energy        =      -1.4310796430256469 [Eh]
	 Total Energy              =    -381.6978377426221982 [Eh]
	 SCS Total Energy          =    -381.6850444387810626 [Eh]
                               Psi4 1.9 release
    Molecular point group: c1
  Multiplicity = 1
  Basis Set: AUG-CC-PVTZ
    Blend: AUG-CC-PVTZ
  Basis Set: (AUG-CC-PVTZ AUX)
    Blend: AUG-CC-PVTZ-JKFIT
  @DF-RHF Final Energy:   -99.45111197356927
    Total Energy =                        -99.4511119735692688
  Basis Set: (AUG-CC-PVTZ AUX)
	 Singles Energy            =      -0.0000000000000000 [Eh]
	 Same-Spin Energy          =      -0.0820398641583334 [Eh]
	 Opposite-Spin Energy      =      -0.2300464634794215 [Eh]
	 Correlation Energy        =      -0.3120863276377550 [Eh]
	 Total Energy              =     -99.7631983012070265 [Eh]
	 SCS Total Energy          =     -99.7545143511306804 [Eh]
                               Psi4 1.9 release
    Molecular point group: c1

    Geometry (in Bohr), charge = -1, multiplicity = 1:

       Center              X                  Y                   Z               Mass
    ------------   -----------------  -----------------  -----------------  -----------------
         F            0.000000000000     0.000000000000     0.000000000000    18.998403162730
         O            1.112052802227    -1.671294572342    -4.785901488073    15.994914619570
         H            1.077451916869    -1.418413311960    -2.937322259271     1.007825032230
         H            0.401753884546    -3.339637392477    -5.395134073112     1.007825032230
         O            2.361583180080     4.733818746329    -0.823179818058    15.994914619570
         H            1.615730955075     2.972355891911    -0.525275832737     1.007825032230
         H            4.015571640565     4.806898235053     0.032796196907     1.007825032230
         O           -4.866813891587    -0.913892341259     0.645590915692    15.994914619570
         H           -5.712679871782    -0.198232270561    -0.768920111818     1.007825032230
         H           -3.096590266851    -0.665431150284     0.167917284056     1.007825032230
         O            1.099087391280     1.660836827964     5.351097785210    15.994914619570
         H            1.187424528740     1.229652348740     3.625732479240     1.007825032230
         H            2.808231288189     1.955492374076     5.894573570261     1.007825032230
         O           -0.235524125920    -5.206537516065     1.877590304280    15.994914619570
         H           -0.087261883295    -3.444878130129     1.712781619701     1.007825032230
         H            0.555279014431    -5.993521519916     0.500057437593     1.007825032230

  Charge       = -1
  Multiplicity = 1
  Basis Set: AUG-CC-PVTZ
    Blend: AUG-CC-PVTZ
  Basis Set: (AUG-CC-PVTZ AUX)
    Blend: AUG-CC-PVTZ-JKFIT

    Orbital Energies [Eh]
    ---------------------

    Doubly Occupied:

       1A    -25.996542     2A    -20.417799     3A    -20.410026
       4A    -20.406176     5A    -20.404312     6A    -20.379600
       7A     -1.263718     8A     -1.208383     9A     -1.204210
      10A     -1.170314    11A     -1.167593    12A     -1.165345
      13A     -0.584359    14A     -0.578688    15A     -0.560919
      16A     -0.541169    17A     -0.529250    18A     -0.439786
      19A     -0.431830    20A     -0.421535    21A     -0.412511
      22A     -0.408789    23A     -0.365583    24A     -0.360008
      25A     -0.357646    26A     -0.351641    27A     -0.345509
      28A     -0.341331    29A     -0.340186    30A     -0.324701

  @DF-RHF Final Energy:  -479.84757604142771

   => Energetics <=

    Nuclear Repulsion Energy =            258.3207103889413361
    One-Electron Energy =               -1190.5576409095256167
    Two-Electron Energy =                 452.3893544791566228
    Total Energy =                       -479.8475760414277147
 Dipole X            :          2.7931324           -1.4720059            1.3211264
 Dipole Y            :         14.9230137          -15.2722658           -0.3492521
 Dipole Z            :        -21.1474014           20.4287879           -0.7186135
 Magnitude           :                                                    1.5439422
  Basis Set: (AUG-CC-PVTZ AUX)
    Blend: AUG-CC-PVTZ-RI
	 Reference Energy          =    -479.8475760414277147 [Eh]
	 Singles Energy            =      -0.0000000000000000 [Eh]
	 Same-Spin Energy          =      -0.4324418763373740 [Eh]
	 Opposite-Spin Energy      =      -1.3154115905237109 [Eh]
	 Correlation Energy        =      -1.7478534668610850 [Eh]
	 Total Energy              =    -481.5954295082888166 [Eh]

	 ================> DF-SCS-MP2 Energies <==================
	-----------------------------------------------------------
	 SCS Same-Spin Scale       =       0.3333333333333333 [-]
	 SCS Opposite-Spin Scale   =       1.2000000000000000 [-]
	 SCS Same-Spin Energy      =      -0.1441472921124580 [Eh]
	 SCS Opposite-Spin Energy  =      -1.5784939086284531 [Eh]
	 SCS Correlation Energy    =      -1.7226412007409111 [Eh]
	 SCS Total Energy          =    -481.5702172421686100 [Eh]
	-----------------------------------------------------------

*** Psi4 exiting successfully. Buy a developer a beer!
