                               Psi4 1.8.2 release

  ==> Input File <==

--------------------------------------------------------------------------
MEMORY 60 GB

molecule dimer {
0 1
Gh(F)      0.000000     0.000000     0.000000
O          0.680826    -0.939261    -2.565720
H          0.776711    -0.509976    -1.665094
H          1.177620    -0.426589    -3.141786
Gh(O)      2.494322     1.215623     0.856945
Gh(H)      3.185249     1.015423     1.522625
Gh(H)      1.828253     0.531859     0.918648
Gh(O)      0.310218    -2.799566     0.371117
Gh(H)      0.088505    -1.923298     0.173876
Gh(H)      0.230665    -3.288922    -0.432281
Gh(O)     -1.077882     0.253175     2.550768
Gh(H)     -0.802564     0.336791     1.574496
Gh(H)     -0.449028    -0.396209     2.897838
Gh(O)     -0.031927     3.083942    -0.157883
Gh(H)      0.456398     3.797739    -0.602452
Gh(H)      0.246498     2.223721    -0.550204
Gh(O)     -2.743171    -0.297210    -0.425433
Gh(H)     -1.827612    -0.242352    -0.365725
Gh(H)     -3.147919     0.492464     0.012583

units ang
no_reorient
no_com
symmetry c1
}

set {
basis        aug-cc-pVTZ
scf_type     df
}

energy("mp2")
--------------------------------------------------------------------------

    Molecular point group: c1

    Geometry (in Angstrom), charge = 0, multiplicity = 1:

       Center              X                  Y                   Z               Mass
    ------------   -----------------  -----------------  -----------------  -----------------
      Gh(F)           0.000000000000     0.000000000000     0.000000000000    18.998403162730
         O            0.680826000000    -0.939261000000    -2.565720000000    15.994914619570
         H            0.776711000000    -0.509976000000    -1.665094000000     1.007825032230
         H            1.177620000000    -0.426589000000    -3.141786000000     1.007825032230
      Gh(O)           2.494322000000     1.215623000000     0.856945000000    15.994914619570
      Gh(H)           3.185249000000     1.015423000000     1.522625000000     1.007825032230
      Gh(H)           1.828253000000     0.531859000000     0.918648000000     1.007825032230
      Gh(O)           0.310218000000    -2.799566000000     0.371117000000    15.994914619570
      Gh(H)           0.088505000000    -1.923298000000     0.173876000000     1.007825032230
      Gh(H)           0.230665000000    -3.288922000000    -0.432281000000     1.007825032230
      Gh(O)          -1.077882000000     0.253175000000     2.550768000000    15.994914619570
      Gh(H)          -0.802564000000     0.336791000000     1.574496000000     1.007825032230
      Gh(H)          -0.449028000000    -0.396209000000     2.897838000000     1.007825032230
      Gh(O)          -0.031927000000     3.083942000000    -0.157883000000    15.994914619570
      Gh(H)           0.456398000000     3.797739000000    -0.602452000000     1.007825032230
      Gh(H)           0.246498000000     2.223721000000    -0.550204000000     1.007825032230
      Gh(O)          -2.743171000000    -0.297210000000    -0.425433000000    15.994914619570
      Gh(H)          -1.827612000000    -0.242352000000    -0.365725000000     1.007825032230
      Gh(H)          -3.147919000000     0.492464000000     0.012583000000     1.007825032230

  Charge       = 0
  Multiplicity = 1
  Basis Set: AUG-CC-PVTZ
    Blend: AUG-CC-PVTZ
  Basis Set: (AUG-CC-PVTZ AUX)
    Blend: AUG-CC-PVTZ-JKFIT

    Orbital Energies [Eh]
    ---------------------

    Doubly Occupied:

       1A    -20.566570     2A     -1.353001     3A     -0.719487
       4A     -0.581181     5A     -0.509871

  @DF-RHF Final Energy:   -76.05694928034202

   => Energetics <=

    Nuclear Repulsion Energy =              9.1839713604675950
    One-Electron Energy =                -123.0216150188365987
    Two-Electron Energy =                  37.7806943780269791
    Total Energy =                        -76.0569492803420246
 Dipole X            :        -13.5860459           13.9857478            0.3997019
 Dipole Y            :         16.5990642          -15.9694198            0.6296444
 Dipole Z            :         48.0750810          -47.8717516            0.2033293
 Magnitude           :                                                    0.7730178
  Basis Set: (AUG-CC-PVTZ AUX)
    Blend: AUG-CC-PVTZ-RI
	 Reference Energy          =     -76.0569492803420246 [Eh]
	 Singles Energy            =      -0.0000000000000000 [Eh]
	 Same-Spin Energy          =      -0.0684009712241324 [Eh]
	 Opposite-Spin Energy      =      -0.2159220949471047 [Eh]
	 Correlation Energy        =      -0.2843230661712370 [Eh]
	 Total Energy              =     -76.3412723465132643 [Eh]

	 ================> DF-SCS-MP2 Energies <==================
	-----------------------------------------------------------
	 SCS Same-Spin Scale       =       0.3333333333333333 [-]
	 SCS Opposite-Spin Scale   =       1.2000000000000000 [-]
	 SCS Same-Spin Energy      =      -0.0228003237413775 [Eh]
	 SCS Opposite-Spin Energy  =      -0.2591065139365256 [Eh]
	 SCS Correlation Energy    =      -0.2819068376779030 [Eh]
	 SCS Total Energy          =     -76.3388561180199332 [Eh]
	-----------------------------------------------------------

*** Psi4 exiting successfully. Buy a developer a beer!
