                               Psi4 1.8.2 release

  ==> Input File <==

--------------------------------------------------------------------------
MEMORY 60 GB

molecule dimer {
0 1
Gh(F)      0.000000     0.000000     0.000000
Gh(O)      0.020616    -2.622130    -0.705666
Gh(H)      0.176062    -1.700924    -0.426870
Gh(H)      0.795461    -2.839266    -1.297010
Gh(O)     -2.870261    -0.000471     0.338715
Gh(H)     -2.996147     0.666526     1.009785
Gh(H)     -1.893125    -0.105935     0.214458
Gh(O)     -0.001472     2.687410     0.723673
Gh(H)      0.881290     2.822564     0.332212
Gh(H)     -0.142487     1.752329     0.774552
Gh(O)      2.136094    -0.056435     1.706865
Gh(H)      1.433639    -0.096855     0.999761
Gh(H)      1.859747     0.765500     2.240514
O         -1.199236     1.217659    -2.416045
H         -0.472625     1.733742    -2.621158
H         -0.898635     0.774842    -1.566927

units ang
no_reorient
no_com
symmetry c1
}

set {
basis        aug-cc-pVTZ
scf_type     df
}

energy("mp2")
--------------------------------------------------------------------------

    Molecular point group: c1

    Geometry (in Angstrom), charge = 0, multiplicity = 1:

       Center              X                  Y                   Z               Mass
    ------------   -----------------  -----------------  -----------------  -----------------
      Gh(F)           0.000000000000     0.000000000000     0.000000000000    18.998403162730
      Gh(O)           0.020616000000    -2.622130000000    -0.705666000000    15.994914619570
      Gh(H)           0.176062000000    -1.700924000000    -0.426870000000     1.007825032230
      Gh(H)           0.795461000000    -2.839266000000    -1.297010000000     1.007825032230
      Gh(O)          -2.870261000000    -0.000471000000     0.338715000000    15.994914619570
      Gh(H)          -2.996147000000     0.666526000000     1.009785000000     1.007825032230
      Gh(H)          -1.893125000000    -0.105935000000     0.214458000000     1.007825032230
      Gh(O)          -0.001472000000     2.687410000000     0.723673000000    15.994914619570
      Gh(H)           0.881290000000     2.822564000000     0.332212000000     1.007825032230
      Gh(H)          -0.142487000000     1.752329000000     0.774552000000     1.007825032230
      Gh(O)           2.136094000000    -0.056435000000     1.706865000000    15.994914619570
      Gh(H)           1.433639000000    -0.096855000000     0.999761000000     1.007825032230
      Gh(H)           1.859747000000     0.765500000000     2.240514000000     1.007825032230
         O           -1.199236000000     1.217659000000    -2.416045000000    15.994914619570
         H           -0.472625000000     1.733742000000    -2.621158000000     1.007825032230
         H           -0.898635000000     0.774842000000    -1.566927000000     1.007825032230

  Charge       = 0
  Multiplicity = 1
  Basis Set: AUG-CC-PVTZ
    Blend: AUG-CC-PVTZ
  Basis Set: (AUG-CC-PVTZ AUX)
    Blend: AUG-CC-PVTZ-JKFIT

    Orbital Energies [Eh]
    ---------------------

    Doubly Occupied:

       1A    -20.568289     2A     -1.356630     3A     -0.711706
       4A     -0.589515     5A     -0.511202

  @DF-RHF Final Energy:   -76.05617535460041

   => Energetics <=

    Nuclear Repulsion Energy =              9.2025413674401904
    One-Electron Energy =                -123.0427487269009958
    Two-Electron Energy =                  37.7840320048603786
    Total Energy =                        -76.0561753546004269
 Dipole X            :         21.4035942          -20.7211266            0.6824675
 Dipole Y            :        -23.0899354           23.1488729            0.0589375
 Dipole Z            :         44.8529123          -44.4396405            0.4132718
 Magnitude           :                                                    0.8000182
  Basis Set: (AUG-CC-PVTZ AUX)
    Blend: AUG-CC-PVTZ-RI
	 Reference Energy          =     -76.0561753546004127 [Eh]
	 Singles Energy            =      -0.0000000000000000 [Eh]
	 Same-Spin Energy          =      -0.0684697102205052 [Eh]
	 Opposite-Spin Energy      =      -0.2163075851971843 [Eh]
	 Correlation Energy        =      -0.2847772954176895 [Eh]
	 Total Energy              =     -76.3409526500180959 [Eh]

	 ================> DF-SCS-MP2 Energies <==================
	-----------------------------------------------------------
	 SCS Same-Spin Scale       =       0.3333333333333333 [-]
	 SCS Opposite-Spin Scale   =       1.2000000000000000 [-]
	 SCS Same-Spin Energy      =      -0.0228232367401684 [Eh]
	 SCS Opposite-Spin Energy  =      -0.2595691022366212 [Eh]
	 SCS Correlation Energy    =      -0.2823923389767896 [Eh]
	 SCS Total Energy          =     -76.3385676935772040 [Eh]
	-----------------------------------------------------------

*** Psi4 exiting successfully. Buy a developer a beer!
