                               Psi4 1.8.2 release

  ==> Input File <==

--------------------------------------------------------------------------
MEMORY 60 GB

molecule dimer {
-1 1
F          0.000000     0.000000     0.000000
O          1.915295    -0.763106     1.924441
H          1.286691    -0.531055     1.264235
H          2.662839    -0.169891     1.770863
O         -1.830911     1.362948     1.404744
H         -2.414198     1.461222     0.672062
H         -1.183612     0.808558     0.986977
O          1.145913     2.301825    -0.946882
H          0.849368     1.425256    -0.632387
H          0.889211     3.015024    -0.341450
O         -0.440059    -0.165284    -2.578451
H         -1.173902     0.512427    -2.648391
H         -0.268164    -0.280289    -1.637521

units ang
no_reorient
no_com
symmetry c1
}

set {
basis        aug-cc-pVTZ
scf_type     df
}

energy("mp2")
--------------------------------------------------------------------------

    Molecular point group: c1

    Geometry (in Angstrom), charge = -1, multiplicity = 1:

       Center              X                  Y                   Z               Mass
    ------------   -----------------  -----------------  -----------------  -----------------
         F            0.000000000000     0.000000000000     0.000000000000    18.998403162730
         O            1.915295000000    -0.763106000000     1.924441000000    15.994914619570
         H            1.286691000000    -0.531055000000     1.264235000000     1.007825032230
         H            2.662839000000    -0.169891000000     1.770863000000     1.007825032230
         O           -1.830911000000     1.362948000000     1.404744000000    15.994914619570
         H           -2.414198000000     1.461222000000     0.672062000000     1.007825032230
         H           -1.183612000000     0.808558000000     0.986977000000     1.007825032230
         O            1.145913000000     2.301825000000    -0.946882000000    15.994914619570
         H            0.849368000000     1.425256000000    -0.632387000000     1.007825032230
         H            0.889211000000     3.015024000000    -0.341450000000     1.007825032230
         O           -0.440059000000    -0.165284000000    -2.578451000000    15.994914619570
         H           -1.173902000000     0.512427000000    -2.648391000000     1.007825032230
         H           -0.268164000000    -0.280289000000    -1.637521000000     1.007825032230

  Charge       = -1
  Multiplicity = 1
  Basis Set: AUG-CC-PVTZ
    Blend: AUG-CC-PVTZ
  Basis Set: (AUG-CC-PVTZ AUX)
    Blend: AUG-CC-PVTZ-JKFIT

    Orbital Energies [Eh]
    ---------------------

    Doubly Occupied:

       1A    -25.983351     2A    -20.397655     3A    -20.391459
       4A    -20.389665     5A    -20.383702     6A     -1.254256
       7A     -1.192450     8A     -1.188756     9A     -1.167429
      10A     -1.157839    11A     -0.558166    12A     -0.554688
      13A     -0.545921    14A     -0.531729    15A     -0.440636
      16A     -0.428142    17A     -0.410284    18A     -0.407048
      19A     -0.349199    20A     -0.347299    21A     -0.340552
      22A     -0.340197    23A     -0.332856    24A     -0.330641
      25A     -0.322445

  @DF-RHF Final Energy:  -403.79327586058821

   => Energetics <=

    Nuclear Repulsion Energy =            188.1542860943457072
    One-Electron Energy =                -944.4023859971001684
    Two-Electron Energy =                 352.4548240421662513
    Total Energy =                       -403.7932758605882100
 Dipole X            :        -13.7891189           13.1716500           -0.6174690
 Dipole Y            :        -53.1462616           53.1623725            0.0161109
 Dipole Z            :          4.0541584           -4.0341798            0.0199786
 Magnitude           :                                                    0.6180021
  Basis Set: (AUG-CC-PVTZ AUX)
    Blend: AUG-CC-PVTZ-RI
	 Reference Energy          =    -403.7932758605882100 [Eh]
	 Singles Energy            =      -0.0000000000000000 [Eh]
	 Same-Spin Energy          =      -0.3621377953738373 [Eh]
	 Opposite-Spin Energy      =      -1.0961711211339114 [Eh]
	 Correlation Energy        =      -1.4583089165077487 [Eh]
	 Total Energy              =    -405.2515847770959567 [Eh]

	 ================> DF-SCS-MP2 Energies <==================
	-----------------------------------------------------------
	 SCS Same-Spin Scale       =       0.3333333333333333 [-]
	 SCS Opposite-Spin Scale   =       1.2000000000000000 [-]
	 SCS Same-Spin Energy      =      -0.1207125984579458 [Eh]
	 SCS Opposite-Spin Energy  =      -1.3154053453606935 [Eh]
	 SCS Correlation Energy    =      -1.4361179438186393 [Eh]
	 SCS Total Energy          =    -405.2293938044068682 [Eh]
	-----------------------------------------------------------

*** Psi4 exiting successfully. Buy a developer a beer!
