                               Psi4 1.9 release

  ==> Input File <==

--------------------------------------------------------------------------
MEMORY 60 GB

molecule dimer {
-1 1
F      0.000000     0.000000     0.000000
--
0 1
O      1.549726    -0.592173    -2.469497
H      2.491955    -0.304027    -2.354979
H      1.059966    -0.129118    -1.739114
O     -2.109158     0.552064     1.527417
H     -1.303685     0.262813     1.105559
H     -2.150940     1.467686     1.236099
O     -0.658953     2.609487    -0.786580
H     -0.277803     1.841298    -0.414688
H     -1.429545     2.816178    -0.200283
O      1.311910    -1.653315     1.534469
H      0.833433    -0.988070     1.037024
H      0.695205    -2.456602     1.463667
O     -1.617297    -0.996617    -2.102888
H     -1.802101    -0.062886    -2.375282
H     -1.153428    -0.952167    -1.276978

units ang
no_reorient
no_com
symmetry c1
}

set {
basis        aug-cc-pVTZ
scf_type     df
}

energy("mp2", bsse_type="cp")
--------------------------------------------------------------------------

                               Psi4 1.9 release
    Molecular point group: c1
  Charge       = 0
  Multiplicity = 1
  Basis Set: AUG-CC-PVTZ
    Blend: AUG-CC-PVTZ
  Basis Set: (AUG-CC-PVTZ AUX)
    Blend: AUG-CC-PVTZ-JKFIT
  @DF-RHF Final Energy:  -380.26885510955651
    Total Energy =                       -380.2688551095565117
 Dipole X            :         28.7809395          -28.7750846            0.0058549
 Dipole Y            :         -0.5714368            1.6075390            1.0361022
 Dipole Z            :         42.0134846          -41.3767006            0.6367840
 Magnitude           :                                                    1.2161562
  Basis Set: (AUG-CC-PVTZ AUX)
    Blend: AUG-CC-PVTZ-RI
	 Reference Energy          =    -380.2688551095565117 [Eh]
	 Singles Energy            =      -0.0000000000000000 [Eh]
	 Same-Spin Energy          =      -0.3461669497711399 [Eh]
	 Opposite-Spin Energy      =      -1.0889245108552736 [Eh]
	 Correlation Energy        =      -1.4350914606264136 [Eh]
	 Total Energy              =    -381.7039465701829499 [Eh]
	 SCS Total Energy          =    -381.6909535058399001 [Eh]
                               Psi4 1.9 release
    Molecular point group: c1
  Multiplicity = 1
  Basis Set: AUG-CC-PVTZ
    Blend: AUG-CC-PVTZ
  Basis Set: (AUG-CC-PVTZ AUX)
    Blend: AUG-CC-PVTZ-JKFIT
  @DF-RHF Final Energy:   -99.45112436463303
    Total Energy =                        -99.4511243646330314
  Basis Set: (AUG-CC-PVTZ AUX)
	 Singles Energy            =      -0.0000000000000000 [Eh]
	 Same-Spin Energy          =      -0.0820550183737873 [Eh]
	 Opposite-Spin Energy      =      -0.2301866443511878 [Eh]
	 Correlation Energy        =      -0.3122416627249751 [Eh]
	 Total Energy              =     -99.7633660273580034 [Eh]
	 SCS Total Energy          =     -99.7547000106457205 [Eh]
                               Psi4 1.9 release
    Molecular point group: c1

    Geometry (in Bohr), charge = -1, multiplicity = 1:

       Center              X                  Y                   Z               Mass
    ------------   -----------------  -----------------  -----------------  -----------------
         F            0.000000000000     0.000000000000     0.000000000000    18.998403162730
         O            2.928557709501    -1.119044788891    -4.666672997640    15.994914619570
         H            4.709112466965    -0.574527764745    -4.450265341205     1.007825032230
         H            2.003045442297    -0.243997657867    -3.286449160949     1.007825032230
         O           -3.985730975318     1.043249763725     2.886399809368    15.994914619570
         H           -2.463607603867     0.496644592210     2.089203725535     1.007825032230
         H           -4.064687512292     2.773524578169     2.335888573952     1.007825032230
         O           -1.245240699549     4.931215757943    -1.486420775763    15.994914619570
         H           -0.524971586831     3.479548935353    -0.783646747514     1.007825032230
         H           -2.701448534018     5.321805140540    -0.378480017585     1.007825032230
         O            2.479150601249    -3.124312549111     2.899726158005    15.994914619570
         H            1.574960113919    -1.867181692781     1.959691345527     1.007825032230
         H            1.313747051049    -4.642304979252     2.765929768870     1.007825032230
         O           -3.056248393525    -1.883333181975    -3.973882392512    15.994914619570
         H           -3.405477340414    -0.118837317126    -4.488632450730     1.007825032230
         H           -2.179663025435    -1.799334855699    -2.413138688235     1.007825032230

  Charge       = -1
  Multiplicity = 1
  Basis Set: AUG-CC-PVTZ
    Blend: AUG-CC-PVTZ
  Basis Set: (AUG-CC-PVTZ AUX)
    Blend: AUG-CC-PVTZ-JKFIT

    Orbital Energies [Eh]
    ---------------------

    Doubly Occupied:

       1A    -26.000508     2A    -20.427731     3A    -20.412938
       4A    -20.405205     5A    -20.396212     6A    -20.391567
       7A     -1.272297     8A     -1.213772     9A     -1.196553
      10A     -1.178879    11A     -1.176280    12A     -1.164146
      13A     -0.581970    14A     -0.559072    15A     -0.551282
      16A     -0.540647    17A     -0.531445    18A     -0.463463
      19A     -0.436708    20A     -0.426505    21A     -0.422714
      22A     -0.418570    23A     -0.375204    24A     -0.361776
      25A     -0.359973    26A     -0.351706    27A     -0.349316
      28A     -0.345206    29A     -0.339010    30A     -0.331754

  @DF-RHF Final Energy:  -479.85166830600343

   => Energetics <=

    Nuclear Repulsion Energy =            266.1201257467675418
    One-Electron Energy =               -1205.9787656065113879
    Two-Electron Energy =                 460.0069715537403567
    Total Energy =                       -479.8516683060034325
 Dipole X            :         29.0287036          -28.7750846            0.2536190
 Dipole Y            :         -0.5462982            1.6075390            1.0612408
 Dipole Z            :         42.0842288          -41.3767006            0.7075282
 Magnitude           :                                                    1.3004426
  Basis Set: (AUG-CC-PVTZ AUX)
    Blend: AUG-CC-PVTZ-RI
	 Reference Energy          =    -479.8516683060034325 [Eh]
	 Singles Energy            =      -0.0000000000000000 [Eh]
	 Same-Spin Energy          =      -0.4331359871964299 [Eh]
	 Opposite-Spin Energy      =      -1.3173536497557561 [Eh]
	 Correlation Energy        =      -1.7504896369521861 [Eh]
	 Total Energy              =    -481.6021579429556141 [Eh]

	 ================> DF-SCS-MP2 Energies <==================
	-----------------------------------------------------------
	 SCS Same-Spin Scale       =       0.3333333333333333 [-]
	 SCS Opposite-Spin Scale   =       1.2000000000000000 [-]
	 SCS Same-Spin Energy      =      -0.1443786623988099 [Eh]
	 SCS Opposite-Spin Energy  =      -1.5808243797069073 [Eh]
	 SCS Correlation Energy    =      -1.7252030421057172 [Eh]
	 SCS Total Energy          =    -481.5768713481091368 [Eh]
	-----------------------------------------------------------

*** Psi4 exiting successfully. Buy a developer a beer!
