                               Psi4 1.8.2 release

  ==> Input File <==

--------------------------------------------------------------------------
MEMORY 60 GB

molecule dimer {
-1 1
F          0.000000     0.000000     0.000000
O         -2.647376     0.914762    -0.251552
H         -2.724907     1.246258     0.668792
H         -1.768244     0.552287    -0.448575
O          2.344109     1.471480    -1.315863
H          1.702060     0.829127    -1.080552
H          2.928848     0.990581    -1.983538
O          1.924891     0.054648     2.110672
H          1.521140     0.173109     1.252029
H          2.506830     0.824676     2.291779
O         -0.223065     2.710378     0.273811
H         -0.031508     3.416476     0.904629
H         -0.086383     1.892438     0.681794
O         -1.121683    -0.546957     2.492271
H         -1.661749     0.254121     2.719544
H         -0.707769    -0.349569     1.681775
O         -0.451478    -2.737344    -0.648176
H         -0.144278    -1.898170    -0.285256
H         -0.265446    -3.396720     0.044521

units ang
no_reorient
no_com
symmetry c1
}

set {
basis        aug-cc-pVTZ
scf_type     df
}

energy("mp2")
--------------------------------------------------------------------------

    Molecular point group: c1

    Geometry (in Angstrom), charge = -1, multiplicity = 1:

       Center              X                  Y                   Z               Mass
    ------------   -----------------  -----------------  -----------------  -----------------
         F            0.000000000000     0.000000000000     0.000000000000    18.998403162730
         O           -2.647376000000     0.914762000000    -0.251552000000    15.994914619570
         H           -2.724907000000     1.246258000000     0.668792000000     1.007825032230
         H           -1.768244000000     0.552287000000    -0.448575000000     1.007825032230
         O            2.344109000000     1.471480000000    -1.315863000000    15.994914619570
         H            1.702060000000     0.829127000000    -1.080552000000     1.007825032230
         H            2.928848000000     0.990581000000    -1.983538000000     1.007825032230
         O            1.924891000000     0.054648000000     2.110672000000    15.994914619570
         H            1.521140000000     0.173109000000     1.252029000000     1.007825032230
         H            2.506830000000     0.824676000000     2.291779000000     1.007825032230
         O           -0.223065000000     2.710378000000     0.273811000000    15.994914619570
         H           -0.031508000000     3.416476000000     0.904629000000     1.007825032230
         H           -0.086383000000     1.892438000000     0.681794000000     1.007825032230
         O           -1.121683000000    -0.546957000000     2.492271000000    15.994914619570
         H           -1.661749000000     0.254121000000     2.719544000000     1.007825032230
         H           -0.707769000000    -0.349569000000     1.681775000000     1.007825032230
         O           -0.451478000000    -2.737344000000    -0.648176000000    15.994914619570
         H           -0.144278000000    -1.898170000000    -0.285256000000     1.007825032230
         H           -0.265446000000    -3.396720000000     0.044521000000     1.007825032230

  Charge       = -1
  Multiplicity = 1
  Basis Set: AUG-CC-PVTZ
    Blend: AUG-CC-PVTZ
  Basis Set: (AUG-CC-PVTZ AUX)
    Blend: AUG-CC-PVTZ-JKFIT

    Orbital Energies [Eh]
    ---------------------

    Doubly Occupied:

       1A    -25.989601     2A    -20.427571     3A    -20.415085
       4A    -20.410126     5A    -20.403717     6A    -20.400964
       7A    -20.387571     8A     -1.255978     9A     -1.206005
      10A     -1.204469    11A     -1.195274    12A     -1.187639
      13A     -1.183893    14A     -1.163294    15A     -0.586159
      16A     -0.573997    17A     -0.566974    18A     -0.557467
      19A     -0.551440    20A     -0.549433    21A     -0.444298
      22A     -0.433787    23A     -0.428759    24A     -0.425603
      25A     -0.424650    26A     -0.401663    27A     -0.369745
      28A     -0.365437    29A     -0.361116    30A     -0.353062
      31A     -0.346149    32A     -0.345588    33A     -0.342391
      34A     -0.339746    35A     -0.327433

  @DF-RHF Final Energy:  -555.90483981512182

   => Energetics <=

    Nuclear Repulsion Energy =            355.3914349910335773
    One-Electron Energy =               -1490.7403785773426534
    Two-Electron Energy =                 579.4441037711873150
    Total Energy =                       -555.9048398151218180
 Dipole X            :          1.4383874           -0.2423045            1.1960829
 Dipole Y            :        -36.3647549           36.7936291            0.4288742
 Dipole Z            :        -52.0951476           52.4139087            0.3187610
 Magnitude           :                                                    1.3100214
  Basis Set: (AUG-CC-PVTZ AUX)
    Blend: AUG-CC-PVTZ-RI
	 Reference Energy          =    -555.9048398151218180 [Eh]
	 Singles Energy            =      -0.0000000000000000 [Eh]
	 Same-Spin Energy          =      -0.5022311714651300 [Eh]
	 Opposite-Spin Energy      =      -1.5334449381003068 [Eh]
	 Correlation Energy        =      -2.0356761095654368 [Eh]
	 Total Energy              =    -557.9405159246872472 [Eh]

	 ================> DF-SCS-MP2 Energies <==================
	-----------------------------------------------------------
	 SCS Same-Spin Scale       =       0.3333333333333333 [-]
	 SCS Opposite-Spin Scale   =       1.2000000000000000 [-]
	 SCS Same-Spin Energy      =      -0.1674103904883766 [Eh]
	 SCS Opposite-Spin Energy  =      -1.8401339257203682 [Eh]
	 SCS Correlation Energy    =      -2.0075443162087447 [Eh]
	 SCS Total Energy          =    -557.9123841313305547 [Eh]
	-----------------------------------------------------------

*** Psi4 exiting successfully. Buy a developer a beer!
