                               Psi4 1.8.2 release

  ==> Input File <==

--------------------------------------------------------------------------
MEMORY 60 GB

molecule dimer {
0 1
Gh(F)      0.000000     0.000000     0.000000
Gh(O)     -0.918718    -1.531255    -2.236425
Gh(H)     -1.762517    -1.144066    -2.152129
Gh(H)     -0.451980    -0.957002    -1.606841
Gh(O)     -0.057855     2.757139     0.823387
Gh(H)     -0.153772     1.814368     0.834672
Gh(H)     -0.644771     3.064484     1.455290
O          1.183092     0.237041     2.441939
H          0.725475     0.249679     1.564024
H          0.548909    -0.085551     3.073061
Gh(O)      2.058890     1.227888    -1.022105
Gh(H)      2.856425     0.854090    -0.614010
Gh(H)      1.361978     0.734019    -0.723384
Gh(O)     -2.424987    -0.275944     1.596124
Gh(H)     -3.071738    -0.606061     1.013613
Gh(H)     -1.631010    -0.040803     1.039161
Gh(O)      1.888808    -2.378152     0.345578
Gh(H)      1.283712    -1.599836     0.235615
Gh(H)      1.406826    -3.176557     0.608323

units ang
no_reorient
no_com
symmetry c1
}

set {
basis        aug-cc-pVTZ
scf_type     df
}

energy("mp2")
--------------------------------------------------------------------------

    Molecular point group: c1

    Geometry (in Angstrom), charge = 0, multiplicity = 1:

       Center              X                  Y                   Z               Mass
    ------------   -----------------  -----------------  -----------------  -----------------
      Gh(F)           0.000000000000     0.000000000000     0.000000000000    18.998403162730
      Gh(O)          -0.918718000000    -1.531255000000    -2.236425000000    15.994914619570
      Gh(H)          -1.762517000000    -1.144066000000    -2.152129000000     1.007825032230
      Gh(H)          -0.451980000000    -0.957002000000    -1.606841000000     1.007825032230
      Gh(O)          -0.057855000000     2.757139000000     0.823387000000    15.994914619570
      Gh(H)          -0.153772000000     1.814368000000     0.834672000000     1.007825032230
      Gh(H)          -0.644771000000     3.064484000000     1.455290000000     1.007825032230
         O            1.183092000000     0.237041000000     2.441939000000    15.994914619570
         H            0.725475000000     0.249679000000     1.564024000000     1.007825032230
         H            0.548909000000    -0.085551000000     3.073061000000     1.007825032230
      Gh(O)           2.058890000000     1.227888000000    -1.022105000000    15.994914619570
      Gh(H)           2.856425000000     0.854090000000    -0.614010000000     1.007825032230
      Gh(H)           1.361978000000     0.734019000000    -0.723384000000     1.007825032230
      Gh(O)          -2.424987000000    -0.275944000000     1.596124000000    15.994914619570
      Gh(H)          -3.071738000000    -0.606061000000     1.013613000000     1.007825032230
      Gh(H)          -1.631010000000    -0.040803000000     1.039161000000     1.007825032230
      Gh(O)           1.888808000000    -2.378152000000     0.345578000000    15.994914619570
      Gh(H)           1.283712000000    -1.599836000000     0.235615000000     1.007825032230
      Gh(H)           1.406826000000    -3.176557000000     0.608323000000     1.007825032230

  Charge       = 0
  Multiplicity = 1
  Basis Set: AUG-CC-PVTZ
    Blend: AUG-CC-PVTZ
  Basis Set: (AUG-CC-PVTZ AUX)
    Blend: AUG-CC-PVTZ-JKFIT

    Orbital Energies [Eh]
    ---------------------

    Doubly Occupied:

       1A    -20.568375     2A     -1.345630     3A     -0.714345
       4A     -0.578239     5A     -0.508636

  @DF-RHF Final Energy:   -76.05881449766076

   => Energetics <=

    Nuclear Repulsion Energy =              9.0669725071528102
    One-Electron Energy =                -122.8211210664873079
    Two-Electron Energy =                  37.6953340616737336
    Total Energy =                        -76.0588144976607623
 Dipole X            :        -21.0192113           20.2939956           -0.7252156
 Dipole Y            :         -4.1006393            3.8936975           -0.2069418
 Dipole Z            :        -45.8376482           45.6795881           -0.1580601
 Magnitude           :                                                    0.7705489
  Basis Set: (AUG-CC-PVTZ AUX)
    Blend: AUG-CC-PVTZ-RI
	 Reference Energy          =     -76.0588144976607623 [Eh]
	 Singles Energy            =      -0.0000000000000000 [Eh]
	 Same-Spin Energy          =      -0.0686380576964060 [Eh]
	 Opposite-Spin Energy      =      -0.2171683640711179 [Eh]
	 Correlation Energy        =      -0.2858064217675238 [Eh]
	 Total Energy              =     -76.3446209194282801 [Eh]

	 ================> DF-SCS-MP2 Energies <==================
	-----------------------------------------------------------
	 SCS Same-Spin Scale       =       0.3333333333333333 [-]
	 SCS Opposite-Spin Scale   =       1.2000000000000000 [-]
	 SCS Same-Spin Energy      =      -0.0228793525654687 [Eh]
	 SCS Opposite-Spin Energy  =      -0.2606020368853414 [Eh]
	 SCS Correlation Energy    =      -0.2834813894508101 [Eh]
	 SCS Total Energy          =     -76.3422958871115753 [Eh]
	-----------------------------------------------------------

*** Psi4 exiting successfully. Buy a developer a beer!
