                               Psi4 1.8.2 release

  ==> Input File <==

--------------------------------------------------------------------------
MEMORY 60 GB

molecule dimer {
0 1
Gh(F)      0.000000     0.000000     0.000000
Gh(O)      2.168807     1.707714    -0.355893
Gh(H)      2.073389     2.313978     0.418100
Gh(H)      1.432893     1.055999    -0.259639
Gh(O)     -0.026158     0.744940     2.521287
Gh(H)      0.010483     0.423758     1.592003
Gh(H)     -0.458684     1.649632     2.480823
O          1.794697    -1.829527    -1.647068
H          1.108505    -1.229676    -1.232109
H          2.212978    -2.403178    -0.980161
Gh(O)     -1.647590     2.228935    -0.142764
Gh(H)     -1.627566     2.508274    -1.084550
Gh(H)     -1.043895     1.472816    -0.082986
Gh(O)     -1.812943    -1.946993    -0.037439
Gh(H)     -1.220264    -1.242475    -0.256203
Gh(H)     -2.477282    -2.005238    -0.795925

units ang
no_reorient
no_com
symmetry c1
}

set {
basis        aug-cc-pVTZ
scf_type     df
}

energy("mp2")
--------------------------------------------------------------------------

    Molecular point group: c1

    Geometry (in Angstrom), charge = 0, multiplicity = 1:

       Center              X                  Y                   Z               Mass
    ------------   -----------------  -----------------  -----------------  -----------------
      Gh(F)           0.000000000000     0.000000000000     0.000000000000    18.998403162730
      Gh(O)           2.168807000000     1.707714000000    -0.355893000000    15.994914619570
      Gh(H)           2.073389000000     2.313978000000     0.418100000000     1.007825032230
      Gh(H)           1.432893000000     1.055999000000    -0.259639000000     1.007825032230
      Gh(O)          -0.026158000000     0.744940000000     2.521287000000    15.994914619570
      Gh(H)           0.010483000000     0.423758000000     1.592003000000     1.007825032230
      Gh(H)          -0.458684000000     1.649632000000     2.480823000000     1.007825032230
         O            1.794697000000    -1.829527000000    -1.647068000000    15.994914619570
         H            1.108505000000    -1.229676000000    -1.232109000000     1.007825032230
         H            2.212978000000    -2.403178000000    -0.980161000000     1.007825032230
      Gh(O)          -1.647590000000     2.228935000000    -0.142764000000    15.994914619570
      Gh(H)          -1.627566000000     2.508274000000    -1.084550000000     1.007825032230
      Gh(H)          -1.043895000000     1.472816000000    -0.082986000000     1.007825032230
      Gh(O)          -1.812943000000    -1.946993000000    -0.037439000000    15.994914619570
      Gh(H)          -1.220264000000    -1.242475000000    -0.256203000000     1.007825032230
      Gh(H)          -2.477282000000    -2.005238000000    -0.795925000000     1.007825032230

  Charge       = 0
  Multiplicity = 1
  Basis Set: AUG-CC-PVTZ
    Blend: AUG-CC-PVTZ
  Basis Set: (AUG-CC-PVTZ AUX)
    Blend: AUG-CC-PVTZ-JKFIT

    Orbital Energies [Eh]
    ---------------------

    Doubly Occupied:

       1A    -20.569035     2A     -1.334015     3A     -0.713203
       4A     -0.566026     5A     -0.505728

  @DF-RHF Final Energy:   -76.05556671179909

   => Energetics <=

    Nuclear Repulsion Energy =              8.8979265432291328
    One-Electron Energy =                -122.5309675851783027
    Two-Electron Energy =                  37.5774743301500749
    Total Energy =                        -76.0555667117990879
 Dipole X            :        -33.5850752           33.4085797           -0.1764955
 Dipole Y            :         34.5386042          -34.5235389            0.0150654
 Dipole Z            :         29.8020962          -29.0806439            0.7214523
 Magnitude           :                                                    0.7428802
  Basis Set: (AUG-CC-PVTZ AUX)
    Blend: AUG-CC-PVTZ-RI
	 Reference Energy          =     -76.0555667117990879 [Eh]
	 Singles Energy            =      -0.0000000000000000 [Eh]
	 Same-Spin Energy          =      -0.0688388624337411 [Eh]
	 Opposite-Spin Energy      =      -0.2172892626840549 [Eh]
	 Correlation Energy        =      -0.2861281251177960 [Eh]
	 Total Energy              =     -76.3416948369168864 [Eh]

	 ================> DF-SCS-MP2 Energies <==================
	-----------------------------------------------------------
	 SCS Same-Spin Scale       =       0.3333333333333333 [-]
	 SCS Opposite-Spin Scale   =       1.2000000000000000 [-]
	 SCS Same-Spin Energy      =      -0.0229462874779137 [Eh]
	 SCS Opposite-Spin Energy  =      -0.2607471152208659 [Eh]
	 SCS Correlation Energy    =      -0.2836934026987796 [Eh]
	 SCS Total Energy          =     -76.3392601144978613 [Eh]
	-----------------------------------------------------------

*** Psi4 exiting successfully. Buy a developer a beer!
