                               Psi4 1.8.2 release

  ==> Input File <==

--------------------------------------------------------------------------
MEMORY 60 GB

molecule dimer {
0 1
Gh(F)      0.000000     0.000000     0.000000
Gh(O)     -2.413496     0.942059     1.683179
Gh(H)     -2.369850     1.675598     2.308522
Gh(H)     -1.516197     0.609131     1.412280
Gh(O)      1.644372    -2.458712     0.050667
Gh(H)      1.033770    -1.732996     0.175981
Gh(H)      1.480271    -2.944848     0.845458
O          0.820687     0.822159     2.619673
H          0.614436     0.700992     1.654114
H          0.656262     1.757957     2.775129
Gh(O)     -2.196713    -1.512783    -0.142220
Gh(H)     -2.784492    -0.795457    -0.455902
Gh(H)     -1.397291    -0.991488    -0.086194
Gh(O)     -0.307997     2.194705    -1.635644
Gh(H)     -0.307018     1.433362    -1.078243
Gh(H)     -1.239503     2.400415    -1.651584

units ang
no_reorient
no_com
symmetry c1
}

set {
basis        aug-cc-pVTZ
scf_type     df
}

energy("mp2")
--------------------------------------------------------------------------

    Molecular point group: c1

    Geometry (in Angstrom), charge = 0, multiplicity = 1:

       Center              X                  Y                   Z               Mass
    ------------   -----------------  -----------------  -----------------  -----------------
      Gh(F)           0.000000000000     0.000000000000     0.000000000000    18.998403162730
      Gh(O)          -2.413496000000     0.942059000000     1.683179000000    15.994914619570
      Gh(H)          -2.369850000000     1.675598000000     2.308522000000     1.007825032230
      Gh(H)          -1.516197000000     0.609131000000     1.412280000000     1.007825032230
      Gh(O)           1.644372000000    -2.458712000000     0.050667000000    15.994914619570
      Gh(H)           1.033770000000    -1.732996000000     0.175981000000     1.007825032230
      Gh(H)           1.480271000000    -2.944848000000     0.845458000000     1.007825032230
         O            0.820687000000     0.822159000000     2.619673000000    15.994914619570
         H            0.614436000000     0.700992000000     1.654114000000     1.007825032230
         H            0.656262000000     1.757957000000     2.775129000000     1.007825032230
      Gh(O)          -2.196713000000    -1.512783000000    -0.142220000000    15.994914619570
      Gh(H)          -2.784492000000    -0.795457000000    -0.455902000000     1.007825032230
      Gh(H)          -1.397291000000    -0.991488000000    -0.086194000000     1.007825032230
      Gh(O)          -0.307997000000     2.194705000000    -1.635644000000    15.994914619570
      Gh(H)          -0.307018000000     1.433362000000    -1.078243000000     1.007825032230
      Gh(H)          -1.239503000000     2.400415000000    -1.651584000000     1.007825032230

  Charge       = 0
  Multiplicity = 1
  Basis Set: AUG-CC-PVTZ
    Blend: AUG-CC-PVTZ
  Basis Set: (AUG-CC-PVTZ AUX)
    Blend: AUG-CC-PVTZ-JKFIT

    Orbital Energies [Eh]
    ---------------------

    Doubly Occupied:

       1A    -20.571098     2A     -1.343363     3A     -0.705026
       4A     -0.581893     5A     -0.508818

  @DF-RHF Final Energy:   -76.05795035947645

   => Energetics <=

    Nuclear Repulsion Energy =              8.9962347984961344
    One-Electron Energy =                -122.6879689082940672
    Two-Electron Energy =                  37.6337837503214843
    Total Energy =                        -76.0579503594764503
 Dipole X            :        -15.0506917           14.8082605           -0.2424312
 Dipole Y            :        -16.5382931           17.0759829            0.5376898
 Dipole Z            :        -48.5009143           47.9737723           -0.5271420
 Magnitude           :                                                    0.7910511
  Basis Set: (AUG-CC-PVTZ AUX)
    Blend: AUG-CC-PVTZ-RI
	 Reference Energy          =     -76.0579503594764503 [Eh]
	 Singles Energy            =      -0.0000000000000000 [Eh]
	 Same-Spin Energy          =      -0.0687932734997898 [Eh]
	 Opposite-Spin Energy      =      -0.2171711021906097 [Eh]
	 Correlation Energy        =      -0.2859643756903996 [Eh]
	 Total Energy              =     -76.3439147351668481 [Eh]

	 ================> DF-SCS-MP2 Energies <==================
	-----------------------------------------------------------
	 SCS Same-Spin Scale       =       0.3333333333333333 [-]
	 SCS Opposite-Spin Scale   =       1.2000000000000000 [-]
	 SCS Same-Spin Energy      =      -0.0229310911665966 [Eh]
	 SCS Opposite-Spin Energy  =      -0.2606053226287317 [Eh]
	 SCS Correlation Energy    =      -0.2835364137953282 [Eh]
	 SCS Total Energy          =     -76.3414867732717823 [Eh]
	-----------------------------------------------------------

*** Psi4 exiting successfully. Buy a developer a beer!
