                               Psi4 1.8.2 release

  ==> Input File <==

--------------------------------------------------------------------------
MEMORY 60 GB

molecule dimer {
0 1
Gh(F)      0.000000     0.000000     0.000000
Gh(O)      1.372061    -1.347210    -1.932574
Gh(H)      1.774702    -2.112636    -1.501750
Gh(H)      0.855323    -0.909015    -1.230796
O         -1.740094    -2.011283    -0.219246
H         -1.508601    -2.530431    -0.974565
H         -1.010642    -1.384241    -0.176034
Gh(O)     -1.563985     1.368744    -1.739992
Gh(H)     -1.407057     0.868260    -2.530266
Gh(H)     -1.046196     0.902619    -1.029123
Gh(O)     -1.071139    -0.537241     2.612539
Gh(H)     -0.620873    -0.301090     1.726356
Gh(H)     -0.452618    -0.183595     3.292619

units ang
no_reorient
no_com
symmetry c1
}

set {
basis        aug-cc-pVTZ
scf_type     df
}

energy("mp2")
--------------------------------------------------------------------------

    Molecular point group: c1

    Geometry (in Angstrom), charge = 0, multiplicity = 1:

       Center              X                  Y                   Z               Mass
    ------------   -----------------  -----------------  -----------------  -----------------
      Gh(F)           0.000000000000     0.000000000000     0.000000000000    18.998403162730
      Gh(O)           1.372061000000    -1.347210000000    -1.932574000000    15.994914619570
      Gh(H)           1.774702000000    -2.112636000000    -1.501750000000     1.007825032230
      Gh(H)           0.855323000000    -0.909015000000    -1.230796000000     1.007825032230
         O           -1.740094000000    -2.011283000000    -0.219246000000    15.994914619570
         H           -1.508601000000    -2.530431000000    -0.974565000000     1.007825032230
         H           -1.010642000000    -1.384241000000    -0.176034000000     1.007825032230
      Gh(O)          -1.563985000000     1.368744000000    -1.739992000000    15.994914619570
      Gh(H)          -1.407057000000     0.868260000000    -2.530266000000     1.007825032230
      Gh(H)          -1.046196000000     0.902619000000    -1.029123000000     1.007825032230
      Gh(O)          -1.071139000000    -0.537241000000     2.612539000000    15.994914619570
      Gh(H)          -0.620873000000    -0.301090000000     1.726356000000     1.007825032230
      Gh(H)          -0.452618000000    -0.183595000000     3.292619000000     1.007825032230

  Charge       = 0
  Multiplicity = 1
  Basis Set: AUG-CC-PVTZ
    Blend: AUG-CC-PVTZ
  Basis Set: (AUG-CC-PVTZ AUX)
    Blend: AUG-CC-PVTZ-JKFIT

    Orbital Energies [Eh]
    ---------------------

    Doubly Occupied:

       1A    -20.567606     2A     -1.357093     3A     -0.714537
       4A     -0.590403     5A     -0.511325

  @DF-RHF Final Energy:   -76.06037537592172

   => Energetics <=

    Nuclear Repulsion Energy =              9.2317554525511802
    One-Electron Energy =                -123.1023306141224225
    Two-Electron Energy =                  37.8101997856495160
    Total Energy =                        -76.0603753759217227
 Dipole X            :         31.7023643          -31.0670881            0.6352763
 Dipole Y            :         37.8728531          -37.8038502            0.0690029
 Dipole Z            :          5.0160045           -5.4888361           -0.4728316
 Magnitude           :                                                    0.7949258
  Basis Set: (AUG-CC-PVTZ AUX)
    Blend: AUG-CC-PVTZ-RI
	 Reference Energy          =     -76.0603753759217227 [Eh]
	 Singles Energy            =      -0.0000000000000000 [Eh]
	 Same-Spin Energy          =      -0.0684159109053503 [Eh]
	 Opposite-Spin Energy      =      -0.2161388882071364 [Eh]
	 Correlation Energy        =      -0.2845547991124868 [Eh]
	 Total Energy              =     -76.3449301750342073 [Eh]

	 ================> DF-SCS-MP2 Energies <==================
	-----------------------------------------------------------
	 SCS Same-Spin Scale       =       0.3333333333333333 [-]
	 SCS Opposite-Spin Scale   =       1.2000000000000000 [-]
	 SCS Same-Spin Energy      =      -0.0228053036351168 [Eh]
	 SCS Opposite-Spin Energy  =      -0.2593666658485637 [Eh]
	 SCS Correlation Energy    =      -0.2821719694836805 [Eh]
	 SCS Total Energy          =     -76.3425473454054071 [Eh]
	-----------------------------------------------------------

*** Psi4 exiting successfully. Buy a developer a beer!
