                               Psi4 1.9 release

  ==> Input File <==

--------------------------------------------------------------------------
MEMORY 60 GB

molecule dimer {
-1 1
F      0.000000     0.000000     0.000000
--
0 1
O     -1.091558    -1.809519     1.863944
H     -1.964939    -2.052092     1.500602
H     -0.591849    -1.199205     1.314271
O      0.258123    -2.349417    -1.373394
H      0.547624    -1.593259    -0.773108
H     -0.646190    -2.478934    -1.244225
O     -0.214660     2.146157     2.063174
H     -0.165088     1.390555     1.502524
H     -0.077747     1.856844     2.975158
O     -2.197647     0.913173    -1.713640
H     -2.446327     0.152611    -2.322329
H     -2.435783     1.766268    -2.074757
O      2.616092    -0.020543     0.476284
H      1.590067     0.041365     0.327444
H      2.682891    -0.935497     0.868501
O     -2.727641     0.971623     1.032331
H     -2.177883     0.803632     0.264595
H     -2.164027     1.556644     1.587096
O      0.756321     1.995676    -1.708341
H      0.223582     2.645031    -1.239711
H      0.300779     1.186526    -1.574937

units ang
no_reorient
no_com
symmetry c1
}

set {
basis        aug-cc-pVTZ
scf_type     df
}

energy("mp2", bsse_type="cp")
--------------------------------------------------------------------------

                               Psi4 1.9 release
    Molecular point group: c1
  Charge       = 0
  Multiplicity = 1
  Basis Set: AUG-CC-PVTZ
    Blend: AUG-CC-PVTZ
  Basis Set: (AUG-CC-PVTZ AUX)
    Blend: AUG-CC-PVTZ-JKFIT
  @DF-RHF Final Energy:  -532.38698004551657
    Total Energy =                       -532.3869800455165660
 Dipole X            :         51.8204889          -53.1630037           -1.3425148
 Dipole Y            :        -34.1334020           33.8595250           -0.2738770
 Dipole Z            :        -12.0105692           11.7805300           -0.2300392
 Magnitude           :                                                    1.3893425
  Basis Set: (AUG-CC-PVTZ AUX)
    Blend: AUG-CC-PVTZ-RI
	 Reference Energy          =    -532.3869800455165660 [Eh]
	 Singles Energy            =      -0.0000000000000000 [Eh]
	 Same-Spin Energy          =      -0.4874895262988870 [Eh]
	 Opposite-Spin Energy      =      -1.5256388941712022 [Eh]
	 Correlation Energy        =      -2.0131284204700890 [Eh]
	 Total Energy              =    -534.4001084659867047 [Eh]
	 SCS Total Energy          =    -534.3802432272883607 [Eh]
                               Psi4 1.9 release
    Molecular point group: c1
  Multiplicity = 1
  Basis Set: AUG-CC-PVTZ
    Blend: AUG-CC-PVTZ
  Basis Set: (AUG-CC-PVTZ AUX)
    Blend: AUG-CC-PVTZ-JKFIT
  @DF-RHF Final Energy:   -99.45117033470999
    Total Energy =                        -99.4511703347099996
  Basis Set: (AUG-CC-PVTZ AUX)
	 Singles Energy            =      -0.0000000000000000 [Eh]
	 Same-Spin Energy          =      -0.0820835428809162 [Eh]
	 Opposite-Spin Energy      =      -0.2304594611568725 [Eh]
	 Correlation Energy        =      -0.3125430040377887 [Eh]
	 Total Energy              =     -99.7637133387477775 [Eh]
	 SCS Total Energy          =     -99.7550828690585405 [Eh]
                               Psi4 1.9 release
    Molecular point group: c1

    Geometry (in Bohr), charge = -1, multiplicity = 1:

       Center              X                  Y                   Z               Mass
    ------------   -----------------  -----------------  -----------------  -----------------
         F            0.000000000000     0.000000000000     0.000000000000    18.998403162730
         O           -2.062745670052    -3.419495328812     3.522343673190    15.994914619570
         H           -3.713196563231    -3.877891864243     2.835726803314     1.007825032230
         H           -1.118432517626    -2.266169018280     2.483612244632     1.007825032230
         O            0.487781776682    -4.439754684495    -2.595338522347    15.994914619570
         H            1.034859379728    -3.010823156921    -1.460962385400     1.007825032230
         H           -1.221122125010    -4.684506343086    -2.351244488448     1.007825032230
         O           -0.405648610091     4.055648952234     3.898833809165    15.994914619570
         H           -0.311971106600     2.627768112386     2.839358856927     1.007825032230
         H           -0.146920537076     3.508926617700     5.622233799965     1.007825032230
         O           -4.152950950434     1.725646875163    -3.238310277630    15.994914619570
         H           -4.622888043313     0.288392993732    -4.388565783208     1.007825032230
         H           -4.602962771046     3.337762784160    -3.920722506877     1.007825032230
         O            4.943697399001    -0.038820643795     0.900046317938    15.994914619570
         H            3.004791151128     0.078168521180     0.618779481424     1.007825032230
         H            5.069929214456    -1.767833121187     1.641229029686     1.007825032230
         O           -5.154494458570     1.836101367196     1.950822860820    15.994914619570
         H           -4.115602403290     1.518644385654     0.500012084166     1.007825032230
         H           -4.089418358096     2.941630834837     2.999176774810     1.007825032230
         O            1.429239552932     3.771281075149    -3.228296618891    15.994914619570
         H            0.422508746582     4.998384183346    -2.342714264717     1.007825032230
         H            0.568389934289     2.242209180735    -2.976199594850     1.007825032230

  Charge       = -1
  Multiplicity = 1
  Basis Set: AUG-CC-PVTZ
    Blend: AUG-CC-PVTZ
  Basis Set: (AUG-CC-PVTZ AUX)
    Blend: AUG-CC-PVTZ-JKFIT

    Orbital Energies [Eh]
    ---------------------

    Doubly Occupied:

       1A    -26.000574     2A    -20.464574     3A    -20.430996
       4A    -20.403958     5A    -20.401194     6A    -20.396010
       7A    -20.394749     8A    -20.388798     9A     -1.272117
      10A     -1.238575    11A     -1.223259    12A     -1.189471
      13A     -1.187937    14A     -1.184211    15A     -1.179459
      16A     -1.145309    17A     -0.619460    18A     -0.598428
      19A     -0.576178    20A     -0.563159    21A     -0.555646
      22A     -0.552377    23A     -0.509135    24A     -0.468389
      25A     -0.453074    26A     -0.435627    27A     -0.431289
      28A     -0.424511    29A     -0.420175    30A     -0.414258
      31A     -0.403025    32A     -0.374375    33A     -0.362917
      34A     -0.358991    35A     -0.357129    36A     -0.343515
      37A     -0.342630    38A     -0.337048    39A     -0.333470
      40A     -0.323579

  @DF-RHF Final Energy:  -631.96316321922495

   => Energetics <=

    Nuclear Repulsion Energy =            463.8912195115973987
    One-Electron Energy =               -1813.5895964122100850
    Two-Electron Energy =                 717.7352136813876768
    Total Energy =                       -631.9631632192249526
 Dipole X            :         51.6647420          -53.1630037           -1.4982617
 Dipole Y            :        -34.0193756           33.8595250           -0.1598506
 Dipole Z            :        -12.2042695           11.7805300           -0.4237396
 Magnitude           :                                                    1.5652142
  Basis Set: (AUG-CC-PVTZ AUX)
    Blend: AUG-CC-PVTZ-RI
	 Reference Energy          =    -631.9631632192249526 [Eh]
	 Singles Energy            =      -0.0000000000000000 [Eh]
	 Same-Spin Energy          =      -0.5756182036965511 [Eh]
	 Opposite-Spin Energy      =      -1.7553627693547322 [Eh]
	 Correlation Energy        =      -2.3309809730512834 [Eh]
	 Total Energy              =    -634.2941441922762351 [Eh]

	 ================> DF-SCS-MP2 Energies <==================
	-----------------------------------------------------------
	 SCS Same-Spin Scale       =       0.3333333333333333 [-]
	 SCS Opposite-Spin Scale   =       1.2000000000000000 [-]
	 SCS Same-Spin Energy      =      -0.1918727345655170 [Eh]
	 SCS Opposite-Spin Energy  =      -2.1064353232256785 [Eh]
	 SCS Correlation Energy    =      -2.2983080577911954 [Eh]
	 SCS Total Energy          =    -634.2614712770161987 [Eh]
	-----------------------------------------------------------

*** Psi4 exiting successfully. Buy a developer a beer!
