                               Psi4 1.8.2 release

  ==> Input File <==

--------------------------------------------------------------------------
MEMORY 60 GB

molecule dimer {
-1 1
F          0.000000     0.000000     0.000000
O         -0.438919    -0.065851    -2.824863
H         -0.453151    -0.010706    -1.844303
H          0.269337     0.572966    -3.103457
O          1.699712     2.467898    -0.707959
H          1.972730     2.097516    -1.527574
H          0.803553     2.124371    -0.498661
O         -1.598723     2.231195     0.689214
H         -1.137580     1.418592     0.486558
H         -1.200463     2.623434     1.455794
O          0.369426    -1.062940     2.386597
H          0.423642    -0.786785     1.439357
H          1.049594    -0.462803     2.764259
O         -2.326821    -1.205989    -0.091246
H         -1.446384    -0.840894    -0.034548
H         -2.150655    -2.055095    -0.428599
O          2.110671    -1.418731    -1.257848
H          1.265691    -1.026664    -0.962676
H          2.460850    -0.901074    -2.008568

units ang
no_reorient
no_com
symmetry c1
}

set {
basis        aug-cc-pVTZ
scf_type     df
}

energy("mp2")
--------------------------------------------------------------------------

    Molecular point group: c1

    Geometry (in Angstrom), charge = -1, multiplicity = 1:

       Center              X                  Y                   Z               Mass
    ------------   -----------------  -----------------  -----------------  -----------------
         F            0.000000000000     0.000000000000     0.000000000000    18.998403162730
         O           -0.438919000000    -0.065851000000    -2.824863000000    15.994914619570
         H           -0.453151000000    -0.010706000000    -1.844303000000     1.007825032230
         H            0.269337000000     0.572966000000    -3.103457000000     1.007825032230
         O            1.699712000000     2.467898000000    -0.707959000000    15.994914619570
         H            1.972730000000     2.097516000000    -1.527574000000     1.007825032230
         H            0.803553000000     2.124371000000    -0.498661000000     1.007825032230
         O           -1.598723000000     2.231195000000     0.689214000000    15.994914619570
         H           -1.137580000000     1.418592000000     0.486558000000     1.007825032230
         H           -1.200463000000     2.623434000000     1.455794000000     1.007825032230
         O            0.369426000000    -1.062940000000     2.386597000000    15.994914619570
         H            0.423642000000    -0.786785000000     1.439357000000     1.007825032230
         H            1.049594000000    -0.462803000000     2.764259000000     1.007825032230
         O           -2.326821000000    -1.205989000000    -0.091246000000    15.994914619570
         H           -1.446384000000    -0.840894000000    -0.034548000000     1.007825032230
         H           -2.150655000000    -2.055095000000    -0.428599000000     1.007825032230
         O            2.110671000000    -1.418731000000    -1.257848000000    15.994914619570
         H            1.265691000000    -1.026664000000    -0.962676000000     1.007825032230
         H            2.460850000000    -0.901074000000    -2.008568000000     1.007825032230

  Charge       = -1
  Multiplicity = 1
  Basis Set: AUG-CC-PVTZ
    Blend: AUG-CC-PVTZ
  Basis Set: (AUG-CC-PVTZ AUX)
    Blend: AUG-CC-PVTZ-JKFIT

    Orbital Energies [Eh]
    ---------------------

    Doubly Occupied:

       1A    -26.023882     2A    -20.438802     3A    -20.429357
       4A    -20.418503     5A    -20.412532     6A    -20.400254
       7A    -20.386945     8A     -1.297975     9A     -1.223931
      10A     -1.204538    11A     -1.199650    12A     -1.193624
      13A     -1.190587    14A     -1.174696    15A     -0.598831
      16A     -0.584785    17A     -0.574744    18A     -0.566476
      19A     -0.554857    20A     -0.534072    21A     -0.460751
      22A     -0.450184    23A     -0.440565    24A     -0.437222
      25A     -0.432676    26A     -0.429404    27A     -0.387219
      28A     -0.379627    29A     -0.373485    30A     -0.372922
      31A     -0.368639    32A     -0.360089    33A     -0.356316
      34A     -0.340026    35A     -0.338984

  @DF-RHF Final Energy:  -555.92328779183163

   => Energetics <=

    Nuclear Repulsion Energy =            357.0011243230607079
    One-Electron Energy =               -1493.1745156185429551
    Two-Electron Energy =                 580.2501035036507346
    Total Energy =                       -555.9232877918316262
 Dipole X            :          0.6891670            0.7179674            1.4071344
 Dipole Y            :        -18.9324924           19.4972758            0.5647833
 Dipole Z            :         35.0875847          -35.3591531           -0.2715684
 Magnitude           :                                                    1.5403756
  Basis Set: (AUG-CC-PVTZ AUX)
    Blend: AUG-CC-PVTZ-RI
	 Reference Energy          =    -555.9232877918316262 [Eh]
	 Singles Energy            =      -0.0000000000000000 [Eh]
	 Same-Spin Energy          =      -0.5034623937767218 [Eh]
	 Opposite-Spin Energy      =      -1.5346549688114453 [Eh]
	 Correlation Energy        =      -2.0381173625881672 [Eh]
	 Total Energy              =    -557.9614051544198219 [Eh]

	 ================> DF-SCS-MP2 Energies <==================
	-----------------------------------------------------------
	 SCS Same-Spin Scale       =       0.3333333333333333 [-]
	 SCS Opposite-Spin Scale   =       1.2000000000000000 [-]
	 SCS Same-Spin Energy      =      -0.1678207979255739 [Eh]
	 SCS Opposite-Spin Energy  =      -1.8415859625737343 [Eh]
	 SCS Correlation Energy    =      -2.0094067604993082 [Eh]
	 SCS Total Energy          =    -557.9326945523309860 [Eh]
	-----------------------------------------------------------

*** Psi4 exiting successfully. Buy a developer a beer!
