                               Psi4 1.8.2 release

  ==> Input File <==

--------------------------------------------------------------------------
MEMORY 60 GB

molecule dimer {
0 1
Gh(F)      0.000000     0.000000     0.000000
Gh(O)      0.201552     2.379442     1.269283
Gh(H)      1.013565     2.687047     0.939558
Gh(H)      0.155342     1.525594     0.845189
Gh(O)      0.236368    -1.899810    -2.155158
Gh(H)      0.057747    -2.671067    -1.620418
Gh(H)      0.039340    -1.225771    -1.496507
O         -1.902528    -1.173327     1.751797
H         -2.408246    -0.467276     2.231861
H         -1.241179    -0.782759     1.178792
Gh(O)     -2.154508     1.404000    -1.305374
Gh(H)     -1.492883     0.912606    -0.734862
Gh(H)     -1.805542     2.277133    -1.424237
Gh(O)      1.499428    -1.231164     1.872563
Gh(H)      0.915236    -1.644768     2.531361
Gh(H)      1.009227    -0.739951     1.204952

units ang
no_reorient
no_com
symmetry c1
}

set {
basis        aug-cc-pVTZ
scf_type     df
}

energy("mp2")
--------------------------------------------------------------------------

    Molecular point group: c1

    Geometry (in Angstrom), charge = 0, multiplicity = 1:

       Center              X                  Y                   Z               Mass
    ------------   -----------------  -----------------  -----------------  -----------------
      Gh(F)           0.000000000000     0.000000000000     0.000000000000    18.998403162730
      Gh(O)           0.201552000000     2.379442000000     1.269283000000    15.994914619570
      Gh(H)           1.013565000000     2.687047000000     0.939558000000     1.007825032230
      Gh(H)           0.155342000000     1.525594000000     0.845189000000     1.007825032230
      Gh(O)           0.236368000000    -1.899810000000    -2.155158000000    15.994914619570
      Gh(H)           0.057747000000    -2.671067000000    -1.620418000000     1.007825032230
      Gh(H)           0.039340000000    -1.225771000000    -1.496507000000     1.007825032230
         O           -1.902528000000    -1.173327000000     1.751797000000    15.994914619570
         H           -2.408246000000    -0.467276000000     2.231861000000     1.007825032230
         H           -1.241179000000    -0.782759000000     1.178792000000     1.007825032230
      Gh(O)          -2.154508000000     1.404000000000    -1.305374000000    15.994914619570
      Gh(H)          -1.492883000000     0.912606000000    -0.734862000000     1.007825032230
      Gh(H)          -1.805542000000     2.277133000000    -1.424237000000     1.007825032230
      Gh(O)           1.499428000000    -1.231164000000     1.872563000000    15.994914619570
      Gh(H)           0.915236000000    -1.644768000000     2.531361000000     1.007825032230
      Gh(H)           1.009227000000    -0.739951000000     1.204952000000     1.007825032230

  Charge       = 0
  Multiplicity = 1
  Basis Set: AUG-CC-PVTZ
    Blend: AUG-CC-PVTZ
  Basis Set: (AUG-CC-PVTZ AUX)
    Blend: AUG-CC-PVTZ-JKFIT

    Orbital Energies [Eh]
    ---------------------

    Doubly Occupied:

       1A    -20.567308     2A     -1.340546     3A     -0.718855
       4A     -0.569714     5A     -0.506990

  @DF-RHF Final Energy:   -76.05766758681922

   => Energetics <=

    Nuclear Repulsion Energy =              9.0140151098316377
    One-Electron Energy =                -122.7365341404329655
    Two-Electron Energy =                  37.6648514437821049
    Total Energy =                        -76.0576675868192353
 Dipole X            :         35.7664410          -35.6584687            0.1079723
 Dipole Y            :         20.8343058          -20.1003573            0.7339485
 Dipole Z            :        -32.9943146           32.9285325           -0.0657821
 Magnitude           :                                                    0.7447588
  Basis Set: (AUG-CC-PVTZ AUX)
    Blend: AUG-CC-PVTZ-RI
	 Reference Energy          =     -76.0576675868192211 [Eh]
	 Singles Energy            =      -0.0000000000000000 [Eh]
	 Same-Spin Energy          =      -0.0686516026966832 [Eh]
	 Opposite-Spin Energy      =      -0.2169769463206738 [Eh]
	 Correlation Energy        =      -0.2856285490173570 [Eh]
	 Total Energy              =     -76.3432961358365816 [Eh]

	 ================> DF-SCS-MP2 Energies <==================
	-----------------------------------------------------------
	 SCS Same-Spin Scale       =       0.3333333333333333 [-]
	 SCS Opposite-Spin Scale   =       1.2000000000000000 [-]
	 SCS Same-Spin Energy      =      -0.0228838675655611 [Eh]
	 SCS Opposite-Spin Energy  =      -0.2603723355848086 [Eh]
	 SCS Correlation Energy    =      -0.2832562031503696 [Eh]
	 SCS Total Energy          =     -76.3409237899695938 [Eh]
	-----------------------------------------------------------

*** Psi4 exiting successfully. Buy a developer a beer!
