                               Psi4 1.9 release

  ==> Input File <==

--------------------------------------------------------------------------
MEMORY 60 GB

molecule dimer {
-1 1
F      0.000000     0.000000     0.000000
--
0 1
O     -0.392888    -0.121012     2.785079
H     -0.259660    -0.152385     1.841015
H     -1.323429     0.233529     2.886423
O      1.463244    -0.030176    -2.287680
H      1.783413     0.869016    -2.171191
H      0.898165    -0.052833    -1.517520
O      2.491850    -0.524051     1.213339
H      2.257701    -1.257554     1.794479
H      1.655262    -0.339365     0.764832
O     -0.964522    -2.497486     0.718464
H     -0.421140    -3.026626     0.161927
H     -0.780543    -1.618486     0.321566
O     -2.126631     0.994699    -1.561757
H     -1.501523     1.040360    -0.888337
H     -2.679426     0.248197    -1.354555

units ang
no_reorient
no_com
symmetry c1
}

set {
basis        aug-cc-pVTZ
scf_type     df
}

energy("mp2", bsse_type="cp")
--------------------------------------------------------------------------

                               Psi4 1.9 release
    Molecular point group: c1
  Charge       = 0
  Multiplicity = 1
  Basis Set: AUG-CC-PVTZ
    Blend: AUG-CC-PVTZ
  Basis Set: (AUG-CC-PVTZ AUX)
    Blend: AUG-CC-PVTZ-JKFIT
  @DF-RHF Final Energy:  -380.27688239533842
    Total Energy =                       -380.2768823953384185
 Dipole X            :         -7.2529134            6.4198607           -0.8330526
 Dipole Y            :         40.6593174          -40.5919880            0.0673293
 Dipole Z            :        -16.4579124           16.5883920            0.1304796
 Magnitude           :                                                    0.8458929
  Basis Set: (AUG-CC-PVTZ AUX)
    Blend: AUG-CC-PVTZ-RI
	 Reference Energy          =    -380.2768823953384185 [Eh]
	 Singles Energy            =      -0.0000000000000000 [Eh]
	 Same-Spin Energy          =      -0.3450683438378913 [Eh]
	 Opposite-Spin Energy      =      -1.0854080312877346 [Eh]
	 Correlation Energy        =      -1.4304763751256258 [Eh]
	 Total Energy              =    -381.7073587704640545 [Eh]
	 SCS Total Energy          =    -381.6943948141629903 [Eh]
                               Psi4 1.9 release
    Molecular point group: c1
  Multiplicity = 1
  Basis Set: AUG-CC-PVTZ
    Blend: AUG-CC-PVTZ
  Basis Set: (AUG-CC-PVTZ AUX)
    Blend: AUG-CC-PVTZ-JKFIT
  @DF-RHF Final Energy:   -99.45111090867289
    Total Energy =                        -99.4511109086728879
  Basis Set: (AUG-CC-PVTZ AUX)
	 Singles Energy            =      -0.0000000000000000 [Eh]
	 Same-Spin Energy          =      -0.0820497652978112 [Eh]
	 Opposite-Spin Energy      =      -0.2300536579433976 [Eh]
	 Correlation Energy        =      -0.3121034232412088 [Eh]
	 Total Energy              =     -99.7632143319140994 [Eh]
	 SCS Total Energy          =     -99.7545252199709012 [Eh]
                               Psi4 1.9 release
    Molecular point group: c1

    Geometry (in Bohr), charge = -1, multiplicity = 1:

       Center              X                  Y                   Z               Mass
    ------------   -----------------  -----------------  -----------------  -----------------
         F            0.000000000000     0.000000000000     0.000000000000    18.998403162730
         O           -0.742450717979    -0.228679537894     5.263036547764    15.994914619570
         H           -0.490686285736    -0.287965915628     3.479014142860     1.007825032230
         H           -2.500918356489     0.441305852352     5.454548952222     1.007825032230
         O            2.765130414719    -0.057024375562    -4.323088662687    15.994914619570
         H            3.370162138581     1.642202238641    -4.102956356059     1.007825032230
         H            1.697285865472    -0.099839900386    -2.867697189905     1.007825032230
         O            4.708914045722    -0.990312865772     2.292878407337    15.994914619570
         H            4.266436563172    -2.376432647974     3.391073847885     1.007825032230
         H            3.127991845878    -0.641306906566     1.445323011986     1.007825032230
         O           -1.822682421979    -4.719564542165     1.357700191001    15.994914619570
         H           -0.795839260475    -5.719494224190     0.305997682317     1.007825032230
         H           -1.475012499143    -3.058495277888     0.607671671259     1.007825032230
         O           -4.018750159909     1.879708687267    -2.951293004517    15.994914619570
         H           -2.837467241076     1.965995471881    -1.678713637111     1.007825032230
         H           -5.063381313431     0.469024355160    -2.559737971870     1.007825032230

  Charge       = -1
  Multiplicity = 1
  Basis Set: AUG-CC-PVTZ
    Blend: AUG-CC-PVTZ
  Basis Set: (AUG-CC-PVTZ AUX)
    Blend: AUG-CC-PVTZ-JKFIT

    Orbital Energies [Eh]
    ---------------------

    Doubly Occupied:

       1A    -25.999259     2A    -20.410620     3A    -20.407244
       4A    -20.405136     5A    -20.394608     6A    -20.391565
       7A     -1.268131     8A     -1.213468     9A     -1.198051
      10A     -1.184114    11A     -1.182042    12A     -1.179202
      13A     -0.584738    14A     -0.558128    15A     -0.546891
      16A     -0.541512    17A     -0.532326    18A     -0.447460
      19A     -0.444269    20A     -0.438832    21A     -0.426523
      22A     -0.425129    23A     -0.369200    24A     -0.364189
      25A     -0.353608    26A     -0.351828    27A     -0.348170
      28A     -0.342246    29A     -0.340746    30A     -0.335755

  @DF-RHF Final Energy:  -479.86105290709907

   => Energetics <=

    Nuclear Repulsion Energy =            266.1907119789912031
    One-Electron Energy =               -1206.1335366911819165
    Two-Electron Energy =                 460.0817718050916483
    Total Energy =                       -479.8610529070990651
 Dipole X            :         -7.3625477            6.4198607           -0.9426870
 Dipole Y            :         41.0450988          -40.5919880            0.4531108
 Dipole Z            :        -16.6054400           16.5883920           -0.0170480
 Magnitude           :                                                    1.0460682
  Basis Set: (AUG-CC-PVTZ AUX)
    Blend: AUG-CC-PVTZ-RI
	 Reference Energy          =    -479.8610529070990651 [Eh]
	 Singles Energy            =      -0.0000000000000000 [Eh]
	 Same-Spin Energy          =      -0.4319008572803383 [Eh]
	 Opposite-Spin Energy      =      -1.3136763940264322 [Eh]
	 Correlation Energy        =      -1.7455772513067704 [Eh]
	 Total Energy              =    -481.6066301584058351 [Eh]

	 ================> DF-SCS-MP2 Energies <==================
	-----------------------------------------------------------
	 SCS Same-Spin Scale       =       0.3333333333333333 [-]
	 SCS Opposite-Spin Scale   =       1.2000000000000000 [-]
	 SCS Same-Spin Energy      =      -0.1439669524267794 [Eh]
	 SCS Opposite-Spin Energy  =      -1.5764116728317186 [Eh]
	 SCS Correlation Energy    =      -1.7203786252584981 [Eh]
	 SCS Total Energy          =    -481.5814315323575556 [Eh]
	-----------------------------------------------------------

*** Psi4 exiting successfully. Buy a developer a beer!
