                               Psi4 1.8.2 release

  ==> Input File <==

--------------------------------------------------------------------------
MEMORY 60 GB

molecule dimer {
0 1
Gh(F)      0.000000     0.000000     0.000000
O          2.168807     1.707714    -0.355893
H          2.073389     2.313978     0.418100
H          1.432893     1.055999    -0.259639
Gh(O)     -0.026158     0.744940     2.521287
Gh(H)      0.010483     0.423758     1.592003
Gh(H)     -0.458684     1.649632     2.480823
Gh(O)      1.794697    -1.829527    -1.647068
Gh(H)      1.108505    -1.229676    -1.232109
Gh(H)      2.212978    -2.403178    -0.980161
Gh(O)     -1.647590     2.228935    -0.142764
Gh(H)     -1.627566     2.508274    -1.084550
Gh(H)     -1.043895     1.472816    -0.082986
Gh(O)     -1.812943    -1.946993    -0.037439
Gh(H)     -1.220264    -1.242475    -0.256203
Gh(H)     -2.477282    -2.005238    -0.795925

units ang
no_reorient
no_com
symmetry c1
}

set {
basis        aug-cc-pVTZ
scf_type     df
}

energy("mp2")
--------------------------------------------------------------------------

    Molecular point group: c1

    Geometry (in Angstrom), charge = 0, multiplicity = 1:

       Center              X                  Y                   Z               Mass
    ------------   -----------------  -----------------  -----------------  -----------------
      Gh(F)           0.000000000000     0.000000000000     0.000000000000    18.998403162730
         O            2.168807000000     1.707714000000    -0.355893000000    15.994914619570
         H            2.073389000000     2.313978000000     0.418100000000     1.007825032230
         H            1.432893000000     1.055999000000    -0.259639000000     1.007825032230
      Gh(O)          -0.026158000000     0.744940000000     2.521287000000    15.994914619570
      Gh(H)           0.010483000000     0.423758000000     1.592003000000     1.007825032230
      Gh(H)          -0.458684000000     1.649632000000     2.480823000000     1.007825032230
      Gh(O)           1.794697000000    -1.829527000000    -1.647068000000    15.994914619570
      Gh(H)           1.108505000000    -1.229676000000    -1.232109000000     1.007825032230
      Gh(H)           2.212978000000    -2.403178000000    -0.980161000000     1.007825032230
      Gh(O)          -1.647590000000     2.228935000000    -0.142764000000    15.994914619570
      Gh(H)          -1.627566000000     2.508274000000    -1.084550000000     1.007825032230
      Gh(H)          -1.043895000000     1.472816000000    -0.082986000000     1.007825032230
      Gh(O)          -1.812943000000    -1.946993000000    -0.037439000000    15.994914619570
      Gh(H)          -1.220264000000    -1.242475000000    -0.256203000000     1.007825032230
      Gh(H)          -2.477282000000    -2.005238000000    -0.795925000000     1.007825032230

  Charge       = 0
  Multiplicity = 1
  Basis Set: AUG-CC-PVTZ
    Blend: AUG-CC-PVTZ
  Basis Set: (AUG-CC-PVTZ AUX)
    Blend: AUG-CC-PVTZ-JKFIT

    Orbital Energies [Eh]
    ---------------------

    Doubly Occupied:

       1A    -20.572234     2A     -1.338079     3A     -0.702012
       4A     -0.578331     5A     -0.507790

  @DF-RHF Final Energy:   -76.05699438239054

   => Energetics <=

    Nuclear Repulsion Energy =              8.9097929607577004
    One-Electron Energy =                -122.5366796145439707
    Two-Electron Energy =                  37.5698922713957444
    Total Energy =                        -76.0569943823905277
 Dipole X            :        -39.9570235           39.4135227           -0.5435008
 Dipole Y            :        -32.2151739           32.1852277           -0.0299462
 Dipole Z            :          5.6494096           -5.0808745            0.5685351
 Magnitude           :                                                    0.7870972
  Basis Set: (AUG-CC-PVTZ AUX)
    Blend: AUG-CC-PVTZ-RI
	 Reference Energy          =     -76.0569943823905419 [Eh]
	 Singles Energy            =      -0.0000000000000000 [Eh]
	 Same-Spin Energy          =      -0.0689334385930351 [Eh]
	 Opposite-Spin Energy      =      -0.2177924455058401 [Eh]
	 Correlation Energy        =      -0.2867258840988752 [Eh]
	 Total Energy              =     -76.3437202664894130 [Eh]

	 ================> DF-SCS-MP2 Energies <==================
	-----------------------------------------------------------
	 SCS Same-Spin Scale       =       0.3333333333333333 [-]
	 SCS Opposite-Spin Scale   =       1.2000000000000000 [-]
	 SCS Same-Spin Energy      =      -0.0229778128643450 [Eh]
	 SCS Opposite-Spin Energy  =      -0.2613509346070081 [Eh]
	 SCS Correlation Energy    =      -0.2843287474713531 [Eh]
	 SCS Total Energy          =     -76.3413231298618911 [Eh]
	-----------------------------------------------------------

*** Psi4 exiting successfully. Buy a developer a beer!
