                               Psi4 1.9 release

  ==> Input File <==

--------------------------------------------------------------------------
MEMORY 60 GB

molecule dimer {
-1 1
F      0.000000     0.000000     0.000000
--
0 1
O      0.267898     1.190999     2.490967
H      0.231648     0.918893     1.585672
H      1.150368     0.873921     2.774655
O      1.989861     1.908491    -0.696683
H      2.519841     1.786306     0.028333
H      1.155472     1.444242    -0.489303
O     -0.232516     0.521451    -2.764163
H     -0.239694     0.176774    -1.911270
H     -0.781563    -0.064568    -3.269363
O      2.028485    -1.193703     1.417716
H      1.489509    -1.545613     2.154059
H      1.368958    -0.882699     0.721738

units ang
no_reorient
no_com
symmetry c1
}

set {
basis        aug-cc-pVTZ
scf_type     df
}

energy("mp2", bsse_type="cp")
--------------------------------------------------------------------------

                               Psi4 1.9 release
    Molecular point group: c1
  Charge       = 0
  Multiplicity = 1
  Basis Set: AUG-CC-PVTZ
    Blend: AUG-CC-PVTZ
  Basis Set: (AUG-CC-PVTZ AUX)
    Blend: AUG-CC-PVTZ-JKFIT
  @DF-RHF Final Energy:  -304.22317592124347
    Total Energy =                       -304.2231759212434667
 Dipole X            :        -75.0009313           74.3122761           -0.6886551
 Dipole Y            :        -43.2318441           41.8104929           -1.4213512
 Dipole Z            :         -9.3231081            9.7835222            0.4604141
 Magnitude           :                                                    1.6451341
  Basis Set: (AUG-CC-PVTZ AUX)
    Blend: AUG-CC-PVTZ-RI
	 Reference Energy          =    -304.2231759212434667 [Eh]
	 Singles Energy            =      -0.0000000000000000 [Eh]
	 Same-Spin Energy          =      -0.2757216873863819 [Eh]
	 Opposite-Spin Energy      =      -0.8667184848770406 [Eh]
	 Correlation Energy        =      -1.1424401722634225 [Eh]
	 Total Energy              =    -305.3656160935069011 [Eh]
	 SCS Total Energy          =    -305.3551453322247085 [Eh]
                               Psi4 1.9 release
    Molecular point group: c1
  Multiplicity = 1
  Basis Set: AUG-CC-PVTZ
    Blend: AUG-CC-PVTZ
  Basis Set: (AUG-CC-PVTZ AUX)
    Blend: AUG-CC-PVTZ-JKFIT
  @DF-RHF Final Energy:   -99.45105231382090
    Total Energy =                        -99.4510523138208953
  Basis Set: (AUG-CC-PVTZ AUX)
	 Singles Energy            =      -0.0000000000000000 [Eh]
	 Same-Spin Energy          =      -0.0819850864761783 [Eh]
	 Opposite-Spin Energy      =      -0.2294799844395092 [Eh]
	 Correlation Energy        =      -0.3114650709156875 [Eh]
	 Total Energy              =     -99.7625173847365829 [Eh]
	 SCS Total Energy          =     -99.7537566573070364 [Eh]
                               Psi4 1.9 release
    Molecular point group: c1

    Geometry (in Bohr), charge = -1, multiplicity = 1:

       Center              X                  Y                   Z               Mass
    ------------   -----------------  -----------------  -----------------  -----------------
         F            0.000000000000     0.000000000000     0.000000000000    18.998403162730
         O            0.506253849558     2.250661925694     4.707245417553    15.994914619570
         H            0.437751277510     1.736456108600     2.996485804807     1.007825032230
         H            2.173880463491     1.651471345286     5.243338042632     1.007825032230
         O            3.760292317730     3.606525302901    -1.316540066262    15.994914619570
         H            4.761809369700     3.375629116262     0.053541610313     1.007825032230
         H            2.183525625635     2.729221838883    -0.924648662365     1.007825032230
         O           -0.439391559787     0.985399577846    -5.223511036124    15.994914619570
         H           -0.452956013915     0.334054446102    -3.611776851804     1.007825032230
         H           -1.476940019791    -0.122015836469    -6.178200674705     1.007825032230
         O            3.833281099599    -2.255771745137     2.679094963680    15.994914619570
         H            2.814764071405    -2.920785265947     4.070581568078     1.007825032230
         H            2.586955697254    -1.668059361215     1.363887154336     1.007825032230

  Charge       = -1
  Multiplicity = 1
  Basis Set: AUG-CC-PVTZ
    Blend: AUG-CC-PVTZ
  Basis Set: (AUG-CC-PVTZ AUX)
    Blend: AUG-CC-PVTZ-JKFIT

    Orbital Energies [Eh]
    ---------------------

    Doubly Occupied:

       1A    -25.967466     2A    -20.401523     3A    -20.394407
       4A    -20.391397     5A    -20.379308     6A     -1.232011
       7A     -1.198309     8A     -1.181670     9A     -1.178603
      10A     -1.169548    11A     -0.568883    12A     -0.549398
      13A     -0.542906    14A     -0.537356    15A     -0.432062
      16A     -0.425552    17A     -0.419525    18A     -0.410974
      19A     -0.348564    20A     -0.346504    21A     -0.337332
      22A     -0.334508    23A     -0.322299    24A     -0.319999
      25A     -0.318389

  @DF-RHF Final Energy:  -403.78435067123212

   => Energetics <=

    Nuclear Repulsion Energy =            191.1075941318785283
    One-Electron Energy =                -950.3668943686164994
    Two-Electron Energy =                 355.4749495655058809
    Total Energy =                       -403.7843506712321187
 Dipole X            :        -75.6621087           74.3122761           -1.3498326
 Dipole Y            :        -43.4738393           41.8104929           -1.6633464
 Dipole Z            :         -9.5380952            9.7835222            0.2454270
 Magnitude           :                                                    2.1561548
  Basis Set: (AUG-CC-PVTZ AUX)
    Blend: AUG-CC-PVTZ-RI
	 Reference Energy          =    -403.7843506712321187 [Eh]
	 Singles Energy            =      -0.0000000000000000 [Eh]
	 Same-Spin Energy          =      -0.3619164194898798 [Eh]
	 Opposite-Spin Energy      =      -1.0952890688527206 [Eh]
	 Correlation Energy        =      -1.4572054883426004 [Eh]
	 Total Energy              =    -405.2415561595747135 [Eh]

	 ================> DF-SCS-MP2 Energies <==================
	-----------------------------------------------------------
	 SCS Same-Spin Scale       =       0.3333333333333333 [-]
	 SCS Opposite-Spin Scale   =       1.2000000000000000 [-]
	 SCS Same-Spin Energy      =      -0.1206388064966266 [Eh]
	 SCS Opposite-Spin Energy  =      -1.3143468826232647 [Eh]
	 SCS Correlation Energy    =      -1.4349856891198913 [Eh]
	 SCS Total Energy          =    -405.2193363603520311 [Eh]
	-----------------------------------------------------------

*** Psi4 exiting successfully. Buy a developer a beer!
