                               Psi4 1.8.2 release

  ==> Input File <==

--------------------------------------------------------------------------
MEMORY 60 GB

molecule dimer {
-1 1
F          0.000000     0.000000     0.000000
O         -0.392888    -0.121012     2.785079
H         -0.259660    -0.152385     1.841015
H         -1.323429     0.233529     2.886423
O          1.463244    -0.030176    -2.287680
H          1.783413     0.869016    -2.171191
H          0.898165    -0.052833    -1.517520
O          2.491850    -0.524051     1.213339
H          2.257701    -1.257554     1.794479
H          1.655262    -0.339365     0.764832
O         -0.964522    -2.497486     0.718464
H         -0.421140    -3.026626     0.161927
H         -0.780543    -1.618486     0.321566
O         -2.126631     0.994699    -1.561757
H         -1.501523     1.040360    -0.888337
H         -2.679426     0.248197    -1.354555

units ang
no_reorient
no_com
symmetry c1
}

set {
basis        aug-cc-pVTZ
scf_type     df
}

energy("mp2")
--------------------------------------------------------------------------

    Molecular point group: c1

    Geometry (in Angstrom), charge = -1, multiplicity = 1:

       Center              X                  Y                   Z               Mass
    ------------   -----------------  -----------------  -----------------  -----------------
         F            0.000000000000     0.000000000000     0.000000000000    18.998403162730
         O           -0.392888000000    -0.121012000000     2.785079000000    15.994914619570
         H           -0.259660000000    -0.152385000000     1.841015000000     1.007825032230
         H           -1.323429000000     0.233529000000     2.886423000000     1.007825032230
         O            1.463244000000    -0.030176000000    -2.287680000000    15.994914619570
         H            1.783413000000     0.869016000000    -2.171191000000     1.007825032230
         H            0.898165000000    -0.052833000000    -1.517520000000     1.007825032230
         O            2.491850000000    -0.524051000000     1.213339000000    15.994914619570
         H            2.257701000000    -1.257554000000     1.794479000000     1.007825032230
         H            1.655262000000    -0.339365000000     0.764832000000     1.007825032230
         O           -0.964522000000    -2.497486000000     0.718464000000    15.994914619570
         H           -0.421140000000    -3.026626000000     0.161927000000     1.007825032230
         H           -0.780543000000    -1.618486000000     0.321566000000     1.007825032230
         O           -2.126631000000     0.994699000000    -1.561757000000    15.994914619570
         H           -1.501523000000     1.040360000000    -0.888337000000     1.007825032230
         H           -2.679426000000     0.248197000000    -1.354555000000     1.007825032230

  Charge       = -1
  Multiplicity = 1
  Basis Set: AUG-CC-PVTZ
    Blend: AUG-CC-PVTZ
  Basis Set: (AUG-CC-PVTZ AUX)
    Blend: AUG-CC-PVTZ-JKFIT

    Orbital Energies [Eh]
    ---------------------

    Doubly Occupied:

       1A    -25.999259     2A    -20.410620     3A    -20.407244
       4A    -20.405136     5A    -20.394608     6A    -20.391565
       7A     -1.268131     8A     -1.213468     9A     -1.198051
      10A     -1.184114    11A     -1.182042    12A     -1.179202
      13A     -0.584738    14A     -0.558128    15A     -0.546891
      16A     -0.541512    17A     -0.532326    18A     -0.447460
      19A     -0.444269    20A     -0.438832    21A     -0.426523
      22A     -0.425129    23A     -0.369200    24A     -0.364189
      25A     -0.353608    26A     -0.351828    27A     -0.348170
      28A     -0.342246    29A     -0.340746    30A     -0.335755

  @DF-RHF Final Energy:  -479.86105290724436

   => Energetics <=

    Nuclear Repulsion Energy =            266.1907119789912031
    One-Electron Energy =               -1206.1335366912014706
    Two-Electron Energy =                 460.0817718049659106
    Total Energy =                       -479.8610529072443569
 Dipole X            :         -7.3625477            6.4198607           -0.9426870
 Dipole Y            :         41.0450988          -40.5919880            0.4531108
 Dipole Z            :        -16.6054400           16.5883920           -0.0170480
 Magnitude           :                                                    1.0460682
  Basis Set: (AUG-CC-PVTZ AUX)
    Blend: AUG-CC-PVTZ-RI
	 Reference Energy          =    -479.8610529072443569 [Eh]
	 Singles Energy            =      -0.0000000000000000 [Eh]
	 Same-Spin Energy          =      -0.4319008572800050 [Eh]
	 Opposite-Spin Energy      =      -1.3136763940251306 [Eh]
	 Correlation Energy        =      -1.7455772513051357 [Eh]
	 Total Energy              =    -481.6066301585494784 [Eh]

	 ================> DF-SCS-MP2 Energies <==================
	-----------------------------------------------------------
	 SCS Same-Spin Scale       =       0.3333333333333333 [-]
	 SCS Opposite-Spin Scale   =       1.2000000000000000 [-]
	 SCS Same-Spin Energy      =      -0.1439669524266683 [Eh]
	 SCS Opposite-Spin Energy  =      -1.5764116728301567 [Eh]
	 SCS Correlation Energy    =      -1.7203786252568252 [Eh]
	 SCS Total Energy          =    -481.5814315325011989 [Eh]
	-----------------------------------------------------------

*** Psi4 exiting successfully. Buy a developer a beer!
