                               Psi4 1.8.2 release

  ==> Input File <==

--------------------------------------------------------------------------
MEMORY 60 GB

molecule dimer {
0 1
Gh(F)      0.000000     0.000000     0.000000
O          1.549726    -0.592173    -2.469497
H          2.491955    -0.304027    -2.354979
H          1.059966    -0.129118    -1.739114
Gh(O)     -2.109158     0.552064     1.527417
Gh(H)     -1.303685     0.262813     1.105559
Gh(H)     -2.150940     1.467686     1.236099
Gh(O)     -0.658953     2.609487    -0.786580
Gh(H)     -0.277803     1.841298    -0.414688
Gh(H)     -1.429545     2.816178    -0.200283
Gh(O)      1.311910    -1.653315     1.534469
Gh(H)      0.833433    -0.988070     1.037024
Gh(H)      0.695205    -2.456602     1.463667
Gh(O)     -1.617297    -0.996617    -2.102888
Gh(H)     -1.802101    -0.062886    -2.375282
Gh(H)     -1.153428    -0.952167    -1.276978

units ang
no_reorient
no_com
symmetry c1
}

set {
basis        aug-cc-pVTZ
scf_type     df
}

energy("mp2")
--------------------------------------------------------------------------

    Molecular point group: c1

    Geometry (in Angstrom), charge = 0, multiplicity = 1:

       Center              X                  Y                   Z               Mass
    ------------   -----------------  -----------------  -----------------  -----------------
      Gh(F)           0.000000000000     0.000000000000     0.000000000000    18.998403162730
         O            1.549726000000    -0.592173000000    -2.469497000000    15.994914619570
         H            2.491955000000    -0.304027000000    -2.354979000000     1.007825032230
         H            1.059966000000    -0.129118000000    -1.739114000000     1.007825032230
      Gh(O)          -2.109158000000     0.552064000000     1.527417000000    15.994914619570
      Gh(H)          -1.303685000000     0.262813000000     1.105559000000     1.007825032230
      Gh(H)          -2.150940000000     1.467686000000     1.236099000000     1.007825032230
      Gh(O)          -0.658953000000     2.609487000000    -0.786580000000    15.994914619570
      Gh(H)          -0.277803000000     1.841298000000    -0.414688000000     1.007825032230
      Gh(H)          -1.429545000000     2.816178000000    -0.200283000000     1.007825032230
      Gh(O)           1.311910000000    -1.653315000000     1.534469000000    15.994914619570
      Gh(H)           0.833433000000    -0.988070000000     1.037024000000     1.007825032230
      Gh(H)           0.695205000000    -2.456602000000     1.463667000000     1.007825032230
      Gh(O)          -1.617297000000    -0.996617000000    -2.102888000000    15.994914619570
      Gh(H)          -1.802101000000    -0.062886000000    -2.375282000000     1.007825032230
      Gh(H)          -1.153428000000    -0.952167000000    -1.276978000000     1.007825032230

  Charge       = 0
  Multiplicity = 1
  Basis Set: AUG-CC-PVTZ
    Blend: AUG-CC-PVTZ
  Basis Set: (AUG-CC-PVTZ AUX)
    Blend: AUG-CC-PVTZ-JKFIT

    Orbital Energies [Eh]
    ---------------------

    Doubly Occupied:

       1A    -20.573332     2A     -1.335989     3A     -0.698385
       4A     -0.578328     5A     -0.507583

  @DF-RHF Final Energy:   -76.05603719487351

   => Energetics <=

    Nuclear Repulsion Energy =              8.8647906484792252
    One-Electron Energy =                -122.4544187559685753
    Two-Electron Energy =                  37.5335909126158285
    Total Energy =                        -76.0560371948735110
 Dipole X            :        -29.8462135           30.1406196            0.2944061
 Dipole Y            :         10.2598356           -9.7708837            0.4889519
 Dipole Z            :         45.6196908          -45.0700985            0.5495923
 Magnitude           :                                                    0.7923387
  Basis Set: (AUG-CC-PVTZ AUX)
    Blend: AUG-CC-PVTZ-RI
	 Reference Energy          =     -76.0560371948735110 [Eh]
	 Singles Energy            =      -0.0000000000000000 [Eh]
	 Same-Spin Energy          =      -0.0690266369776162 [Eh]
	 Opposite-Spin Energy      =      -0.2177710076253624 [Eh]
	 Correlation Energy        =      -0.2867976446029786 [Eh]
	 Total Energy              =     -76.3428348394764953 [Eh]

	 ================> DF-SCS-MP2 Energies <==================
	-----------------------------------------------------------
	 SCS Same-Spin Scale       =       0.3333333333333333 [-]
	 SCS Opposite-Spin Scale   =       1.2000000000000000 [-]
	 SCS Same-Spin Energy      =      -0.0230088789925387 [Eh]
	 SCS Opposite-Spin Energy  =      -0.2613252091504349 [Eh]
	 SCS Correlation Energy    =      -0.2843340881429737 [Eh]
	 SCS Total Energy          =     -76.3403712830164807 [Eh]
	-----------------------------------------------------------

*** Psi4 exiting successfully. Buy a developer a beer!
