                               Psi4 1.8.2 release

  ==> Input File <==

--------------------------------------------------------------------------
MEMORY 60 GB

molecule dimer {
0 1
Gh(F)      0.000000     0.000000     0.000000
Gh(O)     -0.286622    -1.514715     2.435167
Gh(H)     -0.402152    -1.045189     1.569146
Gh(H)      0.608407    -1.883599     2.387395
Gh(O)     -2.461253    -1.232960    -1.069186
Gh(H)     -1.653607    -1.018445    -0.593070
Gh(H)     -2.664912    -0.521743    -1.698566
Gh(O)      2.627690     1.043131    -0.166942
Gh(H)      2.582567     0.776855    -1.104331
Gh(H)      1.672597     0.976927     0.122659
Gh(O)      0.537003    -1.242099    -2.661767
Gh(H)      0.000214    -0.978346    -3.428741
Gh(H)      0.354593    -0.727473    -1.893451
Gh(O)     -1.468053     1.104063     2.129759
Gh(H)     -0.967829     0.901328     1.361246
Gh(H)     -2.109567     0.364225     2.248548
Gh(O)      1.926326    -2.436781     0.093481
Gh(H)      2.827091    -2.287496     0.347949
Gh(H)      1.352146    -1.641731     0.155321
O         -0.916969     2.226321    -1.648781
H         -1.489975     1.706670    -2.249404
H         -0.532336     1.455566    -1.146943

units ang
no_reorient
no_com
symmetry c1
}

set {
basis        aug-cc-pVTZ
scf_type     df
}

energy("mp2")
--------------------------------------------------------------------------

    Molecular point group: c1

    Geometry (in Angstrom), charge = 0, multiplicity = 1:

       Center              X                  Y                   Z               Mass
    ------------   -----------------  -----------------  -----------------  -----------------
      Gh(F)           0.000000000000     0.000000000000     0.000000000000    18.998403162730
      Gh(O)          -0.286622000000    -1.514715000000     2.435167000000    15.994914619570
      Gh(H)          -0.402152000000    -1.045189000000     1.569146000000     1.007825032230
      Gh(H)           0.608407000000    -1.883599000000     2.387395000000     1.007825032230
      Gh(O)          -2.461253000000    -1.232960000000    -1.069186000000    15.994914619570
      Gh(H)          -1.653607000000    -1.018445000000    -0.593070000000     1.007825032230
      Gh(H)          -2.664912000000    -0.521743000000    -1.698566000000     1.007825032230
      Gh(O)           2.627690000000     1.043131000000    -0.166942000000    15.994914619570
      Gh(H)           2.582567000000     0.776855000000    -1.104331000000     1.007825032230
      Gh(H)           1.672597000000     0.976927000000     0.122659000000     1.007825032230
      Gh(O)           0.537003000000    -1.242099000000    -2.661767000000    15.994914619570
      Gh(H)           0.000214000000    -0.978346000000    -3.428741000000     1.007825032230
      Gh(H)           0.354593000000    -0.727473000000    -1.893451000000     1.007825032230
      Gh(O)          -1.468053000000     1.104063000000     2.129759000000    15.994914619570
      Gh(H)          -0.967829000000     0.901328000000     1.361246000000     1.007825032230
      Gh(H)          -2.109567000000     0.364225000000     2.248548000000     1.007825032230
      Gh(O)           1.926326000000    -2.436781000000     0.093481000000    15.994914619570
      Gh(H)           2.827091000000    -2.287496000000     0.347949000000     1.007825032230
      Gh(H)           1.352146000000    -1.641731000000     0.155321000000     1.007825032230
         O           -0.916969000000     2.226321000000    -1.648781000000    15.994914619570
         H           -1.489975000000     1.706670000000    -2.249404000000     1.007825032230
         H           -0.532336000000     1.455566000000    -1.146943000000     1.007825032230

  Charge       = 0
  Multiplicity = 1
  Basis Set: AUG-CC-PVTZ
    Blend: AUG-CC-PVTZ
  Basis Set: (AUG-CC-PVTZ AUX)
    Blend: AUG-CC-PVTZ-JKFIT

    Orbital Energies [Eh]
    ---------------------

    Doubly Occupied:

       1A    -20.575598     2A     -1.343323     3A     -0.687026
       4A     -0.593205     5A     -0.510084

  @DF-RHF Final Energy:   -76.05530893899733

   => Energetics <=

    Nuclear Repulsion Energy =              8.9263279127986639
    One-Electron Energy =                -122.5448006260299252
    Two-Electron Energy =                  37.5631637742339279
    Total Energy =                        -76.0553089389973280
 Dipole X            :         17.5616330          -17.6841761           -0.1225431
 Dipole Y            :        -40.4576739           39.6328556           -0.8248183
 Dipole Z            :         31.2784883          -31.3441219           -0.0656336
 Magnitude           :                                                    0.8364507
  Basis Set: (AUG-CC-PVTZ AUX)
    Blend: AUG-CC-PVTZ-RI
	 Reference Energy          =     -76.0553089389973280 [Eh]
	 Singles Energy            =      -0.0000000000000000 [Eh]
	 Same-Spin Energy          =      -0.0691808678465224 [Eh]
	 Opposite-Spin Energy      =      -0.2184747654296991 [Eh]
	 Correlation Energy        =      -0.2876556332762215 [Eh]
	 Total Energy              =     -76.3429645722735444 [Eh]

	 ================> DF-SCS-MP2 Energies <==================
	-----------------------------------------------------------
	 SCS Same-Spin Scale       =       0.3333333333333333 [-]
	 SCS Opposite-Spin Scale   =       1.2000000000000000 [-]
	 SCS Same-Spin Energy      =      -0.0230602892821741 [Eh]
	 SCS Opposite-Spin Energy  =      -0.2621697185156389 [Eh]
	 SCS Correlation Energy    =      -0.2852300077978130 [Eh]
	 SCS Total Energy          =     -76.3405389467951352 [Eh]
	-----------------------------------------------------------

*** Psi4 exiting successfully. Buy a developer a beer!
