                               Psi4 1.8.2 release

  ==> Input File <==

--------------------------------------------------------------------------
MEMORY 60 GB

molecule dimer {
-1 1
F          0.000000     0.000000     0.000000
Gh(O)     -2.059057     0.556806    -1.512511
Gh(H)     -1.631697     0.750314    -2.355200
Gh(H)     -1.337052     0.357530    -0.924989
Gh(O)     -1.092632     0.531104     2.514755
Gh(H)     -0.595685     0.472327     1.701018
Gh(H)     -0.807881     1.360419     2.908593
Gh(O)      1.853987     2.045109    -0.296217
Gh(H)      1.205149     1.477398     0.090440
Gh(H)      1.333577     2.420067    -1.019413

units ang
no_reorient
no_com
symmetry c1
}

set {
basis        aug-cc-pVTZ
scf_type     df
}

energy("mp2")
--------------------------------------------------------------------------

    Molecular point group: c1

    Geometry (in Angstrom), charge = -1, multiplicity = 1:

       Center              X                  Y                   Z               Mass
    ------------   -----------------  -----------------  -----------------  -----------------
         F            0.000000000000     0.000000000000     0.000000000000    18.998403162730
      Gh(O)          -2.059057000000     0.556806000000    -1.512511000000    15.994914619570
      Gh(H)          -1.631697000000     0.750314000000    -2.355200000000     1.007825032230
      Gh(H)          -1.337052000000     0.357530000000    -0.924989000000     1.007825032230
      Gh(O)          -1.092632000000     0.531104000000     2.514755000000    15.994914619570
      Gh(H)          -0.595685000000     0.472327000000     1.701018000000     1.007825032230
      Gh(H)          -0.807881000000     1.360419000000     2.908593000000     1.007825032230
      Gh(O)           1.853987000000     2.045109000000    -0.296217000000    15.994914619570
      Gh(H)           1.205149000000     1.477398000000     0.090440000000     1.007825032230
      Gh(H)           1.333577000000     2.420067000000    -1.019413000000     1.007825032230

  Charge       = -1
  Multiplicity = 1
  Basis Set: AUG-CC-PVTZ
    Blend: AUG-CC-PVTZ
  Basis Set: (AUG-CC-PVTZ AUX)
    Blend: AUG-CC-PVTZ-JKFIT

    Orbital Energies [Eh]
    ---------------------

    Doubly Occupied:

       1A    -25.833695     2A     -1.075969     3A     -0.180970
       4A     -0.180956     5A     -0.180933

  @DF-RHF Final Energy:   -99.45100538290488

   => Energetics <=

    Nuclear Repulsion Energy =              0.0000000000000000
    One-Electron Energy =                -143.9969660715243265
    Two-Electron Energy =                  44.5459606886194379
    Total Energy =                        -99.4510053829048957
 Dipole X            :          0.0000531            0.0000000            0.0000531
 Dipole Y            :          0.0005286            0.0000000            0.0005286
 Dipole Z            :          0.0000396            0.0000000            0.0000396
 Magnitude           :                                                    0.0005327
  Basis Set: (AUG-CC-PVTZ AUX)
    Blend: AUG-CC-PVTZ-RI
	 Reference Energy          =     -99.4510053829048815 [Eh]
	 Singles Energy            =      -0.0000000000000000 [Eh]
	 Same-Spin Energy          =      -0.0819346597543278 [Eh]
	 Opposite-Spin Energy      =      -0.2291454025000731 [Eh]
	 Correlation Energy        =      -0.3110800622544009 [Eh]
	 Total Energy              =     -99.7620854451592862 [Eh]

	 ================> DF-SCS-MP2 Energies <==================
	-----------------------------------------------------------
	 SCS Same-Spin Scale       =       0.3333333333333333 [-]
	 SCS Opposite-Spin Scale   =       1.2000000000000000 [-]
	 SCS Same-Spin Energy      =      -0.0273115532514426 [Eh]
	 SCS Opposite-Spin Energy  =      -0.2749744830000878 [Eh]
	 SCS Correlation Energy    =      -0.3022860362515303 [Eh]
	 SCS Total Energy          =     -99.7532914191564117 [Eh]
	-----------------------------------------------------------

*** Psi4 exiting successfully. Buy a developer a beer!
