                               Psi4 1.8.2 release

  ==> Input File <==

--------------------------------------------------------------------------
MEMORY 60 GB

molecule dimer {
-1 1
F          0.000000     0.000000     0.000000
O         -2.418799     1.224952     0.138152
H         -2.380526     2.080135     0.563174
H         -1.516178     0.901788     0.092656
O          3.034813     0.347968     0.575749
H          3.211453     0.285459     1.525305
H          2.055606     0.112398     0.351073
O         -0.259645    -2.392526    -1.185459
H         -0.386119    -2.819401    -0.326599
H         -0.049678    -1.447133    -1.040451
O          1.007946    -1.594929     2.050955
H          0.819578    -2.573084     2.042697
H          0.499845    -1.168256     1.317571
O          0.179580     0.924429    -2.718430
H          0.785527     0.233681    -3.049861
H          0.103012     0.856389    -1.777860

units ang
no_reorient
no_com
symmetry c1
}

set {
basis        aug-cc-pVTZ
scf_type     df
}

energy("mp2")
--------------------------------------------------------------------------

    Molecular point group: c1

    Geometry (in Angstrom), charge = -1, multiplicity = 1:

       Center              X                  Y                   Z               Mass
    ------------   -----------------  -----------------  -----------------  -----------------
         F            0.000000000000     0.000000000000     0.000000000000    18.998403162730
         O           -2.418799000000     1.224952000000     0.138152000000    15.994914619570
         H           -2.380526000000     2.080135000000     0.563174000000     1.007825032230
         H           -1.516178000000     0.901788000000     0.092656000000     1.007825032230
         O            3.034813000000     0.347968000000     0.575749000000    15.994914619570
         H            3.211453000000     0.285459000000     1.525305000000     1.007825032230
         H            2.055606000000     0.112398000000     0.351073000000     1.007825032230
         O           -0.259645000000    -2.392526000000    -1.185459000000    15.994914619570
         H           -0.386119000000    -2.819401000000    -0.326599000000     1.007825032230
         H           -0.049678000000    -1.447133000000    -1.040451000000     1.007825032230
         O            1.007946000000    -1.594929000000     2.050955000000    15.994914619570
         H            0.819578000000    -2.573084000000     2.042697000000     1.007825032230
         H            0.499845000000    -1.168256000000     1.317571000000     1.007825032230
         O            0.179580000000     0.924429000000    -2.718430000000    15.994914619570
         H            0.785527000000     0.233681000000    -3.049861000000     1.007825032230
         H            0.103012000000     0.856389000000    -1.777860000000     1.007825032230

  Charge       = -1
  Multiplicity = 1
  Basis Set: AUG-CC-PVTZ
    Blend: AUG-CC-PVTZ
  Basis Set: (AUG-CC-PVTZ AUX)
    Blend: AUG-CC-PVTZ-JKFIT

    Orbital Energies [Eh]
    ---------------------

    Doubly Occupied:

       1A    -25.997739     2A    -20.420797     3A    -20.409270
       4A    -20.403521     5A    -20.399321     6A    -20.395117
       7A     -1.265151     8A     -1.188654     9A     -1.187500
      10A     -1.183988    11A     -1.178304    12A     -1.170786
      13A     -0.571245    14A     -0.564529    15A     -0.559731
      16A     -0.556260    17A     -0.549698    18A     -0.440682
      19A     -0.425857    20A     -0.422450    21A     -0.417037
      22A     -0.410670    23A     -0.363353    24A     -0.357892
      25A     -0.356617    26A     -0.347921    27A     -0.346179
      28A     -0.344386    29A     -0.341283    30A     -0.340226

  @DF-RHF Final Energy:  -479.85213949611619

   => Energetics <=

    Nuclear Repulsion Energy =            261.0461095675311185
    One-Electron Energy =               -1195.9641659883184275
    Two-Electron Energy =                 455.0659169246710576
    Total Energy =                       -479.8521394961161946
 Dipole X            :        -29.3500614           29.2788119           -0.0712496
 Dipole Y            :         29.1032957          -29.2130343           -0.1097385
 Dipole Z            :         19.1731670          -17.7909381            1.3822289
 Magnitude           :                                                    1.3884076
  Basis Set: (AUG-CC-PVTZ AUX)
    Blend: AUG-CC-PVTZ-RI
	 Reference Energy          =    -479.8521394961161946 [Eh]
	 Singles Energy            =      -0.0000000000000000 [Eh]
	 Same-Spin Energy          =      -0.4328907668563067 [Eh]
	 Opposite-Spin Energy      =      -1.3162465965110408 [Eh]
	 Correlation Energy        =      -1.7491373633673475 [Eh]
	 Total Energy              =    -481.6012768594835620 [Eh]

	 ================> DF-SCS-MP2 Energies <==================
	-----------------------------------------------------------
	 SCS Same-Spin Scale       =       0.3333333333333333 [-]
	 SCS Opposite-Spin Scale   =       1.2000000000000000 [-]
	 SCS Same-Spin Energy      =      -0.1442969222854356 [Eh]
	 SCS Opposite-Spin Energy  =      -1.5794959158132489 [Eh]
	 SCS Correlation Energy    =      -1.7237928380986844 [Eh]
	 SCS Total Energy          =    -481.5759323342148832 [Eh]
	-----------------------------------------------------------

*** Psi4 exiting successfully. Buy a developer a beer!
