                               Psi4 1.8.2 release

  ==> Input File <==

--------------------------------------------------------------------------
MEMORY 60 GB

molecule dimer {
0 1
Gh(F)      0.000000     0.000000     0.000000
Gh(O)     -0.499858     2.656083    -0.452516
Gh(H)     -0.568811     1.780548    -0.057749
Gh(H)     -0.971596     2.655662    -1.273282
Gh(O)      2.032753     1.165306     1.191711
Gh(H)      1.862455     1.191590     2.129967
Gh(H)      1.311241     0.610980     0.867723
Gh(O)      1.503412    -0.706894    -2.146729
Gh(H)      2.318272    -0.158179    -2.419535
Gh(H)      1.004696    -0.164797    -1.460316
O         -1.040215     0.023420     2.545448
H         -0.674650     0.273310     1.628852
H         -1.234537     0.904277     2.858910

units ang
no_reorient
no_com
symmetry c1
}

set {
basis        aug-cc-pVTZ
scf_type     df
}

energy("mp2")
--------------------------------------------------------------------------

    Molecular point group: c1

    Geometry (in Angstrom), charge = 0, multiplicity = 1:

       Center              X                  Y                   Z               Mass
    ------------   -----------------  -----------------  -----------------  -----------------
      Gh(F)           0.000000000000     0.000000000000     0.000000000000    18.998403162730
      Gh(O)          -0.499858000000     2.656083000000    -0.452516000000    15.994914619570
      Gh(H)          -0.568811000000     1.780548000000    -0.057749000000     1.007825032230
      Gh(H)          -0.971596000000     2.655662000000    -1.273282000000     1.007825032230
      Gh(O)           2.032753000000     1.165306000000     1.191711000000    15.994914619570
      Gh(H)           1.862455000000     1.191590000000     2.129967000000     1.007825032230
      Gh(H)           1.311241000000     0.610980000000     0.867723000000     1.007825032230
      Gh(O)           1.503412000000    -0.706894000000    -2.146729000000    15.994914619570
      Gh(H)           2.318272000000    -0.158179000000    -2.419535000000     1.007825032230
      Gh(H)           1.004696000000    -0.164797000000    -1.460316000000     1.007825032230
         O           -1.040215000000     0.023420000000     2.545448000000    15.994914619570
         H           -0.674650000000     0.273310000000     1.628852000000     1.007825032230
         H           -1.234537000000     0.904277000000     2.858910000000     1.007825032230

  Charge       = 0
  Multiplicity = 1
  Basis Set: AUG-CC-PVTZ
    Blend: AUG-CC-PVTZ
  Basis Set: (AUG-CC-PVTZ AUX)
    Blend: AUG-CC-PVTZ-JKFIT

    Orbital Energies [Eh]
    ---------------------

    Doubly Occupied:

       1A    -20.574765     2A     -1.344274     3A     -0.690482
       4A     -0.591093     5A     -0.509998

  @DF-RHF Final Energy:   -76.05442781872921

   => Energetics <=

    Nuclear Repulsion Energy =              8.9466729932380549
    One-Electron Energy =                -122.5809727112962548
    Two-Electron Energy =                  37.5798718993290066
    Total Energy =                        -76.0544278187291951
 Dipole X            :         19.4387333          -19.3336122            0.1051211
 Dipole Y            :         -1.8476876            2.5793760            0.7316884
 Dipole Z            :        -47.3395735           46.9622378           -0.3773357
 Magnitude           :                                                    0.8299402
  Basis Set: (AUG-CC-PVTZ AUX)
    Blend: AUG-CC-PVTZ-RI
	 Reference Energy          =     -76.0544278187292093 [Eh]
	 Singles Energy            =      -0.0000000000000000 [Eh]
	 Same-Spin Energy          =      -0.0690797444564425 [Eh]
	 Opposite-Spin Energy      =      -0.2180537673095229 [Eh]
	 Correlation Energy        =      -0.2871335117659654 [Eh]
	 Total Energy              =     -76.3415613304951677 [Eh]

	 ================> DF-SCS-MP2 Energies <==================
	-----------------------------------------------------------
	 SCS Same-Spin Scale       =       0.3333333333333333 [-]
	 SCS Opposite-Spin Scale   =       1.2000000000000000 [-]
	 SCS Same-Spin Energy      =      -0.0230265814854808 [Eh]
	 SCS Opposite-Spin Energy  =      -0.2616645207714275 [Eh]
	 SCS Correlation Energy    =      -0.2846911022569084 [Eh]
	 SCS Total Energy          =     -76.3391189209861238 [Eh]
	-----------------------------------------------------------

*** Psi4 exiting successfully. Buy a developer a beer!
