                               Psi4 1.8.2 release

  ==> Input File <==

--------------------------------------------------------------------------
MEMORY 60 GB

molecule dimer {
-1 1
F          0.000000     0.000000     0.000000
O          0.837524     0.653179     2.553921
H          0.450484     0.492379     1.655690
H          1.594760     0.044820     2.624147
O          2.594542     0.172347    -1.320489
H          2.132419     0.238275    -0.450632
H          2.553603     1.076321    -1.724631
O         -1.636542     0.886029    -2.279818
H         -2.157956     0.116431    -2.594786
H         -1.276453     0.610612    -1.388084
O          1.537179    -2.637515     0.278263
H          1.257767    -1.689888     0.387885
H          0.903055    -3.046812    -0.310398
O         -2.510626    -0.310738     1.625874
H         -1.585188    -0.173293     1.439381
H         -2.750973    -0.165710     2.541553
O          0.946957     2.640609    -0.101277
H          0.622536     1.701020    -0.141447
H          0.455089     3.126381    -0.849022

units ang
no_reorient
no_com
symmetry c1
}

set {
basis        aug-cc-pVTZ
scf_type     df
}

energy("mp2")
--------------------------------------------------------------------------

    Molecular point group: c1

    Geometry (in Angstrom), charge = -1, multiplicity = 1:

       Center              X                  Y                   Z               Mass
    ------------   -----------------  -----------------  -----------------  -----------------
         F            0.000000000000     0.000000000000     0.000000000000    18.998403162730
         O            0.837524000000     0.653179000000     2.553921000000    15.994914619570
         H            0.450484000000     0.492379000000     1.655690000000     1.007825032230
         H            1.594760000000     0.044820000000     2.624147000000     1.007825032230
         O            2.594542000000     0.172347000000    -1.320489000000    15.994914619570
         H            2.132419000000     0.238275000000    -0.450632000000     1.007825032230
         H            2.553603000000     1.076321000000    -1.724631000000     1.007825032230
         O           -1.636542000000     0.886029000000    -2.279818000000    15.994914619570
         H           -2.157956000000     0.116431000000    -2.594786000000     1.007825032230
         H           -1.276453000000     0.610612000000    -1.388084000000     1.007825032230
         O            1.537179000000    -2.637515000000     0.278263000000    15.994914619570
         H            1.257767000000    -1.689888000000     0.387885000000     1.007825032230
         H            0.903055000000    -3.046812000000    -0.310398000000     1.007825032230
         O           -2.510626000000    -0.310738000000     1.625874000000    15.994914619570
         H           -1.585188000000    -0.173293000000     1.439381000000     1.007825032230
         H           -2.750973000000    -0.165710000000     2.541553000000     1.007825032230
         O            0.946957000000     2.640609000000    -0.101277000000    15.994914619570
         H            0.622536000000     1.701020000000    -0.141447000000     1.007825032230
         H            0.455089000000     3.126381000000    -0.849022000000     1.007825032230

  Charge       = -1
  Multiplicity = 1
  Basis Set: AUG-CC-PVTZ
    Blend: AUG-CC-PVTZ
  Basis Set: (AUG-CC-PVTZ AUX)
    Blend: AUG-CC-PVTZ-JKFIT

    Orbital Energies [Eh]
    ---------------------

    Doubly Occupied:

       1A    -26.002336     2A    -20.420085     3A    -20.419706
       4A    -20.419468     5A    -20.414352     6A    -20.414079
       7A    -20.409864     8A     -1.266245     9A     -1.206246
      10A     -1.195761    11A     -1.186837    12A     -1.184450
      13A     -1.182034    14A     -1.172994    15A     -0.595841
      16A     -0.569472    17A     -0.560016    18A     -0.553649
      19A     -0.550320    20A     -0.539247    21A     -0.440168
      22A     -0.436072    23A     -0.430211    24A     -0.429836
      25A     -0.427380    26A     -0.424081    27A     -0.370101
      28A     -0.367840    29A     -0.361122    30A     -0.359575
      31A     -0.358383    32A     -0.350905    33A     -0.349478
      34A     -0.348600    35A     -0.343189

  @DF-RHF Final Energy:  -555.90887127427891

   => Energetics <=

    Nuclear Repulsion Energy =            346.3153098805716468
    One-Electron Energy =               -1472.3284749410579479
    Two-Electron Energy =                 570.1042937862073359
    Total Energy =                       -555.9088712742789085
 Dipole X            :        -31.9302954           30.8996961           -1.0305993
 Dipole Y            :        -26.1541205           25.6281331           -0.5259874
 Dipole Z            :        -14.0123582           13.6843535           -0.3280047
 Magnitude           :                                                    1.2026574
  Basis Set: (AUG-CC-PVTZ AUX)
    Blend: AUG-CC-PVTZ-RI
	 Reference Energy          =    -555.9088712742789085 [Eh]
	 Singles Energy            =      -0.0000000000000000 [Eh]
	 Same-Spin Energy          =      -0.5036330021705600 [Eh]
	 Opposite-Spin Energy      =      -1.5373611084490595 [Eh]
	 Correlation Energy        =      -2.0409941106196197 [Eh]
	 Total Energy              =    -557.9498653848985441 [Eh]

	 ================> DF-SCS-MP2 Energies <==================
	-----------------------------------------------------------
	 SCS Same-Spin Scale       =       0.3333333333333333 [-]
	 SCS Opposite-Spin Scale   =       1.2000000000000000 [-]
	 SCS Same-Spin Energy      =      -0.1678776673901866 [Eh]
	 SCS Opposite-Spin Energy  =      -1.8448333301388713 [Eh]
	 SCS Correlation Energy    =      -2.0127109975290578 [Eh]
	 SCS Total Energy          =    -557.9215822718080062 [Eh]
	-----------------------------------------------------------

*** Psi4 exiting successfully. Buy a developer a beer!
