                               Psi4 1.8.2 release

  ==> Input File <==

--------------------------------------------------------------------------
MEMORY 60 GB

molecule dimer {
-1 1
F          0.000000     0.000000     0.000000
O          0.740022     2.738323    -0.742341
H          0.140598     3.165775    -1.345208
H          0.324060     1.954101    -0.472573
O         -1.637000    -2.128907     1.209056
H         -1.409631    -2.982770     0.710761
H         -1.194739    -1.404565     0.713641
O         -2.586717     0.892440     0.631559
H         -1.647489     0.669471     0.494403
H         -3.184785     0.268742     0.256299
O          1.343206    -2.399485    -0.414928
H          0.998170    -2.994359     0.252667
H          1.012370    -1.551086    -0.254296
O         -1.062745     0.103470    -2.464943
H         -0.642973    -0.084048    -1.611420
H         -1.936889     0.466257    -2.189501
O          0.542504    -0.109357     2.673800
H          0.307584     0.028412     1.703925
H          0.033945     0.531994     3.170652

units ang
no_reorient
no_com
symmetry c1
}

set {
basis        aug-cc-pVTZ
scf_type     df
}

energy("mp2")
--------------------------------------------------------------------------

    Molecular point group: c1

    Geometry (in Angstrom), charge = -1, multiplicity = 1:

       Center              X                  Y                   Z               Mass
    ------------   -----------------  -----------------  -----------------  -----------------
         F            0.000000000000     0.000000000000     0.000000000000    18.998403162730
         O            0.740022000000     2.738323000000    -0.742341000000    15.994914619570
         H            0.140598000000     3.165775000000    -1.345208000000     1.007825032230
         H            0.324060000000     1.954101000000    -0.472573000000     1.007825032230
         O           -1.637000000000    -2.128907000000     1.209056000000    15.994914619570
         H           -1.409631000000    -2.982770000000     0.710761000000     1.007825032230
         H           -1.194739000000    -1.404565000000     0.713641000000     1.007825032230
         O           -2.586717000000     0.892440000000     0.631559000000    15.994914619570
         H           -1.647489000000     0.669471000000     0.494403000000     1.007825032230
         H           -3.184785000000     0.268742000000     0.256299000000     1.007825032230
         O            1.343206000000    -2.399485000000    -0.414928000000    15.994914619570
         H            0.998170000000    -2.994359000000     0.252667000000     1.007825032230
         H            1.012370000000    -1.551086000000    -0.254296000000     1.007825032230
         O           -1.062745000000     0.103470000000    -2.464943000000    15.994914619570
         H           -0.642973000000    -0.084048000000    -1.611420000000     1.007825032230
         H           -1.936889000000     0.466257000000    -2.189501000000     1.007825032230
         O            0.542504000000    -0.109357000000     2.673800000000    15.994914619570
         H            0.307584000000     0.028412000000     1.703925000000     1.007825032230
         H            0.033945000000     0.531994000000     3.170652000000     1.007825032230

  Charge       = -1
  Multiplicity = 1
  Basis Set: AUG-CC-PVTZ
    Blend: AUG-CC-PVTZ
  Basis Set: (AUG-CC-PVTZ AUX)
    Blend: AUG-CC-PVTZ-JKFIT

    Orbital Energies [Eh]
    ---------------------

    Doubly Occupied:

       1A    -26.028943     2A    -20.431362     3A    -20.419799
       4A    -20.413669     5A    -20.410669     6A    -20.407835
       7A    -20.398570     8A     -1.301093     9A     -1.213449
      10A     -1.208847    11A     -1.207226    12A     -1.193570
      13A     -1.189030    14A     -1.174214    15A     -0.600885
      16A     -0.587733    17A     -0.584058    18A     -0.565411
      19A     -0.558313    20A     -0.543544    21A     -0.454157
      22A     -0.451433    23A     -0.440926    24A     -0.438794
      25A     -0.427375    26A     -0.420187    27A     -0.387485
      28A     -0.380967    29A     -0.372428    30A     -0.370766
      31A     -0.366554    32A     -0.362920    33A     -0.358508
      34A     -0.352399    35A     -0.339845

  @DF-RHF Final Energy:  -555.92744705889550

   => Energetics <=

    Nuclear Repulsion Energy =            360.1106350858907490
    One-Electron Energy =               -1499.3502337077904940
    Two-Electron Energy =                 583.3121515630043632
    Total Energy =                       -555.9274470588954955
 Dipole X            :         52.9916916          -53.8300184           -0.8383268
 Dipole Y            :         17.3240626          -17.3102768            0.0137858
 Dipole Z            :        -16.4825228           16.1892346           -0.2932882
 Magnitude           :                                                    0.8882567
  Basis Set: (AUG-CC-PVTZ AUX)
    Blend: AUG-CC-PVTZ-RI
	 Reference Energy          =    -555.9274470588954955 [Eh]
	 Singles Energy            =      -0.0000000000000000 [Eh]
	 Same-Spin Energy          =      -0.5035632252749278 [Eh]
	 Opposite-Spin Energy      =      -1.5347930929367848 [Eh]
	 Correlation Energy        =      -2.0383563182117124 [Eh]
	 Total Energy              =    -557.9658033771072496 [Eh]

	 ================> DF-SCS-MP2 Energies <==================
	-----------------------------------------------------------
	 SCS Same-Spin Scale       =       0.3333333333333333 [-]
	 SCS Opposite-Spin Scale   =       1.2000000000000000 [-]
	 SCS Same-Spin Energy      =      -0.1678544084249759 [Eh]
	 SCS Opposite-Spin Energy  =      -1.8417517115241417 [Eh]
	 SCS Correlation Energy    =      -2.0096061199491175 [Eh]
	 SCS Total Energy          =    -557.9370531788446215 [Eh]
	-----------------------------------------------------------

*** Psi4 exiting successfully. Buy a developer a beer!
