                               Psi4 1.8.2 release

  ==> Input File <==

--------------------------------------------------------------------------
MEMORY 60 GB

molecule dimer {
0 1
Gh(F)      0.000000     0.000000     0.000000
Gh(O)      1.817114     1.946444    -0.723175
Gh(H)      1.018768     1.381289    -1.036039
Gh(H)      2.133974     1.611845     0.184788
Gh(O)     -1.618648     2.227966     0.983095
Gh(H)     -1.190650     1.430225     0.637791
Gh(H)     -1.783720     2.118152     1.906642
O         -0.955691     1.698319    -2.105695
H         -0.402285     1.876495    -2.895468
H         -1.255684     0.819664    -2.003767
Gh(O)      1.688096    -0.251298     2.069765
Gh(H)      2.518079     0.189713     1.984541
Gh(H)      1.298638    -0.141263     1.240993
Gh(O)      1.074017    -0.791253    -2.569566
Gh(H)      1.889382    -0.271590    -2.714166
Gh(H)      0.775089    -0.600320    -1.647716
Gh(O)     -1.131261    -2.325104     0.575167
Gh(H)     -0.809361    -1.464786     0.417327
Gh(H)     -2.086261    -2.127325     0.545425

units ang
no_reorient
no_com
symmetry c1
}

set {
basis        aug-cc-pVTZ
scf_type     df
}

energy("mp2")
--------------------------------------------------------------------------

    Molecular point group: c1

    Geometry (in Angstrom), charge = 0, multiplicity = 1:

       Center              X                  Y                   Z               Mass
    ------------   -----------------  -----------------  -----------------  -----------------
      Gh(F)           0.000000000000     0.000000000000     0.000000000000    18.998403162730
      Gh(O)           1.817114000000     1.946444000000    -0.723175000000    15.994914619570
      Gh(H)           1.018768000000     1.381289000000    -1.036039000000     1.007825032230
      Gh(H)           2.133974000000     1.611845000000     0.184788000000     1.007825032230
      Gh(O)          -1.618648000000     2.227966000000     0.983095000000    15.994914619570
      Gh(H)          -1.190650000000     1.430225000000     0.637791000000     1.007825032230
      Gh(H)          -1.783720000000     2.118152000000     1.906642000000     1.007825032230
         O           -0.955691000000     1.698319000000    -2.105695000000    15.994914619570
         H           -0.402285000000     1.876495000000    -2.895468000000     1.007825032230
         H           -1.255684000000     0.819664000000    -2.003767000000     1.007825032230
      Gh(O)           1.688096000000    -0.251298000000     2.069765000000    15.994914619570
      Gh(H)           2.518079000000     0.189713000000     1.984541000000     1.007825032230
      Gh(H)           1.298638000000    -0.141263000000     1.240993000000     1.007825032230
      Gh(O)           1.074017000000    -0.791253000000    -2.569566000000    15.994914619570
      Gh(H)           1.889382000000    -0.271590000000    -2.714166000000     1.007825032230
      Gh(H)           0.775089000000    -0.600320000000    -1.647716000000     1.007825032230
      Gh(O)          -1.131261000000    -2.325104000000     0.575167000000    15.994914619570
      Gh(H)          -0.809361000000    -1.464786000000     0.417327000000     1.007825032230
      Gh(H)          -2.086261000000    -2.127325000000     0.545425000000     1.007825032230

  Charge       = 0
  Multiplicity = 1
  Basis Set: AUG-CC-PVTZ
    Blend: AUG-CC-PVTZ
  Basis Set: (AUG-CC-PVTZ AUX)
    Blend: AUG-CC-PVTZ-JKFIT

    Orbital Energies [Eh]
    ---------------------

    Doubly Occupied:

       1A    -20.561395     2A     -1.346008     3A     -0.738449
       4A     -0.562421     5A     -0.506796

  @DF-RHF Final Energy:   -76.05701923830915

   => Energetics <=

    Nuclear Repulsion Energy =              9.1748577759763794
    One-Electron Energy =                -123.0336119059077191
    Two-Electron Energy =                  37.8017348916221891
    Total Energy =                        -76.0570192383091523
 Dipole X            :         17.7532085          -17.5810613            0.1721472
 Dipole Y            :        -31.2569211           30.7698644           -0.4870568
 Dipole Z            :         40.6194412          -41.0917072           -0.4722660
 Magnitude           :                                                    0.6999243
  Basis Set: (AUG-CC-PVTZ AUX)
    Blend: AUG-CC-PVTZ-RI
	 Reference Energy          =     -76.0570192383091523 [Eh]
	 Singles Energy            =      -0.0000000000000000 [Eh]
	 Same-Spin Energy          =      -0.0683663252365400 [Eh]
	 Opposite-Spin Energy      =      -0.2156997921940680 [Eh]
	 Correlation Energy        =      -0.2840661174306081 [Eh]
	 Total Energy              =     -76.3410853557397644 [Eh]

	 ================> DF-SCS-MP2 Energies <==================
	-----------------------------------------------------------
	 SCS Same-Spin Scale       =       0.3333333333333333 [-]
	 SCS Opposite-Spin Scale   =       1.2000000000000000 [-]
	 SCS Same-Spin Energy      =      -0.0227887750788467 [Eh]
	 SCS Opposite-Spin Energy  =      -0.2588397506328816 [Eh]
	 SCS Correlation Energy    =      -0.2816285257117283 [Eh]
	 SCS Total Energy          =     -76.3386477640208767 [Eh]
	-----------------------------------------------------------

*** Psi4 exiting successfully. Buy a developer a beer!
