                               Psi4 1.8.2 release

  ==> Input File <==

--------------------------------------------------------------------------
MEMORY 60 GB

molecule dimer {
0 1
Gh(F)      0.000000     0.000000     0.000000
Gh(O)      0.267898     1.190999     2.490967
Gh(H)      0.231648     0.918893     1.585672
Gh(H)      1.150368     0.873921     2.774655
O          1.989861     1.908491    -0.696683
H          2.519841     1.786306     0.028333
H          1.155472     1.444242    -0.489303
Gh(O)     -0.232516     0.521451    -2.764163
Gh(H)     -0.239694     0.176774    -1.911270
Gh(H)     -0.781563    -0.064568    -3.269363
Gh(O)      2.028485    -1.193703     1.417716
Gh(H)      1.489509    -1.545613     2.154059
Gh(H)      1.368958    -0.882699     0.721738

units ang
no_reorient
no_com
symmetry c1
}

set {
basis        aug-cc-pVTZ
scf_type     df
}

energy("mp2")
--------------------------------------------------------------------------

    Molecular point group: c1

    Geometry (in Angstrom), charge = 0, multiplicity = 1:

       Center              X                  Y                   Z               Mass
    ------------   -----------------  -----------------  -----------------  -----------------
      Gh(F)           0.000000000000     0.000000000000     0.000000000000    18.998403162730
      Gh(O)           0.267898000000     1.190999000000     2.490967000000    15.994914619570
      Gh(H)           0.231648000000     0.918893000000     1.585672000000     1.007825032230
      Gh(H)           1.150368000000     0.873921000000     2.774655000000     1.007825032230
         O            1.989861000000     1.908491000000    -0.696683000000    15.994914619570
         H            2.519841000000     1.786306000000     0.028333000000     1.007825032230
         H            1.155472000000     1.444242000000    -0.489303000000     1.007825032230
      Gh(O)          -0.232516000000     0.521451000000    -2.764163000000    15.994914619570
      Gh(H)          -0.239694000000     0.176774000000    -1.911270000000     1.007825032230
      Gh(H)          -0.781563000000    -0.064568000000    -3.269363000000     1.007825032230
      Gh(O)           2.028485000000    -1.193703000000     1.417716000000    15.994914619570
      Gh(H)           1.489509000000    -1.545613000000     2.154059000000     1.007825032230
      Gh(H)           1.368958000000    -0.882699000000     0.721738000000     1.007825032230

  Charge       = 0
  Multiplicity = 1
  Basis Set: AUG-CC-PVTZ
    Blend: AUG-CC-PVTZ
  Basis Set: (AUG-CC-PVTZ AUX)
    Blend: AUG-CC-PVTZ-JKFIT

    Orbital Energies [Eh]
    ---------------------

    Doubly Occupied:

       1A    -20.563659     2A     -1.362342     3A     -0.728502
       4A     -0.585714     5A     -0.511511

  @DF-RHF Final Energy:   -76.05844833289446

   => Energetics <=

    Nuclear Repulsion Energy =              9.3565479401399489
    One-Electron Energy =                -123.3265333897635685
    Two-Electron Energy =                  37.9115371167291642
    Total Energy =                        -76.0584483328944572
 Dipole X            :        -37.2222118           37.0276735           -0.1945382
 Dipole Y            :        -35.3497100           34.9570534           -0.3926567
 Dipole Z            :         12.0362892          -11.4034276            0.6328617
 Magnitude           :                                                    0.7697651
  Basis Set: (AUG-CC-PVTZ AUX)
    Blend: AUG-CC-PVTZ-RI
	 Reference Energy          =     -76.0584483328944572 [Eh]
	 Singles Energy            =      -0.0000000000000000 [Eh]
	 Same-Spin Energy          =      -0.0681008047018449 [Eh]
	 Opposite-Spin Energy      =      -0.2150785599607907 [Eh]
	 Correlation Energy        =      -0.2831793646626356 [Eh]
	 Total Energy              =     -76.3416276975570867 [Eh]

	 ================> DF-SCS-MP2 Energies <==================
	-----------------------------------------------------------
	 SCS Same-Spin Scale       =       0.3333333333333333 [-]
	 SCS Opposite-Spin Scale   =       1.2000000000000000 [-]
	 SCS Same-Spin Energy      =      -0.0227002682339483 [Eh]
	 SCS Opposite-Spin Energy  =      -0.2580942719529488 [Eh]
	 SCS Correlation Energy    =      -0.2807945401868971 [Eh]
	 SCS Total Energy          =     -76.3392428730813606 [Eh]
	-----------------------------------------------------------

*** Psi4 exiting successfully. Buy a developer a beer!
