                               Psi4 1.9 release

  ==> Input File <==

--------------------------------------------------------------------------
MEMORY 60 GB

molecule dimer {
-1 1
F      0.000000     0.000000     0.000000
--
0 1
O     -1.815093    -1.909151    -1.378201
H     -1.403991    -2.276259    -2.165990
H     -1.261117    -1.228137    -1.060890
O     -2.290972     1.058239     1.136022
H     -1.623090     0.540782     0.668743
H     -1.945953     1.955729     1.153331
O      0.991195     2.121049     1.492154
H      0.917310     1.817853     2.425342
H      0.600819     1.313217     1.073674
O      0.163617    -2.054169     1.849337
H     -0.065307    -1.308779     1.260088
H     -0.495621    -2.762095     1.646170

units ang
no_reorient
no_com
symmetry c1
}

set {
basis        aug-cc-pVTZ
scf_type     df
}

energy("mp2", bsse_type="cp")
--------------------------------------------------------------------------

                               Psi4 1.9 release
    Molecular point group: c1
  Charge       = 0
  Multiplicity = 1
  Basis Set: AUG-CC-PVTZ
    Blend: AUG-CC-PVTZ
  Basis Set: (AUG-CC-PVTZ AUX)
    Blend: AUG-CC-PVTZ-JKFIT
  @DF-RHF Final Energy:  -304.22639052722161
    Total Energy =                       -304.2263905272216107
 Dipole X            :         54.9671018          -54.5884695            0.3786323
 Dipole Y            :         15.2967197          -15.5334448           -0.2367251
 Dipole Z            :        -57.0557280           56.3043219           -0.7514061
 Magnitude           :                                                    0.8740780
  Basis Set: (AUG-CC-PVTZ AUX)
    Blend: AUG-CC-PVTZ-RI
	 Reference Energy          =    -304.2263905272216107 [Eh]
	 Singles Energy            =      -0.0000000000000000 [Eh]
	 Same-Spin Energy          =      -0.2760508986001479 [Eh]
	 Opposite-Spin Energy      =      -0.8688205789825163 [Eh]
	 Correlation Energy        =      -1.1448714775826643 [Eh]
	 Total Energy              =    -305.3712620048042936 [Eh]
	 SCS Total Energy          =    -305.3609921882006688 [Eh]
                               Psi4 1.9 release
    Molecular point group: c1
  Multiplicity = 1
  Basis Set: AUG-CC-PVTZ
    Blend: AUG-CC-PVTZ
  Basis Set: (AUG-CC-PVTZ AUX)
    Blend: AUG-CC-PVTZ-JKFIT
  @DF-RHF Final Energy:   -99.45105322640660
    Total Energy =                        -99.4510532264066143
  Basis Set: (AUG-CC-PVTZ AUX)
	 Singles Energy            =      -0.0000000000000000 [Eh]
	 Same-Spin Energy          =      -0.0819879685442328 [Eh]
	 Opposite-Spin Energy      =      -0.2295310342464251 [Eh]
	 Correlation Energy        =      -0.3115190027906578 [Eh]
	 Total Energy              =     -99.7625722291972608 [Eh]
	 SCS Total Energy          =     -99.7538197903503914 [Eh]
                               Psi4 1.9 release
    Molecular point group: c1

    Geometry (in Bohr), charge = -1, multiplicity = 1:

       Center              X                  Y                   Z               Mass
    ------------   -----------------  -----------------  -----------------  -----------------
         F            0.000000000000     0.000000000000     0.000000000000    18.998403162730
         O           -3.430028662236    -3.607772522144    -2.604422435832    15.994914619570
         H           -2.653158472608    -4.301506100609    -4.093127890480     1.007825032230
         H           -2.383165742159    -2.320842574541    -2.004791549237     1.007825032230
         O           -4.329309641092     1.999781885278     2.146770452495    15.994914619570
         H           -3.067195576969     1.021929873577     1.263741118317     1.007825032230
         H           -3.677318223013     3.695792185616     2.179479722000     1.007825032230
         O            1.873087086923     4.008201708676     2.819762397006    15.994914619570
         H            1.733464672144     3.435244306342     4.583232140570     1.007825032230
         H            1.135383360971     2.481620473295     2.028949808025     1.007825032230
         O            0.309191319469    -3.881816825406     3.494740443676    15.994914619570
         H           -0.123412344075    -2.473233868751     2.381221213976     1.007825032230
         H           -0.936587952026    -5.219603082496     3.110810455945     1.007825032230

  Charge       = -1
  Multiplicity = 1
  Basis Set: AUG-CC-PVTZ
    Blend: AUG-CC-PVTZ
  Basis Set: (AUG-CC-PVTZ AUX)
    Blend: AUG-CC-PVTZ-JKFIT

    Orbital Energies [Eh]
    ---------------------

    Doubly Occupied:

       1A    -25.968484     2A    -20.412559     3A    -20.397563
       4A    -20.391902     5A    -20.386957     6A     -1.232178
       7A     -1.206122     8A     -1.172862     9A     -1.170367
      10A     -1.164217    11A     -0.580954    12A     -0.542951
      13A     -0.534313    14A     -0.518586    15A     -0.436139
      16A     -0.430079    17A     -0.416344    18A     -0.412136
      19A     -0.362261    20A     -0.342039    21A     -0.336269
      22A     -0.334832    23A     -0.323038    24A     -0.320939
      25A     -0.318632

  @DF-RHF Final Energy:  -403.78797823195805

   => Energetics <=

    Nuclear Repulsion Energy =            186.2677297232300475
    One-Electron Energy =                -940.6859632267075995
    Two-Electron Energy =                 350.6302552715194452
    Total Energy =                       -403.7879782319580499
 Dipole X            :         55.3696708          -54.5884695            0.7812014
 Dipole Y            :         15.3430078          -15.5334448           -0.1904370
 Dipole Z            :        -57.6408035           56.3043219           -1.3364817
 Magnitude           :                                                    1.5597195
  Basis Set: (AUG-CC-PVTZ AUX)
    Blend: AUG-CC-PVTZ-RI
	 Reference Energy          =    -403.7879782319580499 [Eh]
	 Singles Energy            =      -0.0000000000000000 [Eh]
	 Same-Spin Energy          =      -0.3623068431088462 [Eh]
	 Opposite-Spin Energy      =      -1.0975645626007444 [Eh]
	 Correlation Energy        =      -1.4598714057095905 [Eh]
	 Total Energy              =    -405.2478496376676276 [Eh]

	 ================> DF-SCS-MP2 Energies <==================
	-----------------------------------------------------------
	 SCS Same-Spin Scale       =       0.3333333333333333 [-]
	 SCS Opposite-Spin Scale   =       1.2000000000000000 [-]
	 SCS Same-Spin Energy      =      -0.1207689477029487 [Eh]
	 SCS Opposite-Spin Energy  =      -1.3170774751208933 [Eh]
	 SCS Correlation Energy    =      -1.4378464228238421 [Eh]
	 SCS Total Energy          =    -405.2258246547818885 [Eh]
	-----------------------------------------------------------

*** Psi4 exiting successfully. Buy a developer a beer!
