                               Psi4 1.8.2 release

  ==> Input File <==

--------------------------------------------------------------------------
MEMORY 60 GB

molecule dimer {
-1 1
F          0.000000     0.000000     0.000000
O         -2.498532    -0.881431    -0.464596
H         -3.244844    -0.373050    -0.742977
H         -1.787443    -0.231783    -0.439473
O          0.821961    -0.941013    -2.487806
H          0.553219    -0.751966    -1.546993
H          0.984333    -1.880222    -2.681248
O          2.741876     1.268113     0.623068
H          1.805546     0.967787     0.731277
H          2.912001     1.778305     1.404663
O          0.039880    -2.040644     1.862439
H         -0.844297    -2.487575     1.683009
H          0.092425    -1.237739     1.280131
O         -0.422554     1.200836     2.437095
H         -0.724798     2.111332     2.489843
H         -0.282246     0.936943     1.519701

units ang
no_reorient
no_com
symmetry c1
}

set {
basis        aug-cc-pVTZ
scf_type     df
}

energy("mp2")
--------------------------------------------------------------------------

    Molecular point group: c1

    Geometry (in Angstrom), charge = -1, multiplicity = 1:

       Center              X                  Y                   Z               Mass
    ------------   -----------------  -----------------  -----------------  -----------------
         F            0.000000000000     0.000000000000     0.000000000000    18.998403162730
         O           -2.498532000000    -0.881431000000    -0.464596000000    15.994914619570
         H           -3.244844000000    -0.373050000000    -0.742977000000     1.007825032230
         H           -1.787443000000    -0.231783000000    -0.439473000000     1.007825032230
         O            0.821961000000    -0.941013000000    -2.487806000000    15.994914619570
         H            0.553219000000    -0.751966000000    -1.546993000000     1.007825032230
         H            0.984333000000    -1.880222000000    -2.681248000000     1.007825032230
         O            2.741876000000     1.268113000000     0.623068000000    15.994914619570
         H            1.805546000000     0.967787000000     0.731277000000     1.007825032230
         H            2.912001000000     1.778305000000     1.404663000000     1.007825032230
         O            0.039880000000    -2.040644000000     1.862439000000    15.994914619570
         H           -0.844297000000    -2.487575000000     1.683009000000     1.007825032230
         H            0.092425000000    -1.237739000000     1.280131000000     1.007825032230
         O           -0.422554000000     1.200836000000     2.437095000000    15.994914619570
         H           -0.724798000000     2.111332000000     2.489843000000     1.007825032230
         H           -0.282246000000     0.936943000000     1.519701000000     1.007825032230

  Charge       = -1
  Multiplicity = 1
  Basis Set: AUG-CC-PVTZ
    Blend: AUG-CC-PVTZ
  Basis Set: (AUG-CC-PVTZ AUX)
    Blend: AUG-CC-PVTZ-JKFIT

    Orbital Energies [Eh]
    ---------------------

    Doubly Occupied:

       1A    -25.988755     2A    -20.414475     3A    -20.406236
       4A    -20.405834     5A    -20.388668     6A    -20.381934
       7A     -1.256328     8A     -1.197526     9A     -1.195088
      10A     -1.190699    11A     -1.158901    12A     -1.144364
      13A     -0.577755    14A     -0.562617    15A     -0.556219
      16A     -0.548374    17A     -0.519921    18A     -0.436414
      19A     -0.433936    20A     -0.422601    21A     -0.399529
      22A     -0.395218    23A     -0.357506    24A     -0.357213
      25A     -0.353854    26A     -0.346240    27A     -0.341279
      28A     -0.337731    29A     -0.329796    30A     -0.319573

  @DF-RHF Final Energy:  -479.84900715461958

   => Energetics <=

    Nuclear Repulsion Energy =            261.0545287234093053
    One-Electron Energy =               -1196.3578974605734402
    Two-Electron Energy =                 455.4543615825446068
    Total Energy =                       -479.8490071546195850
 Dipole X            :        -10.5334709            9.3067953           -1.2266755
 Dipole Y            :         24.5739336          -23.2834668            1.2904669
 Dipole Z            :        -37.1283447           36.7731879           -0.3551568
 Magnitude           :                                                    1.8155368
  Basis Set: (AUG-CC-PVTZ AUX)
    Blend: AUG-CC-PVTZ-RI
	 Reference Energy          =    -479.8490071546195850 [Eh]
	 Singles Energy            =      -0.0000000000000000 [Eh]
	 Same-Spin Energy          =      -0.4330309802240757 [Eh]
	 Opposite-Spin Energy      =      -1.3163596790949432 [Eh]
	 Correlation Energy        =      -1.7493906593190189 [Eh]
	 Total Energy              =    -481.5983978139386181 [Eh]

	 ================> DF-SCS-MP2 Energies <==================
	-----------------------------------------------------------
	 SCS Same-Spin Scale       =       0.3333333333333333 [-]
	 SCS Opposite-Spin Scale   =       1.2000000000000000 [-]
	 SCS Same-Spin Energy      =      -0.1443436600746919 [Eh]
	 SCS Opposite-Spin Energy  =      -1.5796316149139318 [Eh]
	 SCS Correlation Energy    =      -1.7239752749886237 [Eh]
	 SCS Total Energy          =    -481.5729824296082029 [Eh]
	-----------------------------------------------------------

*** Psi4 exiting successfully. Buy a developer a beer!
