                               Psi4 1.8.2 release

  ==> Input File <==

--------------------------------------------------------------------------
MEMORY 60 GB

molecule dimer {
0 1
Gh(F)      0.000000     0.000000     0.000000
O          2.575075     1.073331     0.885547
H          2.106665     1.918583     0.702596
H          2.020041     0.521984     0.325554
Gh(O)      0.883125    -2.526453     0.876729
Gh(H)      0.128634    -3.022285     1.173703
Gh(H)      0.480571    -1.707949     0.521989
Gh(O)     -1.584240    -0.527688    -2.161408
Gh(H)     -1.072012    -0.480481    -1.337240
Gh(H)     -1.395342    -1.397524    -2.511963
Gh(O)     -2.043312     1.766266     0.317173
Gh(H)     -2.873447     1.429607    -0.044182
Gh(H)     -1.403098     0.963197     0.113049
Gh(O)     -0.453685     0.678264     2.814720
Gh(H)      0.049164     0.242469     2.102026
Gh(H)     -1.380466     0.343591     2.776247

units ang
no_reorient
no_com
symmetry c1
}

set {
basis        aug-cc-pVTZ
scf_type     df
}

energy("mp2")
--------------------------------------------------------------------------

    Molecular point group: c1

    Geometry (in Angstrom), charge = 0, multiplicity = 1:

       Center              X                  Y                   Z               Mass
    ------------   -----------------  -----------------  -----------------  -----------------
      Gh(F)           0.000000000000     0.000000000000     0.000000000000    18.998403162730
         O            2.575075000000     1.073331000000     0.885547000000    15.994914619570
         H            2.106665000000     1.918583000000     0.702596000000     1.007825032230
         H            2.020041000000     0.521984000000     0.325554000000     1.007825032230
      Gh(O)           0.883125000000    -2.526453000000     0.876729000000    15.994914619570
      Gh(H)           0.128634000000    -3.022285000000     1.173703000000     1.007825032230
      Gh(H)           0.480571000000    -1.707949000000     0.521989000000     1.007825032230
      Gh(O)          -1.584240000000    -0.527688000000    -2.161408000000    15.994914619570
      Gh(H)          -1.072012000000    -0.480481000000    -1.337240000000     1.007825032230
      Gh(H)          -1.395342000000    -1.397524000000    -2.511963000000     1.007825032230
      Gh(O)          -2.043312000000     1.766266000000     0.317173000000    15.994914619570
      Gh(H)          -2.873447000000     1.429607000000    -0.044182000000     1.007825032230
      Gh(H)          -1.403098000000     0.963197000000     0.113049000000     1.007825032230
      Gh(O)          -0.453685000000     0.678264000000     2.814720000000    15.994914619570
      Gh(H)           0.049164000000     0.242469000000     2.102026000000     1.007825032230
      Gh(H)          -1.380466000000     0.343591000000     2.776247000000     1.007825032230

  Charge       = 0
  Multiplicity = 1
  Basis Set: AUG-CC-PVTZ
    Blend: AUG-CC-PVTZ
  Basis Set: (AUG-CC-PVTZ AUX)
    Blend: AUG-CC-PVTZ-JKFIT

    Orbital Energies [Eh]
    ---------------------

    Doubly Occupied:

       1A    -20.573262     2A     -1.351719     3A     -0.693005
       4A     -0.597995     5A     -0.511477

  @DF-RHF Final Energy:   -76.05685572672274

   => Energetics <=

    Nuclear Repulsion Energy =              9.0696461749332897
    One-Electron Energy =                -122.7980840634485133
    Two-Electron Energy =                  37.6715821617924860
    Total Energy =                        -76.0568557267227447
 Dipole X            :        -47.3874780           46.7278362           -0.6596418
 Dipole Y            :        -20.6538062           20.8384163            0.1846100
 Dipole Z            :        -15.8105093           15.3304523           -0.4800570
 Magnitude           :                                                    0.8364585
  Basis Set: (AUG-CC-PVTZ AUX)
    Blend: AUG-CC-PVTZ-RI
	 Reference Energy          =     -76.0568557267227447 [Eh]
	 Singles Energy            =      -0.0000000000000000 [Eh]
	 Same-Spin Energy          =      -0.0689066535228882 [Eh]
	 Opposite-Spin Energy      =      -0.2171336833368335 [Eh]
	 Correlation Energy        =      -0.2860403368597217 [Eh]
	 Total Energy              =     -76.3428960635824723 [Eh]

	 ================> DF-SCS-MP2 Energies <==================
	-----------------------------------------------------------
	 SCS Same-Spin Scale       =       0.3333333333333333 [-]
	 SCS Opposite-Spin Scale   =       1.2000000000000000 [-]
	 SCS Same-Spin Energy      =      -0.0229688845076294 [Eh]
	 SCS Opposite-Spin Energy  =      -0.2605604200042002 [Eh]
	 SCS Correlation Energy    =      -0.2835293045118296 [Eh]
	 SCS Total Energy          =     -76.3403850312345753 [Eh]
	-----------------------------------------------------------

*** Psi4 exiting successfully. Buy a developer a beer!
