                               Psi4 1.9 release

  ==> Input File <==

--------------------------------------------------------------------------
MEMORY 60 GB

molecule dimer {
-1 1
F      0.000000     0.000000     0.000000
--
0 1
O      0.020616    -2.622130    -0.705666
H      0.176062    -1.700924    -0.426870
H      0.795461    -2.839266    -1.297010
O     -2.870261    -0.000471     0.338715
H     -2.996147     0.666526     1.009785
H     -1.893125    -0.105935     0.214458
O     -0.001472     2.687410     0.723673
H      0.881290     2.822564     0.332212
H     -0.142487     1.752329     0.774552
O      2.136094    -0.056435     1.706865
H      1.433639    -0.096855     0.999761
H      1.859747     0.765500     2.240514
O     -1.199236     1.217659    -2.416045
H     -0.472625     1.733742    -2.621158
H     -0.898635     0.774842    -1.566927

units ang
no_reorient
no_com
symmetry c1
}

set {
basis        aug-cc-pVTZ
scf_type     df
}

energy("mp2", bsse_type="cp")
--------------------------------------------------------------------------

                               Psi4 1.9 release
    Molecular point group: c1
  Charge       = 0
  Multiplicity = 1
  Basis Set: AUG-CC-PVTZ
    Blend: AUG-CC-PVTZ
  Basis Set: (AUG-CC-PVTZ AUX)
    Blend: AUG-CC-PVTZ-JKFIT
  @DF-RHF Final Energy:  -380.26476778800964
    Total Energy =                       -380.2647677880096353
 Dipole X            :         32.9267954          -31.3144475            1.6123478
 Dipole Y            :        -24.7810059           25.6639680            0.8829621
 Dipole Z            :          6.2032850           -5.9721903            0.2310947
 Magnitude           :                                                    1.8527527
  Basis Set: (AUG-CC-PVTZ AUX)
    Blend: AUG-CC-PVTZ-RI
	 Reference Energy          =    -380.2647677880096353 [Eh]
	 Singles Energy            =      -0.0000000000000000 [Eh]
	 Same-Spin Energy          =      -0.3461285486820636 [Eh]
	 Opposite-Spin Energy      =      -1.0893218385161219 [Eh]
	 Correlation Energy        =      -1.4354503871981854 [Eh]
	 Total Energy              =    -381.7002181752077945 [Eh]
	 SCS Total Energy          =    -381.6873301771229876 [Eh]
                               Psi4 1.9 release
    Molecular point group: c1
  Multiplicity = 1
  Basis Set: AUG-CC-PVTZ
    Blend: AUG-CC-PVTZ
  Basis Set: (AUG-CC-PVTZ AUX)
    Blend: AUG-CC-PVTZ-JKFIT
  @DF-RHF Final Energy:   -99.45110663696030
    Total Energy =                        -99.4511066369603043
  Basis Set: (AUG-CC-PVTZ AUX)
	 Singles Energy            =      -0.0000000000000000 [Eh]
	 Same-Spin Energy          =      -0.0820416638856643 [Eh]
	 Opposite-Spin Energy      =      -0.2300402730508786 [Eh]
	 Correlation Energy        =      -0.3120819369365429 [Eh]
	 Total Energy              =     -99.7631885738968407 [Eh]
	 SCS Total Energy          =     -99.7545021859165786 [Eh]
                               Psi4 1.9 release
    Molecular point group: c1

    Geometry (in Bohr), charge = -1, multiplicity = 1:

       Center              X                  Y                   Z               Mass
    ------------   -----------------  -----------------  -----------------  -----------------
         F            0.000000000000     0.000000000000     0.000000000000    18.998403162730
         O            0.038958593802    -4.955107565347    -1.333515476047    15.994914619570
         H            0.332708961100    -3.214280520218    -0.806667391174     1.007825032230
         H            1.503203433483    -5.365435137324    -2.450993681980     1.007825032230
         O           -5.424007198583    -0.000890061005     0.640078584584    15.994914619570
         H           -5.661897261612     1.259551595497     1.908217095595     1.007825032230
         H           -3.577487771257    -0.200188137100     0.405266885413     1.007825032230
         O           -0.002781676857     5.078468886817     1.367543774388    15.994914619570
         H            1.665396737105     5.333872931577     0.627789695591     1.007825032230
         H           -0.269261406438     3.311421891697     1.463691149926     1.007825032230
         O            4.036632638234    -0.106646693890     3.225507383130    15.994914619570
         H            2.709185072775    -0.183029423881     1.889274480914     1.007825032230
         H            3.514412492642     1.446585349038     4.233957840254     1.007825032230
         O           -2.266227599790     2.301042024199    -4.565663356782    15.994914619570
         H           -0.893131810045     3.276297552204    -4.953270751553     1.007825032230
         H           -1.698174036751     1.464239170502    -2.961062888585     1.007825032230

  Charge       = -1
  Multiplicity = 1
  Basis Set: AUG-CC-PVTZ
    Blend: AUG-CC-PVTZ
  Basis Set: (AUG-CC-PVTZ AUX)
    Blend: AUG-CC-PVTZ-JKFIT

    Orbital Energies [Eh]
    ---------------------

    Doubly Occupied:

       1A    -26.006903     2A    -20.420190     3A    -20.412392
       4A    -20.401526     5A    -20.401167     6A    -20.400777
       7A     -1.274903     8A     -1.206358     9A     -1.193770
      10A     -1.180772    11A     -1.171849    12A     -1.170823
      13A     -0.581057    14A     -0.559526    15A     -0.546711
      16A     -0.540950    17A     -0.534176    18A     -0.449188
      19A     -0.439900    20A     -0.427810    21A     -0.422704
      22A     -0.419089    23A     -0.370979    24A     -0.365136
      25A     -0.356974    26A     -0.355487    27A     -0.349079
      28A     -0.347124    29A     -0.342479    30A     -0.339416

  @DF-RHF Final Energy:  -479.85414320088177

   => Energetics <=

    Nuclear Repulsion Energy =            262.1808955732350341
    One-Electron Energy =               -1198.0916435180934059
    Two-Electron Energy =                 456.0566047439766066
    Total Energy =                       -479.8541432008817651
 Dipole X            :         33.0135885          -31.3144475            1.6991409
 Dipole Y            :        -24.9202354           25.6639680            0.7437326
 Dipole Z            :          6.1721556           -5.9721903            0.1999653
 Magnitude           :                                                    1.8655305
  Basis Set: (AUG-CC-PVTZ AUX)
    Blend: AUG-CC-PVTZ-RI
	 Reference Energy          =    -479.8541432008817651 [Eh]
	 Singles Energy            =      -0.0000000000000000 [Eh]
	 Same-Spin Energy          =      -0.4332545887248845 [Eh]
	 Opposite-Spin Energy      =      -1.3174579802398318 [Eh]
	 Correlation Energy        =      -1.7507125689647163 [Eh]
	 Total Energy              =    -481.6048557698464947 [Eh]

	 ================> DF-SCS-MP2 Energies <==================
	-----------------------------------------------------------
	 SCS Same-Spin Scale       =       0.3333333333333333 [-]
	 SCS Opposite-Spin Scale   =       1.2000000000000000 [-]
	 SCS Same-Spin Energy      =      -0.1444181962416282 [Eh]
	 SCS Opposite-Spin Energy  =      -1.5809495762877981 [Eh]
	 SCS Correlation Energy    =      -1.7253677725294263 [Eh]
	 SCS Total Energy          =    -481.5795109734111747 [Eh]
	-----------------------------------------------------------

*** Psi4 exiting successfully. Buy a developer a beer!
