                               Psi4 1.8.2 release

  ==> Input File <==

--------------------------------------------------------------------------
MEMORY 60 GB

molecule dimer {
0 1
Gh(F)      0.000000     0.000000     0.000000
Gh(O)     -0.207769    -2.327129     1.239569
Gh(H)      0.037713    -3.149829     0.838322
Gh(H)     -0.081193    -1.636015     0.550989
Gh(O)     -2.599898    -0.694839    -0.679029
Gh(H)     -2.709680    -0.858637    -1.571457
Gh(H)     -1.656530    -0.607954    -0.409434
Gh(O)      1.812665     1.083834     2.219277
Gh(H)      1.153673     0.568273     1.755293
Gh(H)      1.370089     1.213940     3.097476
O          2.512982    -1.496631    -0.619434
H          1.794318    -0.888816    -0.358592
H          2.943913    -1.115172    -1.446926
Gh(O)     -0.703861     1.904262    -1.805602
Gh(H)     -1.312640     2.645681    -1.719120
Gh(H)     -0.646566     1.565853    -0.948304

units ang
no_reorient
no_com
symmetry c1
}

set {
basis        aug-cc-pVTZ
scf_type     df
}

energy("mp2")
--------------------------------------------------------------------------

    Molecular point group: c1

    Geometry (in Angstrom), charge = 0, multiplicity = 1:

       Center              X                  Y                   Z               Mass
    ------------   -----------------  -----------------  -----------------  -----------------
      Gh(F)           0.000000000000     0.000000000000     0.000000000000    18.998403162730
      Gh(O)          -0.207769000000    -2.327129000000     1.239569000000    15.994914619570
      Gh(H)           0.037713000000    -3.149829000000     0.838322000000     1.007825032230
      Gh(H)          -0.081193000000    -1.636015000000     0.550989000000     1.007825032230
      Gh(O)          -2.599898000000    -0.694839000000    -0.679029000000    15.994914619570
      Gh(H)          -2.709680000000    -0.858637000000    -1.571457000000     1.007825032230
      Gh(H)          -1.656530000000    -0.607954000000    -0.409434000000     1.007825032230
      Gh(O)           1.812665000000     1.083834000000     2.219277000000    15.994914619570
      Gh(H)           1.153673000000     0.568273000000     1.755293000000     1.007825032230
      Gh(H)           1.370089000000     1.213940000000     3.097476000000     1.007825032230
         O            2.512982000000    -1.496631000000    -0.619434000000    15.994914619570
         H            1.794318000000    -0.888816000000    -0.358592000000     1.007825032230
         H            2.943913000000    -1.115172000000    -1.446926000000     1.007825032230
      Gh(O)          -0.703861000000     1.904262000000    -1.805602000000    15.994914619570
      Gh(H)          -1.312640000000     2.645681000000    -1.719120000000     1.007825032230
      Gh(H)          -0.646566000000     1.565853000000    -0.948304000000     1.007825032230

  Charge       = 0
  Multiplicity = 1
  Basis Set: AUG-CC-PVTZ
    Blend: AUG-CC-PVTZ
  Basis Set: (AUG-CC-PVTZ AUX)
    Blend: AUG-CC-PVTZ-JKFIT

    Orbital Energies [Eh]
    ---------------------

    Doubly Occupied:

       1A    -20.571762     2A     -1.334484     3A     -0.704094
       4A     -0.572615     5A     -0.506687

  @DF-RHF Final Energy:   -76.05555916534995

   => Energetics <=

    Nuclear Repulsion Energy =              8.8653358198552592
    One-Electron Energy =                -122.4625007189349759
    Two-Electron Energy =                  37.5416057337297602
    Total Energy =                        -76.0555591653499619
 Dipole X            :        -47.1373985           46.9447408           -0.1926577
 Dipole Y            :         27.0634352          -26.4127701            0.6506651
 Dipole Z            :         12.4078231          -12.7764194           -0.3685963
 Magnitude           :                                                    0.7722340
  Basis Set: (AUG-CC-PVTZ AUX)
    Blend: AUG-CC-PVTZ-RI
	 Reference Energy          =     -76.0555591653499476 [Eh]
	 Singles Energy            =      -0.0000000000000000 [Eh]
	 Same-Spin Energy          =      -0.0689608043173537 [Eh]
	 Opposite-Spin Energy      =      -0.2176959814454275 [Eh]
	 Correlation Energy        =      -0.2866567857627811 [Eh]
	 Total Energy              =     -76.3422159511127347 [Eh]

	 ================> DF-SCS-MP2 Energies <==================
	-----------------------------------------------------------
	 SCS Same-Spin Scale       =       0.3333333333333333 [-]
	 SCS Opposite-Spin Scale   =       1.2000000000000000 [-]
	 SCS Same-Spin Energy      =      -0.0229869347724512 [Eh]
	 SCS Opposite-Spin Energy  =      -0.2612351777345129 [Eh]
	 SCS Correlation Energy    =      -0.2842221125069642 [Eh]
	 SCS Total Energy          =     -76.3397812778569147 [Eh]
	-----------------------------------------------------------

*** Psi4 exiting successfully. Buy a developer a beer!
