                               Psi4 1.8.2 release

  ==> Input File <==

--------------------------------------------------------------------------
MEMORY 60 GB

molecule dimer {
0 1
Gh(F)      0.000000     0.000000     0.000000
Gh(O)     -1.634092    -2.280820    -0.139745
Gh(H)     -2.469094    -2.598153    -0.454292
Gh(H)     -1.459954    -1.358967    -0.387524
O          2.308208    -1.014352     1.406738
H          2.138362    -1.947872     1.369305
H          1.553052    -0.587244     0.905967
Gh(O)     -0.221383     0.329741     2.737359
Gh(H)     -0.415990     0.182845     1.824673
Gh(H)      0.050573     1.283931     2.640379
Gh(O)      1.357013    -0.222007    -2.440875
Gh(H)      1.051868    -0.181679    -1.581215
Gh(H)      0.660440    -0.731668    -2.801612
Gh(O)     -1.883257     1.778764    -0.837831
Gh(H)     -1.474462     2.655647    -0.726004
Gh(H)     -1.106142     1.188873    -0.668005

units ang
no_reorient
no_com
symmetry c1
}

set {
basis        aug-cc-pVTZ
scf_type     df
}

energy("mp2")
--------------------------------------------------------------------------

    Molecular point group: c1

    Geometry (in Angstrom), charge = 0, multiplicity = 1:

       Center              X                  Y                   Z               Mass
    ------------   -----------------  -----------------  -----------------  -----------------
      Gh(F)           0.000000000000     0.000000000000     0.000000000000    18.998403162730
      Gh(O)          -1.634092000000    -2.280820000000    -0.139745000000    15.994914619570
      Gh(H)          -2.469094000000    -2.598153000000    -0.454292000000     1.007825032230
      Gh(H)          -1.459954000000    -1.358967000000    -0.387524000000     1.007825032230
         O            2.308208000000    -1.014352000000     1.406738000000    15.994914619570
         H            2.138362000000    -1.947872000000     1.369305000000     1.007825032230
         H            1.553052000000    -0.587244000000     0.905967000000     1.007825032230
      Gh(O)          -0.221383000000     0.329741000000     2.737359000000    15.994914619570
      Gh(H)          -0.415990000000     0.182845000000     1.824673000000     1.007825032230
      Gh(H)           0.050573000000     1.283931000000     2.640379000000     1.007825032230
      Gh(O)           1.357013000000    -0.222007000000    -2.440875000000    15.994914619570
      Gh(H)           1.051868000000    -0.181679000000    -1.581215000000     1.007825032230
      Gh(H)           0.660440000000    -0.731668000000    -2.801612000000     1.007825032230
      Gh(O)          -1.883257000000     1.778764000000    -0.837831000000    15.994914619570
      Gh(H)          -1.474462000000     2.655647000000    -0.726004000000     1.007825032230
      Gh(H)          -1.106142000000     1.188873000000    -0.668005000000     1.007825032230

  Charge       = 0
  Multiplicity = 1
  Basis Set: AUG-CC-PVTZ
    Blend: AUG-CC-PVTZ
  Basis Set: (AUG-CC-PVTZ AUX)
    Blend: AUG-CC-PVTZ-JKFIT

    Orbital Energies [Eh]
    ---------------------

    Doubly Occupied:

       1A    -20.569789     2A     -1.344255     3A     -0.709561
       4A     -0.579485     5A     -0.508639

  @DF-RHF Final Energy:   -76.05765497907079

   => Energetics <=

    Nuclear Repulsion Energy =              9.0252848024581844
    One-Electron Energy =                -122.7424194811831626
    Two-Electron Energy =                  37.6594796996541987
    Total Energy =                        -76.0576549790707759
 Dipole X            :        -42.4776572           41.8708092           -0.6068481
 Dipole Y            :         19.7840361          -20.1254547           -0.3414187
 Dipole Z            :        -25.9189920           25.5664373           -0.3525546
 Magnitude           :                                                    0.7804653
  Basis Set: (AUG-CC-PVTZ AUX)
    Blend: AUG-CC-PVTZ-RI
	 Reference Energy          =     -76.0576549790707901 [Eh]
	 Singles Energy            =      -0.0000000000000000 [Eh]
	 Same-Spin Energy          =      -0.0687007911577796 [Eh]
	 Opposite-Spin Energy      =      -0.2170531176549044 [Eh]
	 Correlation Energy        =      -0.2857539088126841 [Eh]
	 Total Energy              =     -76.3434088878834700 [Eh]

	 ================> DF-SCS-MP2 Energies <==================
	-----------------------------------------------------------
	 SCS Same-Spin Scale       =       0.3333333333333333 [-]
	 SCS Opposite-Spin Scale   =       1.2000000000000000 [-]
	 SCS Same-Spin Energy      =      -0.0229002637192599 [Eh]
	 SCS Opposite-Spin Energy  =      -0.2604637411858853 [Eh]
	 SCS Correlation Energy    =      -0.2833640049051452 [Eh]
	 SCS Total Energy          =     -76.3410189839759283 [Eh]
	-----------------------------------------------------------

*** Psi4 exiting successfully. Buy a developer a beer!
