                               Psi4 1.8.2 release

  ==> Input File <==

--------------------------------------------------------------------------
MEMORY 60 GB

molecule dimer {
-1 1
F          0.000000     0.000000     0.000000
Gh(O)     -0.438919    -0.065851    -2.824863
Gh(H)     -0.453151    -0.010706    -1.844303
Gh(H)      0.269337     0.572966    -3.103457
Gh(O)      1.699712     2.467898    -0.707959
Gh(H)      1.972730     2.097516    -1.527574
Gh(H)      0.803553     2.124371    -0.498661
Gh(O)     -1.598723     2.231195     0.689214
Gh(H)     -1.137580     1.418592     0.486558
Gh(H)     -1.200463     2.623434     1.455794
Gh(O)      0.369426    -1.062940     2.386597
Gh(H)      0.423642    -0.786785     1.439357
Gh(H)      1.049594    -0.462803     2.764259
Gh(O)     -2.326821    -1.205989    -0.091246
Gh(H)     -1.446384    -0.840894    -0.034548
Gh(H)     -2.150655    -2.055095    -0.428599
Gh(O)      2.110671    -1.418731    -1.257848
Gh(H)      1.265691    -1.026664    -0.962676
Gh(H)      2.460850    -0.901074    -2.008568

units ang
no_reorient
no_com
symmetry c1
}

set {
basis        aug-cc-pVTZ
scf_type     df
}

energy("mp2")
--------------------------------------------------------------------------

    Molecular point group: c1

    Geometry (in Angstrom), charge = -1, multiplicity = 1:

       Center              X                  Y                   Z               Mass
    ------------   -----------------  -----------------  -----------------  -----------------
         F            0.000000000000     0.000000000000     0.000000000000    18.998403162730
      Gh(O)          -0.438919000000    -0.065851000000    -2.824863000000    15.994914619570
      Gh(H)          -0.453151000000    -0.010706000000    -1.844303000000     1.007825032230
      Gh(H)           0.269337000000     0.572966000000    -3.103457000000     1.007825032230
      Gh(O)           1.699712000000     2.467898000000    -0.707959000000    15.994914619570
      Gh(H)           1.972730000000     2.097516000000    -1.527574000000     1.007825032230
      Gh(H)           0.803553000000     2.124371000000    -0.498661000000     1.007825032230
      Gh(O)          -1.598723000000     2.231195000000     0.689214000000    15.994914619570
      Gh(H)          -1.137580000000     1.418592000000     0.486558000000     1.007825032230
      Gh(H)          -1.200463000000     2.623434000000     1.455794000000     1.007825032230
      Gh(O)           0.369426000000    -1.062940000000     2.386597000000    15.994914619570
      Gh(H)           0.423642000000    -0.786785000000     1.439357000000     1.007825032230
      Gh(H)           1.049594000000    -0.462803000000     2.764259000000     1.007825032230
      Gh(O)          -2.326821000000    -1.205989000000    -0.091246000000    15.994914619570
      Gh(H)          -1.446384000000    -0.840894000000    -0.034548000000     1.007825032230
      Gh(H)          -2.150655000000    -2.055095000000    -0.428599000000     1.007825032230
      Gh(O)           2.110671000000    -1.418731000000    -1.257848000000    15.994914619570
      Gh(H)           1.265691000000    -1.026664000000    -0.962676000000     1.007825032230
      Gh(H)           2.460850000000    -0.901074000000    -2.008568000000     1.007825032230

  Charge       = -1
  Multiplicity = 1
  Basis Set: AUG-CC-PVTZ
    Blend: AUG-CC-PVTZ
  Basis Set: (AUG-CC-PVTZ AUX)
    Blend: AUG-CC-PVTZ-JKFIT

    Orbital Energies [Eh]
    ---------------------

    Doubly Occupied:

       1A    -25.833529     2A     -1.075853     3A     -0.180893
       4A     -0.180889     5A     -0.180878

  @DF-RHF Final Energy:   -99.45116901676333

   => Energetics <=

    Nuclear Repulsion Energy =              0.0000000000000000
    One-Electron Energy =                -143.9982458596008996
    Two-Electron Energy =                  44.5470768428375692
    Total Energy =                        -99.4511690167633304
 Dipole X            :         -0.0000796            0.0000000           -0.0000796
 Dipole Y            :         -0.0000176            0.0000000           -0.0000176
 Dipole Z            :         -0.0000548            0.0000000           -0.0000548
 Magnitude           :                                                    0.0000982
  Basis Set: (AUG-CC-PVTZ AUX)
    Blend: AUG-CC-PVTZ-RI
	 Reference Energy          =     -99.4511690167633304 [Eh]
	 Singles Energy            =      -0.0000000000000000 [Eh]
	 Same-Spin Energy          =      -0.0821099010881839 [Eh]
	 Opposite-Spin Energy      =      -0.2306982577546658 [Eh]
	 Correlation Energy        =      -0.3128081588428497 [Eh]
	 Total Energy              =     -99.7639771756061862 [Eh]

	 ================> DF-SCS-MP2 Energies <==================
	-----------------------------------------------------------
	 SCS Same-Spin Scale       =       0.3333333333333333 [-]
	 SCS Opposite-Spin Scale   =       1.2000000000000000 [-]
	 SCS Same-Spin Energy      =      -0.0273699670293946 [Eh]
	 SCS Opposite-Spin Energy  =      -0.2768379093055989 [Eh]
	 SCS Correlation Energy    =      -0.3042078763349936 [Eh]
	 SCS Total Energy          =     -99.7553768930983296 [Eh]
	-----------------------------------------------------------

*** Psi4 exiting successfully. Buy a developer a beer!
