                               Psi4 1.8.2 release

  ==> Input File <==

--------------------------------------------------------------------------
MEMORY 60 GB

molecule dimer {
0 1
Gh(F)      0.000000     0.000000     0.000000
O         -0.286622    -1.514715     2.435167
H         -0.402152    -1.045189     1.569146
H          0.608407    -1.883599     2.387395
Gh(O)     -2.461253    -1.232960    -1.069186
Gh(H)     -1.653607    -1.018445    -0.593070
Gh(H)     -2.664912    -0.521743    -1.698566
Gh(O)      2.627690     1.043131    -0.166942
Gh(H)      2.582567     0.776855    -1.104331
Gh(H)      1.672597     0.976927     0.122659
Gh(O)      0.537003    -1.242099    -2.661767
Gh(H)      0.000214    -0.978346    -3.428741
Gh(H)      0.354593    -0.727473    -1.893451
Gh(O)     -1.468053     1.104063     2.129759
Gh(H)     -0.967829     0.901328     1.361246
Gh(H)     -2.109567     0.364225     2.248548
Gh(O)      1.926326    -2.436781     0.093481
Gh(H)      2.827091    -2.287496     0.347949
Gh(H)      1.352146    -1.641731     0.155321
Gh(O)     -0.916969     2.226321    -1.648781
Gh(H)     -1.489975     1.706670    -2.249404
Gh(H)     -0.532336     1.455566    -1.146943

units ang
no_reorient
no_com
symmetry c1
}

set {
basis        aug-cc-pVTZ
scf_type     df
}

energy("mp2")
--------------------------------------------------------------------------

    Molecular point group: c1

    Geometry (in Angstrom), charge = 0, multiplicity = 1:

       Center              X                  Y                   Z               Mass
    ------------   -----------------  -----------------  -----------------  -----------------
      Gh(F)           0.000000000000     0.000000000000     0.000000000000    18.998403162730
         O           -0.286622000000    -1.514715000000     2.435167000000    15.994914619570
         H           -0.402152000000    -1.045189000000     1.569146000000     1.007825032230
         H            0.608407000000    -1.883599000000     2.387395000000     1.007825032230
      Gh(O)          -2.461253000000    -1.232960000000    -1.069186000000    15.994914619570
      Gh(H)          -1.653607000000    -1.018445000000    -0.593070000000     1.007825032230
      Gh(H)          -2.664912000000    -0.521743000000    -1.698566000000     1.007825032230
      Gh(O)           2.627690000000     1.043131000000    -0.166942000000    15.994914619570
      Gh(H)           2.582567000000     0.776855000000    -1.104331000000     1.007825032230
      Gh(H)           1.672597000000     0.976927000000     0.122659000000     1.007825032230
      Gh(O)           0.537003000000    -1.242099000000    -2.661767000000    15.994914619570
      Gh(H)           0.000214000000    -0.978346000000    -3.428741000000     1.007825032230
      Gh(H)           0.354593000000    -0.727473000000    -1.893451000000     1.007825032230
      Gh(O)          -1.468053000000     1.104063000000     2.129759000000    15.994914619570
      Gh(H)          -0.967829000000     0.901328000000     1.361246000000     1.007825032230
      Gh(H)          -2.109567000000     0.364225000000     2.248548000000     1.007825032230
      Gh(O)           1.926326000000    -2.436781000000     0.093481000000    15.994914619570
      Gh(H)           2.827091000000    -2.287496000000     0.347949000000     1.007825032230
      Gh(H)           1.352146000000    -1.641731000000     0.155321000000     1.007825032230
      Gh(O)          -0.916969000000     2.226321000000    -1.648781000000    15.994914619570
      Gh(H)          -1.489975000000     1.706670000000    -2.249404000000     1.007825032230
      Gh(H)          -0.532336000000     1.455566000000    -1.146943000000     1.007825032230

  Charge       = 0
  Multiplicity = 1
  Basis Set: AUG-CC-PVTZ
    Blend: AUG-CC-PVTZ
  Basis Set: (AUG-CC-PVTZ AUX)
    Blend: AUG-CC-PVTZ-JKFIT

    Orbital Energies [Eh]
    ---------------------

    Doubly Occupied:

       1A    -20.571236     2A     -1.342109     3A     -0.704521
       4A     -0.580989     5A     -0.508557

  @DF-RHF Final Energy:   -76.05797750802583

   => Energetics <=

    Nuclear Repulsion Energy =              8.9779264330069228
    One-Electron Energy =                -122.6569813082881382
    Two-Electron Energy =                  37.6210773672553813
    Total Energy =                        -76.0579775080258287
 Dipole X            :          4.4561837           -3.9433312            0.5128525
 Dipole Y            :         28.4976680          -28.4337793            0.0638887
 Dipole Z            :        -44.8877288           44.2911685           -0.5965603
 Magnitude           :                                                    0.7892931
  Basis Set: (AUG-CC-PVTZ AUX)
    Blend: AUG-CC-PVTZ-RI
	 Reference Energy          =     -76.0579775080258287 [Eh]
	 Singles Energy            =      -0.0000000000000000 [Eh]
	 Same-Spin Energy          =      -0.0688490035041998 [Eh]
	 Opposite-Spin Energy      =      -0.2175871263661934 [Eh]
	 Correlation Energy        =      -0.2864361298703932 [Eh]
	 Total Energy              =     -76.3444136378962241 [Eh]

	 ================> DF-SCS-MP2 Energies <==================
	-----------------------------------------------------------
	 SCS Same-Spin Scale       =       0.3333333333333333 [-]
	 SCS Opposite-Spin Scale   =       1.2000000000000000 [-]
	 SCS Same-Spin Energy      =      -0.0229496678347333 [Eh]
	 SCS Opposite-Spin Energy  =      -0.2611045516394321 [Eh]
	 SCS Correlation Energy    =      -0.2840542194741653 [Eh]
	 SCS Total Energy          =     -76.3420317275000002 [Eh]
	-----------------------------------------------------------

*** Psi4 exiting successfully. Buy a developer a beer!
