                               Psi4 1.8.2 release

  ==> Input File <==

--------------------------------------------------------------------------
MEMORY 60 GB

molecule dimer {
-1 1
F          0.000000     0.000000     0.000000
O          2.510030    -0.661941    -0.832182
H          3.047987     0.136114    -0.766474
H          1.651515    -0.398683    -0.437510
O         -1.861163     1.391541     1.823140
H         -1.395324     0.891965     1.132552
H         -2.167141     2.148676     1.326070
O         -0.069818    -1.825737     1.950594
H          0.658754    -2.446451     1.867536
H         -0.032357    -1.190493     1.210077
O          2.118804     1.277032     1.563138
H          2.238847     0.825714     2.421086
H          1.328717     0.912441     1.134542
O         -2.940937    -0.619005    -0.168957
H         -2.026060    -0.454747    -0.472925
H         -3.379101    -1.135452    -0.844734
O          0.534776     0.816487    -2.672079
H          0.728932     1.193376    -1.819618
H         -0.414644     0.967166    -2.819436

units ang
no_reorient
no_com
symmetry c1
}

set {
basis        aug-cc-pVTZ
scf_type     df
}

energy("mp2")
--------------------------------------------------------------------------

    Molecular point group: c1

    Geometry (in Angstrom), charge = -1, multiplicity = 1:

       Center              X                  Y                   Z               Mass
    ------------   -----------------  -----------------  -----------------  -----------------
         F            0.000000000000     0.000000000000     0.000000000000    18.998403162730
         O            2.510030000000    -0.661941000000    -0.832182000000    15.994914619570
         H            3.047987000000     0.136114000000    -0.766474000000     1.007825032230
         H            1.651515000000    -0.398683000000    -0.437510000000     1.007825032230
         O           -1.861163000000     1.391541000000     1.823140000000    15.994914619570
         H           -1.395324000000     0.891965000000     1.132552000000     1.007825032230
         H           -2.167141000000     2.148676000000     1.326070000000     1.007825032230
         O           -0.069818000000    -1.825737000000     1.950594000000    15.994914619570
         H            0.658754000000    -2.446451000000     1.867536000000     1.007825032230
         H           -0.032357000000    -1.190493000000     1.210077000000     1.007825032230
         O            2.118804000000     1.277032000000     1.563138000000    15.994914619570
         H            2.238847000000     0.825714000000     2.421086000000     1.007825032230
         H            1.328717000000     0.912441000000     1.134542000000     1.007825032230
         O           -2.940937000000    -0.619005000000    -0.168957000000    15.994914619570
         H           -2.026060000000    -0.454747000000    -0.472925000000     1.007825032230
         H           -3.379101000000    -1.135452000000    -0.844734000000     1.007825032230
         O            0.534776000000     0.816487000000    -2.672079000000    15.994914619570
         H            0.728932000000     1.193376000000    -1.819618000000     1.007825032230
         H           -0.414644000000     0.967166000000    -2.819436000000     1.007825032230

  Charge       = -1
  Multiplicity = 1
  Basis Set: AUG-CC-PVTZ
    Blend: AUG-CC-PVTZ
  Basis Set: (AUG-CC-PVTZ AUX)
    Blend: AUG-CC-PVTZ-JKFIT

    Orbital Energies [Eh]
    ---------------------

    Doubly Occupied:

       1A    -26.001674     2A    -20.424816     3A    -20.422063
       4A    -20.414457     5A    -20.403075     6A    -20.387014
       7A    -20.386600     8A     -1.269882     9A     -1.206431
      10A     -1.205838    11A     -1.193053    12A     -1.188983
      13A     -1.169765    14A     -1.168719    15A     -0.581908
      16A     -0.575832    17A     -0.569861    18A     -0.553065
      19A     -0.544722    20A     -0.536186    21A     -0.441615
      22A     -0.439570    23A     -0.433526    24A     -0.432057
      25A     -0.419538    26A     -0.413357    27A     -0.375836
      28A     -0.369311    29A     -0.361007    30A     -0.358442
      31A     -0.352223    32A     -0.345398    33A     -0.344082
      34A     -0.332449    35A     -0.329029

  @DF-RHF Final Energy:  -555.91507757228885

   => Energetics <=

    Nuclear Repulsion Energy =            354.2620177522545077
    One-Electron Energy =               -1488.4514158810607114
    Two-Electron Energy =                 578.2743205565174094
    Total Energy =                       -555.9150775722888511
 Dipole X            :         -5.3094304            4.8635144           -0.4459160
 Dipole Y            :         -8.0354014            8.4596273            0.4242259
 Dipole Z            :        -29.9590628           28.8001783           -1.1588845
 Magnitude           :                                                    1.3121821
  Basis Set: (AUG-CC-PVTZ AUX)
    Blend: AUG-CC-PVTZ-RI
	 Reference Energy          =    -555.9150775722888511 [Eh]
	 Singles Energy            =      -0.0000000000000000 [Eh]
	 Same-Spin Energy          =      -0.5030695392903196 [Eh]
	 Opposite-Spin Energy      =      -1.5339466226453067 [Eh]
	 Correlation Energy        =      -2.0370161619356262 [Eh]
	 Total Energy              =    -557.9520937342244906 [Eh]

	 ================> DF-SCS-MP2 Energies <==================
	-----------------------------------------------------------
	 SCS Same-Spin Scale       =       0.3333333333333333 [-]
	 SCS Opposite-Spin Scale   =       1.2000000000000000 [-]
	 SCS Same-Spin Energy      =      -0.1676898464301065 [Eh]
	 SCS Opposite-Spin Energy  =      -1.8407359471743678 [Eh]
	 SCS Correlation Energy    =      -2.0084257936044745 [Eh]
	 SCS Total Energy          =    -557.9235033658933389 [Eh]
	-----------------------------------------------------------

*** Psi4 exiting successfully. Buy a developer a beer!
