                               Psi4 1.8.2 release

  ==> Input File <==

--------------------------------------------------------------------------
MEMORY 60 GB

molecule dimer {
0 1
Gh(F)      0.000000     0.000000     0.000000
Gh(O)      0.316579     2.487371    -1.033870
Gh(H)     -0.299784     2.958747    -1.698141
Gh(H)      0.068567     1.636716    -0.609642
Gh(O)     -2.966622    -0.324922    -0.279360
Gh(H)     -1.997157    -0.168453    -0.193960
Gh(H)     -3.039299    -1.203601    -0.674475
Gh(O)      2.620493     0.082477    -0.913598
Gh(H)      3.090818    -0.144429    -0.074903
Gh(H)      1.665367     0.173836    -0.709739
O         -1.016627     1.008044     2.356890
H         -0.498021     0.696455     1.582640
H         -1.005983     0.224406     2.964702
Gh(O)     -0.584061    -0.002881    -2.710546
Gh(H)      0.203428     0.427802    -3.052160
Gh(H)     -0.399019    -0.109730    -1.768497

units ang
no_reorient
no_com
symmetry c1
}

set {
basis        aug-cc-pVTZ
scf_type     df
}

energy("mp2")
--------------------------------------------------------------------------

    Molecular point group: c1

    Geometry (in Angstrom), charge = 0, multiplicity = 1:

       Center              X                  Y                   Z               Mass
    ------------   -----------------  -----------------  -----------------  -----------------
      Gh(F)           0.000000000000     0.000000000000     0.000000000000    18.998403162730
      Gh(O)           0.316579000000     2.487371000000    -1.033870000000    15.994914619570
      Gh(H)          -0.299784000000     2.958747000000    -1.698141000000     1.007825032230
      Gh(H)           0.068567000000     1.636716000000    -0.609642000000     1.007825032230
      Gh(O)          -2.966622000000    -0.324922000000    -0.279360000000    15.994914619570
      Gh(H)          -1.997157000000    -0.168453000000    -0.193960000000     1.007825032230
      Gh(H)          -3.039299000000    -1.203601000000    -0.674475000000     1.007825032230
      Gh(O)           2.620493000000     0.082477000000    -0.913598000000    15.994914619570
      Gh(H)           3.090818000000    -0.144429000000    -0.074903000000     1.007825032230
      Gh(H)           1.665367000000     0.173836000000    -0.709739000000     1.007825032230
         O           -1.016627000000     1.008044000000     2.356890000000    15.994914619570
         H           -0.498021000000     0.696455000000     1.582640000000     1.007825032230
         H           -1.005983000000     0.224406000000     2.964702000000     1.007825032230
      Gh(O)          -0.584061000000    -0.002881000000    -2.710546000000    15.994914619570
      Gh(H)           0.203428000000     0.427802000000    -3.052160000000     1.007825032230
      Gh(H)          -0.399019000000    -0.109730000000    -1.768497000000     1.007825032230

  Charge       = 0
  Multiplicity = 1
  Basis Set: AUG-CC-PVTZ
    Blend: AUG-CC-PVTZ
  Basis Set: (AUG-CC-PVTZ AUX)
    Blend: AUG-CC-PVTZ-JKFIT

    Orbital Energies [Eh]
    ---------------------

    Doubly Occupied:

       1A    -20.572941     2A     -1.339573     3A     -0.699066
       4A     -0.581840     5A     -0.508390

  @DF-RHF Final Energy:   -76.05698104239464

   => Energetics <=

    Nuclear Repulsion Energy =              8.9190951495974442
    One-Electron Energy =                -122.5485284551521943
    Two-Electron Energy =                  37.5724522631601161
    Total Energy =                        -76.0569810423946393
 Dipole X            :         18.5565765          -18.2113285            0.3452481
 Dipole Y            :        -17.6913028           16.9795917           -0.7117111
 Dipole Z            :        -44.3341143           44.2242438           -0.1098705
 Magnitude           :                                                    0.7986241
  Basis Set: (AUG-CC-PVTZ AUX)
    Blend: AUG-CC-PVTZ-RI
	 Reference Energy          =     -76.0569810423946393 [Eh]
	 Singles Energy            =      -0.0000000000000000 [Eh]
	 Same-Spin Energy          =      -0.0689629212552023 [Eh]
	 Opposite-Spin Energy      =      -0.2177403797585923 [Eh]
	 Correlation Energy        =      -0.2867033010137946 [Eh]
	 Total Energy              =     -76.3436843434084409 [Eh]

	 ================> DF-SCS-MP2 Energies <==================
	-----------------------------------------------------------
	 SCS Same-Spin Scale       =       0.3333333333333333 [-]
	 SCS Opposite-Spin Scale   =       1.2000000000000000 [-]
	 SCS Same-Spin Energy      =      -0.0229876404184008 [Eh]
	 SCS Opposite-Spin Energy  =      -0.2612884557103108 [Eh]
	 SCS Correlation Energy    =      -0.2842760961287116 [Eh]
	 SCS Total Energy          =     -76.3412571385233463 [Eh]
	-----------------------------------------------------------

*** Psi4 exiting successfully. Buy a developer a beer!
