                               Psi4 1.8.2 release

  ==> Input File <==

--------------------------------------------------------------------------
MEMORY 60 GB

molecule dimer {
0 1
Gh(F)      0.000000     0.000000     0.000000
Gh(O)      2.300634    -1.333306    -0.902108
Gh(H)      1.393934    -1.048189    -0.537281
Gh(H)      2.196325    -1.676113    -1.778413
O         -0.721455     0.039200     2.664180
H         -0.478323    -0.147144     1.721719
H         -0.301277    -0.711256     3.142866
Gh(O)     -1.968178     1.181669    -1.178721
Gh(H)     -2.732253     0.755644    -0.806522
Gh(H)     -1.213738     0.822443    -0.721049
Gh(O)     -2.147115    -1.870979    -0.798426
Gh(H)     -1.363119    -1.488592    -0.414049
Gh(H)     -2.860249    -1.280709    -0.613524
Gh(O)      0.601987     2.534872     1.009589
Gh(H)      0.625186     1.602289     0.786548
Gh(H)      1.072015     2.565401     1.876249

units ang
no_reorient
no_com
symmetry c1
}

set {
basis        aug-cc-pVTZ
scf_type     df
}

energy("mp2")
--------------------------------------------------------------------------

    Molecular point group: c1

    Geometry (in Angstrom), charge = 0, multiplicity = 1:

       Center              X                  Y                   Z               Mass
    ------------   -----------------  -----------------  -----------------  -----------------
      Gh(F)           0.000000000000     0.000000000000     0.000000000000    18.998403162730
      Gh(O)           2.300634000000    -1.333306000000    -0.902108000000    15.994914619570
      Gh(H)           1.393934000000    -1.048189000000    -0.537281000000     1.007825032230
      Gh(H)           2.196325000000    -1.676113000000    -1.778413000000     1.007825032230
         O           -0.721455000000     0.039200000000     2.664180000000    15.994914619570
         H           -0.478323000000    -0.147144000000     1.721719000000     1.007825032230
         H           -0.301277000000    -0.711256000000     3.142866000000     1.007825032230
      Gh(O)          -1.968178000000     1.181669000000    -1.178721000000    15.994914619570
      Gh(H)          -2.732253000000     0.755644000000    -0.806522000000     1.007825032230
      Gh(H)          -1.213738000000     0.822443000000    -0.721049000000     1.007825032230
      Gh(O)          -2.147115000000    -1.870979000000    -0.798426000000    15.994914619570
      Gh(H)          -1.363119000000    -1.488592000000    -0.414049000000     1.007825032230
      Gh(H)          -2.860249000000    -1.280709000000    -0.613524000000     1.007825032230
      Gh(O)           0.601987000000     2.534872000000     1.009589000000    15.994914619570
      Gh(H)           0.625186000000     1.602289000000     0.786548000000     1.007825032230
      Gh(H)           1.072015000000     2.565401000000     1.876249000000     1.007825032230

  Charge       = 0
  Multiplicity = 1
  Basis Set: AUG-CC-PVTZ
    Blend: AUG-CC-PVTZ
  Basis Set: (AUG-CC-PVTZ AUX)
    Blend: AUG-CC-PVTZ-JKFIT

    Orbital Energies [Eh]
    ---------------------

    Doubly Occupied:

       1A    -20.573327     2A     -1.339820     3A     -0.697457
       4A     -0.583133     5A     -0.508569

  @DF-RHF Final Energy:   -76.05685883929787

   => Energetics <=

    Nuclear Repulsion Energy =              8.9165633738208285
    One-Electron Energy =                -122.5422275700696986
    Two-Electron Energy =                  37.5688053569509819
    Total Energy =                        -76.0568588392978882
 Dipole X            :         12.8104220          -12.3800494            0.4303727
 Dipole Y            :          0.4211148           -1.0295228           -0.6084080
 Dipole Z            :        -49.7693735           49.4692978           -0.3000757
 Magnitude           :                                                    0.8033843
  Basis Set: (AUG-CC-PVTZ AUX)
    Blend: AUG-CC-PVTZ-RI
	 Reference Energy          =     -76.0568588392978739 [Eh]
	 Singles Energy            =      -0.0000000000000000 [Eh]
	 Same-Spin Energy          =      -0.0689979530678760 [Eh]
	 Opposite-Spin Energy      =      -0.2178705822397183 [Eh]
	 Correlation Energy        =      -0.2868685353075943 [Eh]
	 Total Energy              =     -76.3437273746054643 [Eh]

	 ================> DF-SCS-MP2 Energies <==================
	-----------------------------------------------------------
	 SCS Same-Spin Scale       =       0.3333333333333333 [-]
	 SCS Opposite-Spin Scale   =       1.2000000000000000 [-]
	 SCS Same-Spin Energy      =      -0.0229993176892920 [Eh]
	 SCS Opposite-Spin Energy  =      -0.2614446986876619 [Eh]
	 SCS Correlation Energy    =      -0.2844440163769539 [Eh]
	 SCS Total Energy          =     -76.3413028556748259 [Eh]
	-----------------------------------------------------------

*** Psi4 exiting successfully. Buy a developer a beer!
