                               Psi4 1.8.2 release

  ==> Input File <==

--------------------------------------------------------------------------
MEMORY 60 GB

molecule dimer {
0 1
Gh(F)      0.000000     0.000000     0.000000
Gh(O)      1.569360     1.518618    -1.837610
Gh(H)      1.155301     1.598253    -2.718294
Gh(H)      0.927061     0.996283    -1.347020
Gh(O)      0.530386     0.269958     2.875111
Gh(H)      1.172033     0.849356     3.370842
Gh(H)      0.631636     0.167803     1.901881
Gh(O)     -0.928796    -2.527019    -0.372089
Gh(H)     -0.809957    -1.635358     0.032375
Gh(H)     -1.197638    -3.136721     0.344653
Gh(O)     -1.941797     1.884913     0.438019
Gh(H)     -1.127941     2.210082     0.062217
Gh(H)     -1.791200     0.968612     0.500762
Gh(O)     -2.979564    -0.679629     0.263051
Gh(H)     -3.238399    -1.549104     0.622195
Gh(H)     -3.682243    -0.073049     0.667091
O          1.997910    -1.718340     0.059017
H          1.266622    -1.101851    -0.130084
H          2.707820    -1.267608     0.569883

units ang
no_reorient
no_com
symmetry c1
}

set {
basis        aug-cc-pVTZ
scf_type     df
}

energy("mp2")
--------------------------------------------------------------------------

    Molecular point group: c1

    Geometry (in Angstrom), charge = 0, multiplicity = 1:

       Center              X                  Y                   Z               Mass
    ------------   -----------------  -----------------  -----------------  -----------------
      Gh(F)           0.000000000000     0.000000000000     0.000000000000    18.998403162730
      Gh(O)           1.569360000000     1.518618000000    -1.837610000000    15.994914619570
      Gh(H)           1.155301000000     1.598253000000    -2.718294000000     1.007825032230
      Gh(H)           0.927061000000     0.996283000000    -1.347020000000     1.007825032230
      Gh(O)           0.530386000000     0.269958000000     2.875111000000    15.994914619570
      Gh(H)           1.172033000000     0.849356000000     3.370842000000     1.007825032230
      Gh(H)           0.631636000000     0.167803000000     1.901881000000     1.007825032230
      Gh(O)          -0.928796000000    -2.527019000000    -0.372089000000    15.994914619570
      Gh(H)          -0.809957000000    -1.635358000000     0.032375000000     1.007825032230
      Gh(H)          -1.197638000000    -3.136721000000     0.344653000000     1.007825032230
      Gh(O)          -1.941797000000     1.884913000000     0.438019000000    15.994914619570
      Gh(H)          -1.127941000000     2.210082000000     0.062217000000     1.007825032230
      Gh(H)          -1.791200000000     0.968612000000     0.500762000000     1.007825032230
      Gh(O)          -2.979564000000    -0.679629000000     0.263051000000    15.994914619570
      Gh(H)          -3.238399000000    -1.549104000000     0.622195000000     1.007825032230
      Gh(H)          -3.682243000000    -0.073049000000     0.667091000000     1.007825032230
         O            1.997910000000    -1.718340000000     0.059017000000    15.994914619570
         H            1.266622000000    -1.101851000000    -0.130084000000     1.007825032230
         H            2.707820000000    -1.267608000000     0.569883000000     1.007825032230

  Charge       = 0
  Multiplicity = 1
  Basis Set: AUG-CC-PVTZ
    Blend: AUG-CC-PVTZ
  Basis Set: (AUG-CC-PVTZ AUX)
    Blend: AUG-CC-PVTZ-JKFIT

    Orbital Energies [Eh]
    ---------------------

    Doubly Occupied:

       1A    -20.568013     2A     -1.338230     3A     -0.716588
       4A     -0.568868     5A     -0.506611

  @DF-RHF Final Energy:   -76.05751475201541

   => Energetics <=

    Nuclear Repulsion Energy =              8.9731202403241710
    One-Electron Energy =                -122.6646470655884116
    Two-Electron Energy =                  37.6340120732488401
    Total Energy =                        -76.0575147520154076
 Dipole X            :        -37.7302394           37.7146287           -0.0156108
 Dipole Y            :         31.1690051          -30.4551645            0.7138406
 Dipole Z            :         -1.5090398            1.7233074            0.2142676
 Magnitude           :                                                    0.7454681
  Basis Set: (AUG-CC-PVTZ AUX)
    Blend: AUG-CC-PVTZ-RI
	 Reference Energy          =     -76.0575147520154076 [Eh]
	 Singles Energy            =      -0.0000000000000000 [Eh]
	 Same-Spin Energy          =      -0.0687364136109517 [Eh]
	 Opposite-Spin Energy      =      -0.2171931391703246 [Eh]
	 Correlation Energy        =      -0.2859295527812764 [Eh]
	 Total Energy              =     -76.3434443047966909 [Eh]

	 ================> DF-SCS-MP2 Energies <==================
	-----------------------------------------------------------
	 SCS Same-Spin Scale       =       0.3333333333333333 [-]
	 SCS Opposite-Spin Scale   =       1.2000000000000000 [-]
	 SCS Same-Spin Energy      =      -0.0229121378703172 [Eh]
	 SCS Opposite-Spin Energy  =      -0.2606317670043896 [Eh]
	 SCS Correlation Energy    =      -0.2835439048747068 [Eh]
	 SCS Total Energy          =     -76.3410586568901124 [Eh]
	-----------------------------------------------------------

*** Psi4 exiting successfully. Buy a developer a beer!
