                               Psi4 1.8.2 release

  ==> Input File <==

--------------------------------------------------------------------------
MEMORY 60 GB

molecule dimer {
0 1
Gh(F)      0.000000     0.000000     0.000000
O         -2.818009     0.609374     0.162654
H         -1.778956     0.483442     0.271480
H         -3.220632    -0.066597     0.720491
Gh(O)      2.085754    -1.822979    -0.697573
Gh(H)      2.754417    -1.496247    -1.384254
Gh(H)      1.490905    -1.032822    -0.528178
Gh(O)     -0.773104    -2.486148     1.447167
Gh(H)     -0.692628    -2.818456     0.550011
Gh(H)     -0.394834    -1.622647     1.363823
Gh(O)      2.467600     1.038241     0.886347
Gh(H)      2.596338     2.004501     0.812912
Gh(H)      1.536657     0.944574     0.699383
Gh(O)     -0.424368     1.472416    -2.159466
Gh(H)     -0.175504     0.768040    -2.700271
Gh(H)     -0.368831     1.043143    -1.301063
Gh(O)     -1.314798    -2.040510    -1.451150
Gh(H)     -0.878057    -1.502413    -0.767622
Gh(H)     -2.315826    -1.736101    -1.458899

units ang
no_reorient
no_com
symmetry c1
}

set {
basis        aug-cc-pVTZ
scf_type     df
}

energy("mp2")
--------------------------------------------------------------------------

    Molecular point group: c1

    Geometry (in Angstrom), charge = 0, multiplicity = 1:

       Center              X                  Y                   Z               Mass
    ------------   -----------------  -----------------  -----------------  -----------------
      Gh(F)           0.000000000000     0.000000000000     0.000000000000    18.998403162730
         O           -2.818009000000     0.609374000000     0.162654000000    15.994914619570
         H           -1.778956000000     0.483442000000     0.271480000000     1.007825032230
         H           -3.220632000000    -0.066597000000     0.720491000000     1.007825032230
      Gh(O)           2.085754000000    -1.822979000000    -0.697573000000    15.994914619570
      Gh(H)           2.754417000000    -1.496247000000    -1.384254000000     1.007825032230
      Gh(H)           1.490905000000    -1.032822000000    -0.528178000000     1.007825032230
      Gh(O)          -0.773104000000    -2.486148000000     1.447167000000    15.994914619570
      Gh(H)          -0.692628000000    -2.818456000000     0.550011000000     1.007825032230
      Gh(H)          -0.394834000000    -1.622647000000     1.363823000000     1.007825032230
      Gh(O)           2.467600000000     1.038241000000     0.886347000000    15.994914619570
      Gh(H)           2.596338000000     2.004501000000     0.812912000000     1.007825032230
      Gh(H)           1.536657000000     0.944574000000     0.699383000000     1.007825032230
      Gh(O)          -0.424368000000     1.472416000000    -2.159466000000    15.994914619570
      Gh(H)          -0.175504000000     0.768040000000    -2.700271000000     1.007825032230
      Gh(H)          -0.368831000000     1.043143000000    -1.301063000000     1.007825032230
      Gh(O)          -1.314798000000    -2.040510000000    -1.451150000000    15.994914619570
      Gh(H)          -0.878057000000    -1.502413000000    -0.767622000000     1.007825032230
      Gh(H)          -2.315826000000    -1.736101000000    -1.458899000000     1.007825032230

  Charge       = 0
  Multiplicity = 1
  Basis Set: AUG-CC-PVTZ
    Blend: AUG-CC-PVTZ
  Basis Set: (AUG-CC-PVTZ AUX)
    Blend: AUG-CC-PVTZ-JKFIT

    Orbital Energies [Eh]
    ---------------------

    Doubly Occupied:

       1A    -20.574850     2A     -1.329633     3A     -0.693297
       4A     -0.572256     5A     -0.506216

  @DF-RHF Final Energy:   -76.04996059541934

   => Energetics <=

    Nuclear Repulsion Energy =              8.7416251565973493
    One-Electron Energy =                -122.2306613534509125
    Two-Electron Energy =                  37.4390756014342330
    Total Energy =                        -76.0499605954193214
 Dipole X            :         52.4488192          -52.0499739            0.3988453
 Dipole Y            :        -10.5236502           10.0001226           -0.5235275
 Dipole Z            :         -3.8979741            4.3335256            0.4355515
 Magnitude           :                                                    0.7892172
  Basis Set: (AUG-CC-PVTZ AUX)
    Blend: AUG-CC-PVTZ-RI
	 Reference Energy          =     -76.0499605954193356 [Eh]
	 Singles Energy            =      -0.0000000000000000 [Eh]
	 Same-Spin Energy          =      -0.0692580140077800 [Eh]
	 Opposite-Spin Energy      =      -0.2188325675428227 [Eh]
	 Correlation Energy        =      -0.2880905815506027 [Eh]
	 Total Energy              =     -76.3380511769699410 [Eh]

	 ================> DF-SCS-MP2 Energies <==================
	-----------------------------------------------------------
	 SCS Same-Spin Scale       =       0.3333333333333333 [-]
	 SCS Opposite-Spin Scale   =       1.2000000000000000 [-]
	 SCS Same-Spin Energy      =      -0.0230860046692600 [Eh]
	 SCS Opposite-Spin Energy  =      -0.2625990810513872 [Eh]
	 SCS Correlation Energy    =      -0.2856850857206473 [Eh]
	 SCS Total Energy          =     -76.3356456811399795 [Eh]
	-----------------------------------------------------------

*** Psi4 exiting successfully. Buy a developer a beer!
