                               Psi4 1.8.2 release

  ==> Input File <==

--------------------------------------------------------------------------
MEMORY 60 GB

molecule dimer {
-1 1
F          0.000000     0.000000     0.000000
O         -1.099415     0.509468    -2.395867
H         -0.823277     0.145981    -1.541676
H         -1.890375     0.027373    -2.614284
O          0.238498     2.462715     1.298490
H          0.012979     3.164109     0.695784
H          0.008055     1.642894     0.840179
O          0.322958    -1.372463     2.497652
H         -0.493733    -1.781919     2.917983
H          0.095175    -0.785721     1.771503
O         -2.636381    -0.435403     0.978292
H         -1.761899    -0.148892     0.629044
H         -3.224729     0.257191     0.655683
O          2.875216     1.167609    -0.219419
H          2.072560     0.692871    -0.290350
H          3.166030     1.069334     0.690007

units ang
no_reorient
no_com
symmetry c1
}

set {
basis        aug-cc-pVTZ
scf_type     df
}

energy("mp2")
--------------------------------------------------------------------------

    Molecular point group: c1

    Geometry (in Angstrom), charge = -1, multiplicity = 1:

       Center              X                  Y                   Z               Mass
    ------------   -----------------  -----------------  -----------------  -----------------
         F            0.000000000000     0.000000000000     0.000000000000    18.998403162730
         O           -1.099415000000     0.509468000000    -2.395867000000    15.994914619570
         H           -0.823277000000     0.145981000000    -1.541676000000     1.007825032230
         H           -1.890375000000     0.027373000000    -2.614284000000     1.007825032230
         O            0.238498000000     2.462715000000     1.298490000000    15.994914619570
         H            0.012979000000     3.164109000000     0.695784000000     1.007825032230
         H            0.008055000000     1.642894000000     0.840179000000     1.007825032230
         O            0.322958000000    -1.372463000000     2.497652000000    15.994914619570
         H           -0.493733000000    -1.781919000000     2.917983000000     1.007825032230
         H            0.095175000000    -0.785721000000     1.771503000000     1.007825032230
         O           -2.636381000000    -0.435403000000     0.978292000000    15.994914619570
         H           -1.761899000000    -0.148892000000     0.629044000000     1.007825032230
         H           -3.224729000000     0.257191000000     0.655683000000     1.007825032230
         O            2.875216000000     1.167609000000    -0.219419000000    15.994914619570
         H            2.072560000000     0.692871000000    -0.290350000000     1.007825032230
         H            3.166030000000     1.069334000000     0.690007000000     1.007825032230

  Charge       = -1
  Multiplicity = 1
  Basis Set: AUG-CC-PVTZ
    Blend: AUG-CC-PVTZ
  Basis Set: (AUG-CC-PVTZ AUX)
    Blend: AUG-CC-PVTZ-JKFIT

    Orbital Energies [Eh]
    ---------------------

    Doubly Occupied:

       1A    -25.988604     2A    -20.418789     3A    -20.401861
       4A    -20.401647     5A    -20.400868     6A    -20.396168
       7A     -1.254154     8A     -1.198130     9A     -1.196026
      10A     -1.189188    11A     -1.184395    12A     -1.171733
      13A     -0.567019    14A     -0.562887    15A     -0.559848
      16A     -0.554456    17A     -0.551189    18A     -0.446319
      19A     -0.430493    20A     -0.427100    21A     -0.423563
      22A     -0.408175    23A     -0.363288    24A     -0.359127
      25A     -0.353725    26A     -0.346736    27A     -0.343114
      28A     -0.342177    29A     -0.337065    30A     -0.336244

  @DF-RHF Final Energy:  -479.86087109805862

   => Energetics <=

    Nuclear Repulsion Energy =            260.2295001762324773
    One-Electron Energy =               -1194.3525611377599489
    Two-Electron Energy =                 454.2621898634688478
    Total Energy =                       -479.8608710980586238
 Dipole X            :          8.6685927           -9.8874364           -1.2188437
 Dipole Y            :        -43.8643024           43.3477265           -0.5165759
 Dipole Z            :        -40.2899604           39.7353790           -0.5545814
 Magnitude           :                                                    1.4352669
  Basis Set: (AUG-CC-PVTZ AUX)
    Blend: AUG-CC-PVTZ-RI
	 Reference Energy          =    -479.8608710980586238 [Eh]
	 Singles Energy            =      -0.0000000000000000 [Eh]
	 Same-Spin Energy          =      -0.4315723754078492 [Eh]
	 Opposite-Spin Energy      =      -1.3135911762804113 [Eh]
	 Correlation Energy        =      -1.7451635516882607 [Eh]
	 Total Energy              =    -481.6060346497469027 [Eh]

	 ================> DF-SCS-MP2 Energies <==================
	-----------------------------------------------------------
	 SCS Same-Spin Scale       =       0.3333333333333333 [-]
	 SCS Opposite-Spin Scale   =       1.2000000000000000 [-]
	 SCS Same-Spin Energy      =      -0.1438574584692831 [Eh]
	 SCS Opposite-Spin Energy  =      -1.5763094115364935 [Eh]
	 SCS Correlation Energy    =      -1.7201668700057766 [Eh]
	 SCS Total Energy          =    -481.5810379680643791 [Eh]
	-----------------------------------------------------------

*** Psi4 exiting successfully. Buy a developer a beer!
