                               Psi4 1.8.2 release

  ==> Input File <==

--------------------------------------------------------------------------
MEMORY 60 GB

molecule dimer {
0 1
Gh(F)      0.000000     0.000000     0.000000
O          0.705041     0.085824     2.845836
H          0.718042     0.221437     1.918408
H          1.585010     0.151425     3.189331
Gh(O)      1.846277     0.095164    -2.146633
Gh(H)      2.732713    -0.105605    -1.756703
Gh(H)      1.254731     0.091480    -1.406651
Gh(O)     -2.274277     0.593945    -1.273101
Gh(H)     -2.701262    -0.233434    -0.967959
Gh(H)     -1.360007     0.511388    -0.932384
Gh(O)      1.896841    -1.872735     0.495161
Gh(H)      1.093557    -1.387163     0.388915
Gh(H)      2.667595    -1.391507     0.177125
Gh(O)      1.052918     2.610822     1.020224
Gh(H)      0.691159     1.833771     0.662648
Gh(H)      1.468412     2.477073     1.892293

units ang
no_reorient
no_com
symmetry c1
}

set {
basis        aug-cc-pVTZ
scf_type     df
}

energy("mp2")
--------------------------------------------------------------------------

    Molecular point group: c1

    Geometry (in Angstrom), charge = 0, multiplicity = 1:

       Center              X                  Y                   Z               Mass
    ------------   -----------------  -----------------  -----------------  -----------------
      Gh(F)           0.000000000000     0.000000000000     0.000000000000    18.998403162730
         O            0.705041000000     0.085824000000     2.845836000000    15.994914619570
         H            0.718042000000     0.221437000000     1.918408000000     1.007825032230
         H            1.585010000000     0.151425000000     3.189331000000     1.007825032230
      Gh(O)           1.846277000000     0.095164000000    -2.146633000000    15.994914619570
      Gh(H)           2.732713000000    -0.105605000000    -1.756703000000     1.007825032230
      Gh(H)           1.254731000000     0.091480000000    -1.406651000000     1.007825032230
      Gh(O)          -2.274277000000     0.593945000000    -1.273101000000    15.994914619570
      Gh(H)          -2.701262000000    -0.233434000000    -0.967959000000     1.007825032230
      Gh(H)          -1.360007000000     0.511388000000    -0.932384000000     1.007825032230
      Gh(O)           1.896841000000    -1.872735000000     0.495161000000    15.994914619570
      Gh(H)           1.093557000000    -1.387163000000     0.388915000000     1.007825032230
      Gh(H)           2.667595000000    -1.391507000000     0.177125000000     1.007825032230
      Gh(O)           1.052918000000     2.610822000000     1.020224000000    15.994914619570
      Gh(H)           0.691159000000     1.833771000000     0.662648000000     1.007825032230
      Gh(H)           1.468412000000     2.477073000000     1.892293000000     1.007825032230

  Charge       = 0
  Multiplicity = 1
  Basis Set: AUG-CC-PVTZ
    Blend: AUG-CC-PVTZ
  Basis Set: (AUG-CC-PVTZ AUX)
    Blend: AUG-CC-PVTZ-JKFIT

    Orbital Energies [Eh]
    ---------------------

    Doubly Occupied:

       1A    -20.562111     2A     -1.357785     3A     -0.736069
       4A     -0.577712     5A     -0.510148

  @DF-RHF Final Energy:   -76.06095955572958

   => Energetics <=

    Nuclear Repulsion Energy =              9.3306015596439540
    One-Electron Energy =                -123.2954700886167529
    Two-Electron Energy =                  37.9039089732432330
    Total Energy =                        -76.0609595557295677
 Dipole X            :        -14.4024898           15.0108127            0.6083229
 Dipole Y            :         -1.8645819            2.0020779            0.1374960
 Dipole Z            :        -53.0749995           52.6750329           -0.3999666
 Magnitude           :                                                    0.7409016
  Basis Set: (AUG-CC-PVTZ AUX)
    Blend: AUG-CC-PVTZ-RI
	 Reference Energy          =     -76.0609595557295819 [Eh]
	 Singles Energy            =      -0.0000000000000000 [Eh]
	 Same-Spin Energy          =      -0.0680932433719408 [Eh]
	 Opposite-Spin Energy      =      -0.2151171470780336 [Eh]
	 Correlation Energy        =      -0.2832103904499744 [Eh]
	 Total Energy              =     -76.3441699461795622 [Eh]

	 ================> DF-SCS-MP2 Energies <==================
	-----------------------------------------------------------
	 SCS Same-Spin Scale       =       0.3333333333333333 [-]
	 SCS Opposite-Spin Scale   =       1.2000000000000000 [-]
	 SCS Same-Spin Energy      =      -0.0226977477906469 [Eh]
	 SCS Opposite-Spin Energy  =      -0.2581405764936403 [Eh]
	 SCS Correlation Energy    =      -0.2808383242842872 [Eh]
	 SCS Total Energy          =     -76.3417978800138712 [Eh]
	-----------------------------------------------------------

*** Psi4 exiting successfully. Buy a developer a beer!
