                               Psi4 1.8.2 release

  ==> Input File <==

--------------------------------------------------------------------------
MEMORY 60 GB

molecule dimer {
0 1
Gh(F)      0.000000     0.000000     0.000000
Gh(O)      1.815615    -0.941221    -2.028679
Gh(H)      1.196320    -0.603635    -1.341781
Gh(H)      1.329942    -1.625481    -2.584256
Gh(O)     -0.164743    -2.684351     0.868609
Gh(H)     -0.119543    -1.813088     0.511185
Gh(H)     -0.233705    -2.576983     1.812943
Gh(O)      2.572567     0.988403     0.505127
Gh(H)      2.611520     0.617316     1.382224
Gh(H)      1.660090     0.661148     0.292697
Gh(O)     -1.733909     0.639512     2.242591
Gh(H)     -1.151471     0.428192     1.444013
Gh(H)     -1.823257     1.594147     2.421441
Gh(O)     -2.609308    -1.257365    -0.345859
Gh(H)     -1.768286    -0.883322    -0.559987
Gh(H)     -2.703850    -1.219159     0.584343
O         -1.727752     1.500209    -1.627650
H         -1.125877     0.925771    -1.141094
H         -2.322672     0.851685    -2.088837

units ang
no_reorient
no_com
symmetry c1
}

set {
basis        aug-cc-pVTZ
scf_type     df
}

energy("mp2")
--------------------------------------------------------------------------

    Molecular point group: c1

    Geometry (in Angstrom), charge = 0, multiplicity = 1:

       Center              X                  Y                   Z               Mass
    ------------   -----------------  -----------------  -----------------  -----------------
      Gh(F)           0.000000000000     0.000000000000     0.000000000000    18.998403162730
      Gh(O)           1.815615000000    -0.941221000000    -2.028679000000    15.994914619570
      Gh(H)           1.196320000000    -0.603635000000    -1.341781000000     1.007825032230
      Gh(H)           1.329942000000    -1.625481000000    -2.584256000000     1.007825032230
      Gh(O)          -0.164743000000    -2.684351000000     0.868609000000    15.994914619570
      Gh(H)          -0.119543000000    -1.813088000000     0.511185000000     1.007825032230
      Gh(H)          -0.233705000000    -2.576983000000     1.812943000000     1.007825032230
      Gh(O)           2.572567000000     0.988403000000     0.505127000000    15.994914619570
      Gh(H)           2.611520000000     0.617316000000     1.382224000000     1.007825032230
      Gh(H)           1.660090000000     0.661148000000     0.292697000000     1.007825032230
      Gh(O)          -1.733909000000     0.639512000000     2.242591000000    15.994914619570
      Gh(H)          -1.151471000000     0.428192000000     1.444013000000     1.007825032230
      Gh(H)          -1.823257000000     1.594147000000     2.421441000000     1.007825032230
      Gh(O)          -2.609308000000    -1.257365000000    -0.345859000000    15.994914619570
      Gh(H)          -1.768286000000    -0.883322000000    -0.559987000000     1.007825032230
      Gh(H)          -2.703850000000    -1.219159000000     0.584343000000     1.007825032230
         O           -1.727752000000     1.500209000000    -1.627650000000    15.994914619570
         H           -1.125877000000     0.925771000000    -1.141094000000     1.007825032230
         H           -2.322672000000     0.851685000000    -2.088837000000     1.007825032230

  Charge       = 0
  Multiplicity = 1
  Basis Set: AUG-CC-PVTZ
    Blend: AUG-CC-PVTZ
  Basis Set: (AUG-CC-PVTZ AUX)
    Blend: AUG-CC-PVTZ-JKFIT

    Orbital Energies [Eh]
    ---------------------

    Doubly Occupied:

       1A    -20.571581     2A     -1.344153     3A     -0.702715
       4A     -0.584224     5A     -0.509170

  @DF-RHF Final Energy:   -76.05795069990168

   => Energetics <=

    Nuclear Repulsion Energy =              8.9992727221697564
    One-Electron Energy =                -122.6907564980899537
    Two-Electron Energy =                  37.6335330760185300
    Total Energy =                        -76.0579506999016814
 Dipole X            :         32.6458819          -32.6366379            0.0092440
 Dipole Y            :        -26.8369839           26.0387782           -0.7982057
 Dipole Z            :         30.7302544          -30.7101868            0.0200676
 Magnitude           :                                                    0.7985115
  Basis Set: (AUG-CC-PVTZ AUX)
    Blend: AUG-CC-PVTZ-RI
	 Reference Energy          =     -76.0579506999016814 [Eh]
	 Singles Energy            =      -0.0000000000000000 [Eh]
	 Same-Spin Energy          =      -0.0688398676729126 [Eh]
	 Opposite-Spin Energy      =      -0.2176403362135058 [Eh]
	 Correlation Energy        =      -0.2864802038864184 [Eh]
	 Total Energy              =     -76.3444309037880942 [Eh]

	 ================> DF-SCS-MP2 Energies <==================
	-----------------------------------------------------------
	 SCS Same-Spin Scale       =       0.3333333333333333 [-]
	 SCS Opposite-Spin Scale   =       1.2000000000000000 [-]
	 SCS Same-Spin Energy      =      -0.0229466225576375 [Eh]
	 SCS Opposite-Spin Energy  =      -0.2611684034562069 [Eh]
	 SCS Correlation Energy    =      -0.2841150260138444 [Eh]
	 SCS Total Energy          =     -76.3420657259155320 [Eh]
	-----------------------------------------------------------

*** Psi4 exiting successfully. Buy a developer a beer!
