                               Psi4 1.8.2 release

  ==> Input File <==

--------------------------------------------------------------------------
MEMORY 60 GB

molecule dimer {
-1 1
F          0.000000     0.000000     0.000000
Gh(O)      0.266469    -2.404656     1.201531
Gh(H)     -0.633463    -2.712726     1.302485
Gh(H)      0.132332    -1.593576     0.677383
Gh(O)      2.063058     1.457481     1.160244
Gh(H)      1.663140     1.837137     1.934730
Gh(H)      1.358434     1.078668     0.675898
Gh(O)     -2.665582    -0.685885     0.620014
Gh(H)     -2.886730    -0.889932     1.510510
Gh(H)     -1.770852    -0.247202     0.618308
Gh(O)     -0.466229     2.894120     0.100297
Gh(H)     -0.550035     1.915540     0.120147
Gh(H)     -0.933453     3.301434     0.894465
Gh(O)     -1.428658     0.445594    -2.381825
Gh(H)     -2.319156     0.785428    -2.378532
Gh(H)     -1.312007     0.123368    -1.502513
Gh(O)      2.197488    -0.935719    -1.597882
Gh(H)      1.331309    -0.620386    -1.258959
Gh(H)      2.234943    -1.865177    -1.274134

units ang
no_reorient
no_com
symmetry c1
}

set {
basis        aug-cc-pVTZ
scf_type     df
}

energy("mp2")
--------------------------------------------------------------------------

    Molecular point group: c1

    Geometry (in Angstrom), charge = -1, multiplicity = 1:

       Center              X                  Y                   Z               Mass
    ------------   -----------------  -----------------  -----------------  -----------------
         F            0.000000000000     0.000000000000     0.000000000000    18.998403162730
      Gh(O)           0.266469000000    -2.404656000000     1.201531000000    15.994914619570
      Gh(H)          -0.633463000000    -2.712726000000     1.302485000000     1.007825032230
      Gh(H)           0.132332000000    -1.593576000000     0.677383000000     1.007825032230
      Gh(O)           2.063058000000     1.457481000000     1.160244000000    15.994914619570
      Gh(H)           1.663140000000     1.837137000000     1.934730000000     1.007825032230
      Gh(H)           1.358434000000     1.078668000000     0.675898000000     1.007825032230
      Gh(O)          -2.665582000000    -0.685885000000     0.620014000000    15.994914619570
      Gh(H)          -2.886730000000    -0.889932000000     1.510510000000     1.007825032230
      Gh(H)          -1.770852000000    -0.247202000000     0.618308000000     1.007825032230
      Gh(O)          -0.466229000000     2.894120000000     0.100297000000    15.994914619570
      Gh(H)          -0.550035000000     1.915540000000     0.120147000000     1.007825032230
      Gh(H)          -0.933453000000     3.301434000000     0.894465000000     1.007825032230
      Gh(O)          -1.428658000000     0.445594000000    -2.381825000000    15.994914619570
      Gh(H)          -2.319156000000     0.785428000000    -2.378532000000     1.007825032230
      Gh(H)          -1.312007000000     0.123368000000    -1.502513000000     1.007825032230
      Gh(O)           2.197488000000    -0.935719000000    -1.597882000000    15.994914619570
      Gh(H)           1.331309000000    -0.620386000000    -1.258959000000     1.007825032230
      Gh(H)           2.234943000000    -1.865177000000    -1.274134000000     1.007825032230

  Charge       = -1
  Multiplicity = 1
  Basis Set: AUG-CC-PVTZ
    Blend: AUG-CC-PVTZ
  Basis Set: (AUG-CC-PVTZ AUX)
    Blend: AUG-CC-PVTZ-JKFIT

    Orbital Energies [Eh]
    ---------------------

    Doubly Occupied:

       1A    -25.833503     2A     -1.075859     3A     -0.180907
       4A     -0.180898     5A     -0.180867

  @DF-RHF Final Energy:   -99.45115677389852

   => Energetics <=

    Nuclear Repulsion Energy =              0.0000000000000000
    One-Electron Energy =                -143.9982372791652665
    Two-Electron Energy =                  44.5470805052667487
    Total Energy =                        -99.4511567738985178
 Dipole X            :         -0.0000637            0.0000000           -0.0000637
 Dipole Y            :          0.0000354            0.0000000            0.0000354
 Dipole Z            :         -0.0000045            0.0000000           -0.0000045
 Magnitude           :                                                    0.0000730
  Basis Set: (AUG-CC-PVTZ AUX)
    Blend: AUG-CC-PVTZ-RI
	 Reference Energy          =     -99.4511567738985178 [Eh]
	 Singles Energy            =      -0.0000000000000000 [Eh]
	 Same-Spin Energy          =      -0.0820921332303305 [Eh]
	 Opposite-Spin Energy      =      -0.2303773025655172 [Eh]
	 Correlation Energy        =      -0.3124694357958477 [Eh]
	 Total Energy              =     -99.7636262096943653 [Eh]

	 ================> DF-SCS-MP2 Energies <==================
	-----------------------------------------------------------
	 SCS Same-Spin Scale       =       0.3333333333333333 [-]
	 SCS Opposite-Spin Scale   =       1.2000000000000000 [-]
	 SCS Same-Spin Energy      =      -0.0273640444101102 [Eh]
	 SCS Opposite-Spin Energy  =      -0.2764527630786206 [Eh]
	 SCS Correlation Energy    =      -0.3038168074887307 [Eh]
	 SCS Total Energy          =     -99.7549735813872473 [Eh]
	-----------------------------------------------------------

*** Psi4 exiting successfully. Buy a developer a beer!
