                               Psi4 1.8.2 release

  ==> Input File <==

--------------------------------------------------------------------------
MEMORY 60 GB

molecule dimer {
-1 1
F          0.000000     0.000000     0.000000
O          2.575075     1.073331     0.885547
H          2.106665     1.918583     0.702596
H          2.020041     0.521984     0.325554
O          0.883125    -2.526453     0.876729
H          0.128634    -3.022285     1.173703
H          0.480571    -1.707949     0.521989
O         -1.584240    -0.527688    -2.161408
H         -1.072012    -0.480481    -1.337240
H         -1.395342    -1.397524    -2.511963
O         -2.043312     1.766266     0.317173
H         -2.873447     1.429607    -0.044182
H         -1.403098     0.963197     0.113049
O         -0.453685     0.678264     2.814720
H          0.049164     0.242469     2.102026
H         -1.380466     0.343591     2.776247

units ang
no_reorient
no_com
symmetry c1
}

set {
basis        aug-cc-pVTZ
scf_type     df
}

energy("mp2")
--------------------------------------------------------------------------

    Molecular point group: c1

    Geometry (in Angstrom), charge = -1, multiplicity = 1:

       Center              X                  Y                   Z               Mass
    ------------   -----------------  -----------------  -----------------  -----------------
         F            0.000000000000     0.000000000000     0.000000000000    18.998403162730
         O            2.575075000000     1.073331000000     0.885547000000    15.994914619570
         H            2.106665000000     1.918583000000     0.702596000000     1.007825032230
         H            2.020041000000     0.521984000000     0.325554000000     1.007825032230
         O            0.883125000000    -2.526453000000     0.876729000000    15.994914619570
         H            0.128634000000    -3.022285000000     1.173703000000     1.007825032230
         H            0.480571000000    -1.707949000000     0.521989000000     1.007825032230
         O           -1.584240000000    -0.527688000000    -2.161408000000    15.994914619570
         H           -1.072012000000    -0.480481000000    -1.337240000000     1.007825032230
         H           -1.395342000000    -1.397524000000    -2.511963000000     1.007825032230
         O           -2.043312000000     1.766266000000     0.317173000000    15.994914619570
         H           -2.873447000000     1.429607000000    -0.044182000000     1.007825032230
         H           -1.403098000000     0.963197000000     0.113049000000     1.007825032230
         O           -0.453685000000     0.678264000000     2.814720000000    15.994914619570
         H            0.049164000000     0.242469000000     2.102026000000     1.007825032230
         H           -1.380466000000     0.343591000000     2.776247000000     1.007825032230

  Charge       = -1
  Multiplicity = 1
  Basis Set: AUG-CC-PVTZ
    Blend: AUG-CC-PVTZ
  Basis Set: (AUG-CC-PVTZ AUX)
    Blend: AUG-CC-PVTZ-JKFIT

    Orbital Energies [Eh]
    ---------------------

    Doubly Occupied:

       1A    -25.996652     2A    -20.413784     3A    -20.410985
       4A    -20.409566     5A    -20.398840     6A    -20.391443
       7A     -1.263426     8A     -1.199792     9A     -1.196680
      10A     -1.190067    11A     -1.171326    12A     -1.155327
      13A     -0.568417    14A     -0.562736    15A     -0.544277
      16A     -0.533598    17A     -0.514887    18A     -0.445652
      19A     -0.442560    20A     -0.438463    21A     -0.417945
      22A     -0.412033    23A     -0.363948    24A     -0.360245
      25A     -0.357357    26A     -0.351232    27A     -0.348063
      28A     -0.341728    29A     -0.338443    30A     -0.324167

  @DF-RHF Final Energy:  -479.84907476484500

   => Energetics <=

    Nuclear Repulsion Energy =            262.6377368575671198
    One-Electron Energy =               -1199.2463383882900416
    Two-Electron Energy =                 456.7595267658779221
    Total Energy =                       -479.8490747648449997
 Dipole X            :         14.7576797          -15.7292979           -0.9716182
 Dipole Y            :         -6.0705658            4.7639089           -1.3066569
 Dipole Z            :        -49.7795143           48.5354745           -1.2440398
 Magnitude           :                                                    2.0491533
  Basis Set: (AUG-CC-PVTZ AUX)
    Blend: AUG-CC-PVTZ-RI
	 Reference Energy          =    -479.8490747648449997 [Eh]
	 Singles Energy            =      -0.0000000000000000 [Eh]
	 Same-Spin Energy          =      -0.4338842679477873 [Eh]
	 Opposite-Spin Energy      =      -1.3182012440577646 [Eh]
	 Correlation Energy        =      -1.7520855120055518 [Eh]
	 Total Energy              =    -481.6011602768505782 [Eh]

	 ================> DF-SCS-MP2 Energies <==================
	-----------------------------------------------------------
	 SCS Same-Spin Scale       =       0.3333333333333333 [-]
	 SCS Opposite-Spin Scale   =       1.2000000000000000 [-]
	 SCS Same-Spin Energy      =      -0.1446280893159291 [Eh]
	 SCS Opposite-Spin Energy  =      -1.5818414928693174 [Eh]
	 SCS Correlation Energy    =      -1.7264695821852465 [Eh]
	 SCS Total Energy          =    -481.5755443470302453 [Eh]
	-----------------------------------------------------------

*** Psi4 exiting successfully. Buy a developer a beer!
