                               Psi4 1.8.2 release

  ==> Input File <==

--------------------------------------------------------------------------
MEMORY 60 GB

molecule dimer {
0 1
Gh(F)      0.000000     0.000000     0.000000
Gh(O)     -1.926510    -0.488905     1.828209
Gh(H)     -1.218437    -0.291512     1.216095
Gh(H)     -1.943797     0.253946     2.436303
O         -1.465982     2.344386    -0.959195
H         -1.258918     1.474742    -0.673609
H         -0.760802     2.572151    -1.640564
Gh(O)      1.781208     1.993985     0.947440
Gh(H)      2.722858     1.834958     1.158027
Gh(H)      1.404065     1.156182     0.633208
Gh(O)      0.920742    -0.070805    -2.597380
Gh(H)      0.201064     0.162434    -3.173783
Gh(H)      0.557053     0.093415    -1.736858
Gh(O)      1.502065    -2.307810     0.115819
Gh(H)      1.299950    -2.782798    -0.663331
Gh(H)      1.063706    -1.409643     0.038071

units ang
no_reorient
no_com
symmetry c1
}

set {
basis        aug-cc-pVTZ
scf_type     df
}

energy("mp2")
--------------------------------------------------------------------------

    Molecular point group: c1

    Geometry (in Angstrom), charge = 0, multiplicity = 1:

       Center              X                  Y                   Z               Mass
    ------------   -----------------  -----------------  -----------------  -----------------
      Gh(F)           0.000000000000     0.000000000000     0.000000000000    18.998403162730
      Gh(O)          -1.926510000000    -0.488905000000     1.828209000000    15.994914619570
      Gh(H)          -1.218437000000    -0.291512000000     1.216095000000     1.007825032230
      Gh(H)          -1.943797000000     0.253946000000     2.436303000000     1.007825032230
         O           -1.465982000000     2.344386000000    -0.959195000000    15.994914619570
         H           -1.258918000000     1.474742000000    -0.673609000000     1.007825032230
         H           -0.760802000000     2.572151000000    -1.640564000000     1.007825032230
      Gh(O)           1.781208000000     1.993985000000     0.947440000000    15.994914619570
      Gh(H)           2.722858000000     1.834958000000     1.158027000000     1.007825032230
      Gh(H)           1.404065000000     1.156182000000     0.633208000000     1.007825032230
      Gh(O)           0.920742000000    -0.070805000000    -2.597380000000    15.994914619570
      Gh(H)           0.201064000000     0.162434000000    -3.173783000000     1.007825032230
      Gh(H)           0.557053000000     0.093415000000    -1.736858000000     1.007825032230
      Gh(O)           1.502065000000    -2.307810000000     0.115819000000    15.994914619570
      Gh(H)           1.299950000000    -2.782798000000    -0.663331000000     1.007825032230
      Gh(H)           1.063706000000    -1.409643000000     0.038071000000     1.007825032230

  Charge       = 0
  Multiplicity = 1
  Basis Set: AUG-CC-PVTZ
    Blend: AUG-CC-PVTZ
  Basis Set: (AUG-CC-PVTZ AUX)
    Blend: AUG-CC-PVTZ-JKFIT

    Orbital Energies [Eh]
    ---------------------

    Doubly Occupied:

       1A    -20.569273     2A     -1.346406     3A     -0.711018
       4A     -0.580332     5A     -0.508997

  @DF-RHF Final Energy:   -76.05714195797781

   => Energetics <=

    Nuclear Repulsion Energy =              9.0587807515482535
    One-Electron Energy =                -122.7997879694707706
    Two-Electron Energy =                  37.6838652599447101
    Total Energy =                        -76.0571419579778052
 Dipole X            :         26.5778799          -25.9791535            0.5987263
 Dipole Y            :        -43.5220695           43.0894992           -0.4325703
 Dipole Z            :         18.6199591          -18.8740800           -0.2541209
 Magnitude           :                                                    0.7811323
  Basis Set: (AUG-CC-PVTZ AUX)
    Blend: AUG-CC-PVTZ-RI
	 Reference Energy          =     -76.0571419579778052 [Eh]
	 Singles Energy            =      -0.0000000000000000 [Eh]
	 Same-Spin Energy          =      -0.0686340797492311 [Eh]
	 Opposite-Spin Energy      =      -0.2166836723878398 [Eh]
	 Correlation Energy        =      -0.2853177521370709 [Eh]
	 Total Energy              =     -76.3424597101148805 [Eh]

	 ================> DF-SCS-MP2 Energies <==================
	-----------------------------------------------------------
	 SCS Same-Spin Scale       =       0.3333333333333333 [-]
	 SCS Opposite-Spin Scale   =       1.2000000000000000 [-]
	 SCS Same-Spin Energy      =      -0.0228780265830770 [Eh]
	 SCS Opposite-Spin Energy  =      -0.2600204068654078 [Eh]
	 SCS Correlation Energy    =      -0.2828984334484848 [Eh]
	 SCS Total Energy          =     -76.3400403914262853 [Eh]
	-----------------------------------------------------------

*** Psi4 exiting successfully. Buy a developer a beer!
