                               Psi4 1.8.2 release

  ==> Input File <==

--------------------------------------------------------------------------
MEMORY 60 GB

molecule dimer {
-1 1
F          0.000000     0.000000     0.000000
Gh(O)     -2.554885    -0.515321     0.758406
Gh(H)     -1.612284    -0.473038     0.582957
Gh(H)     -2.842041    -1.403277     1.084241
Gh(O)      1.083037     2.154867     1.385653
Gh(H)      0.609748     1.409713     0.882328
Gh(H)      1.632519     2.510959     0.665831
Gh(O)      0.426737    -2.496911    -0.665385
Gh(H)      0.303600    -3.137566     0.078614
Gh(H)     -0.052202    -1.707756    -0.340693
Gh(O)     -1.104728     2.400067    -1.171868
Gh(H)     -1.500405     1.941350    -1.947783
Gh(H)     -0.886647     1.656492    -0.613653

units ang
no_reorient
no_com
symmetry c1
}

set {
basis        aug-cc-pVTZ
scf_type     df
}

energy("mp2")
--------------------------------------------------------------------------

    Molecular point group: c1

    Geometry (in Angstrom), charge = -1, multiplicity = 1:

       Center              X                  Y                   Z               Mass
    ------------   -----------------  -----------------  -----------------  -----------------
         F            0.000000000000     0.000000000000     0.000000000000    18.998403162730
      Gh(O)          -2.554885000000    -0.515321000000     0.758406000000    15.994914619570
      Gh(H)          -1.612284000000    -0.473038000000     0.582957000000     1.007825032230
      Gh(H)          -2.842041000000    -1.403277000000     1.084241000000     1.007825032230
      Gh(O)           1.083037000000     2.154867000000     1.385653000000    15.994914619570
      Gh(H)           0.609748000000     1.409713000000     0.882328000000     1.007825032230
      Gh(H)           1.632519000000     2.510959000000     0.665831000000     1.007825032230
      Gh(O)           0.426737000000    -2.496911000000    -0.665385000000    15.994914619570
      Gh(H)           0.303600000000    -3.137566000000     0.078614000000     1.007825032230
      Gh(H)          -0.052202000000    -1.707756000000    -0.340693000000     1.007825032230
      Gh(O)          -1.104728000000     2.400067000000    -1.171868000000    15.994914619570
      Gh(H)          -1.500405000000     1.941350000000    -1.947783000000     1.007825032230
      Gh(H)          -0.886647000000     1.656492000000    -0.613653000000     1.007825032230

  Charge       = -1
  Multiplicity = 1
  Basis Set: AUG-CC-PVTZ
    Blend: AUG-CC-PVTZ
  Basis Set: (AUG-CC-PVTZ AUX)
    Blend: AUG-CC-PVTZ-JKFIT

    Orbital Energies [Eh]
    ---------------------

    Doubly Occupied:

       1A    -25.833649     2A     -1.075929     3A     -0.180976
       4A     -0.180929     5A     -0.180883

  @DF-RHF Final Energy:   -99.45106182818772

   => Energetics <=

    Nuclear Repulsion Energy =              0.0000000000000000
    One-Electron Energy =                -143.9973925306131264
    Two-Electron Energy =                  44.5463307024254220
    Total Energy =                        -99.4510618281877044
 Dipole X            :         -0.0003156            0.0000000           -0.0003156
 Dipole Y            :          0.0001798            0.0000000            0.0001798
 Dipole Z            :         -0.0000680            0.0000000           -0.0000680
 Magnitude           :                                                    0.0003695
  Basis Set: (AUG-CC-PVTZ AUX)
    Blend: AUG-CC-PVTZ-RI
	 Reference Energy          =     -99.4510618281877186 [Eh]
	 Singles Energy            =      -0.0000000000000000 [Eh]
	 Same-Spin Energy          =      -0.0820007875021123 [Eh]
	 Opposite-Spin Energy      =      -0.2296957078274131 [Eh]
	 Correlation Energy        =      -0.3116964953295254 [Eh]
	 Total Energy              =     -99.7627583235172466 [Eh]

	 ================> DF-SCS-MP2 Energies <==================
	-----------------------------------------------------------
	 SCS Same-Spin Scale       =       0.3333333333333333 [-]
	 SCS Opposite-Spin Scale   =       1.2000000000000000 [-]
	 SCS Same-Spin Energy      =      -0.0273335958340374 [Eh]
	 SCS Opposite-Spin Energy  =      -0.2756348493928957 [Eh]
	 SCS Correlation Energy    =      -0.3029684452269331 [Eh]
	 SCS Total Energy          =     -99.7540302734146564 [Eh]
	-----------------------------------------------------------

*** Psi4 exiting successfully. Buy a developer a beer!
