                               Psi4 1.8.2 release

  ==> Input File <==

--------------------------------------------------------------------------
MEMORY 60 GB

molecule dimer {
0 1
Gh(F)      0.000000     0.000000     0.000000
Gh(O)     -2.498532    -0.881431    -0.464596
Gh(H)     -3.244844    -0.373050    -0.742977
Gh(H)     -1.787443    -0.231783    -0.439473
Gh(O)      0.821961    -0.941013    -2.487806
Gh(H)      0.553219    -0.751966    -1.546993
Gh(H)      0.984333    -1.880222    -2.681248
O          2.741876     1.268113     0.623068
H          1.805546     0.967787     0.731277
H          2.912001     1.778305     1.404663
Gh(O)      0.039880    -2.040644     1.862439
Gh(H)     -0.844297    -2.487575     1.683009
Gh(H)      0.092425    -1.237739     1.280131
Gh(O)     -0.422554     1.200836     2.437095
Gh(H)     -0.724798     2.111332     2.489843
Gh(H)     -0.282246     0.936943     1.519701

units ang
no_reorient
no_com
symmetry c1
}

set {
basis        aug-cc-pVTZ
scf_type     df
}

energy("mp2")
--------------------------------------------------------------------------

    Molecular point group: c1

    Geometry (in Angstrom), charge = 0, multiplicity = 1:

       Center              X                  Y                   Z               Mass
    ------------   -----------------  -----------------  -----------------  -----------------
      Gh(F)           0.000000000000     0.000000000000     0.000000000000    18.998403162730
      Gh(O)          -2.498532000000    -0.881431000000    -0.464596000000    15.994914619570
      Gh(H)          -3.244844000000    -0.373050000000    -0.742977000000     1.007825032230
      Gh(H)          -1.787443000000    -0.231783000000    -0.439473000000     1.007825032230
      Gh(O)           0.821961000000    -0.941013000000    -2.487806000000    15.994914619570
      Gh(H)           0.553219000000    -0.751966000000    -1.546993000000     1.007825032230
      Gh(H)           0.984333000000    -1.880222000000    -2.681248000000     1.007825032230
         O            2.741876000000     1.268113000000     0.623068000000    15.994914619570
         H            1.805546000000     0.967787000000     0.731277000000     1.007825032230
         H            2.912001000000     1.778305000000     1.404663000000     1.007825032230
      Gh(O)           0.039880000000    -2.040644000000     1.862439000000    15.994914619570
      Gh(H)          -0.844297000000    -2.487575000000     1.683009000000     1.007825032230
      Gh(H)           0.092425000000    -1.237739000000     1.280131000000     1.007825032230
      Gh(O)          -0.422554000000     1.200836000000     2.437095000000    15.994914619570
      Gh(H)          -0.724798000000     2.111332000000     2.489843000000     1.007825032230
      Gh(H)          -0.282246000000     0.936943000000     1.519701000000     1.007825032230

  Charge       = 0
  Multiplicity = 1
  Basis Set: AUG-CC-PVTZ
    Blend: AUG-CC-PVTZ
  Basis Set: (AUG-CC-PVTZ AUX)
    Blend: AUG-CC-PVTZ-JKFIT

    Orbital Energies [Eh]
    ---------------------

    Doubly Occupied:

       1A    -20.569341     2A     -1.348264     3A     -0.710666
       4A     -0.583386     5A     -0.509548

  @DF-RHF Final Energy:   -76.05884865703936

   => Energetics <=

    Nuclear Repulsion Energy =              9.0878399425774052
    One-Electron Energy =                -122.8509643483666736
    Two-Electron Energy =                  37.7042757487499074
    Total Energy =                        -76.0588486570393627
 Dipole X            :        -50.8668456           50.3660295           -0.5008161
 Dipole Y            :        -24.2182906           24.3604519            0.1421613
 Dipole Z            :        -12.8654834           13.4557646            0.5902812
 Magnitude           :                                                    0.7870569
  Basis Set: (AUG-CC-PVTZ AUX)
    Blend: AUG-CC-PVTZ-RI
	 Reference Energy          =     -76.0588486570393627 [Eh]
	 Singles Energy            =      -0.0000000000000000 [Eh]
	 Same-Spin Energy          =      -0.0685982807543242 [Eh]
	 Opposite-Spin Energy      =      -0.2164438969121822 [Eh]
	 Correlation Energy        =      -0.2850421776665064 [Eh]
	 Total Energy              =     -76.3438908347058742 [Eh]

	 ================> DF-SCS-MP2 Energies <==================
	-----------------------------------------------------------
	 SCS Same-Spin Scale       =       0.3333333333333333 [-]
	 SCS Opposite-Spin Scale   =       1.2000000000000000 [-]
	 SCS Same-Spin Energy      =      -0.0228660935847747 [Eh]
	 SCS Opposite-Spin Energy  =      -0.2597326762946187 [Eh]
	 SCS Correlation Energy    =      -0.2825987698793934 [Eh]
	 SCS Total Energy          =     -76.3414474269187622 [Eh]
	-----------------------------------------------------------

*** Psi4 exiting successfully. Buy a developer a beer!
