                               Psi4 1.8.2 release

  ==> Input File <==

--------------------------------------------------------------------------
MEMORY 60 GB

molecule dimer {
-1 1
F          0.000000     0.000000     0.000000
Gh(O)     -1.944527     0.667499    -2.037884
Gh(H)     -1.368387     0.229404    -1.388126
Gh(H)     -1.725369     0.146857    -2.796287
Gh(O)      2.643442     0.923070     0.544992
Gh(H)      1.757284     0.494516     0.594070
Gh(H)      2.927492     0.930628     1.470439
Gh(O)     -0.089574    -2.415065     1.212511
Gh(H)     -0.321483    -1.491225     0.904779
Gh(H)      0.328480    -2.335764     2.040561
Gh(O)      1.394067     1.308528    -2.063548
Gh(H)      1.073967     0.850781    -1.278231
Gh(H)      0.906903     2.092693    -2.265606
Gh(O)     -2.338432     0.730854     1.212540
Gh(H)     -2.409960     1.553376     1.716659
Gh(H)     -1.476015     0.775888     0.745875

units ang
no_reorient
no_com
symmetry c1
}

set {
basis        aug-cc-pVTZ
scf_type     df
}

energy("mp2")
--------------------------------------------------------------------------

    Molecular point group: c1

    Geometry (in Angstrom), charge = -1, multiplicity = 1:

       Center              X                  Y                   Z               Mass
    ------------   -----------------  -----------------  -----------------  -----------------
         F            0.000000000000     0.000000000000     0.000000000000    18.998403162730
      Gh(O)          -1.944527000000     0.667499000000    -2.037884000000    15.994914619570
      Gh(H)          -1.368387000000     0.229404000000    -1.388126000000     1.007825032230
      Gh(H)          -1.725369000000     0.146857000000    -2.796287000000     1.007825032230
      Gh(O)           2.643442000000     0.923070000000     0.544992000000    15.994914619570
      Gh(H)           1.757284000000     0.494516000000     0.594070000000     1.007825032230
      Gh(H)           2.927492000000     0.930628000000     1.470439000000     1.007825032230
      Gh(O)          -0.089574000000    -2.415065000000     1.212511000000    15.994914619570
      Gh(H)          -0.321483000000    -1.491225000000     0.904779000000     1.007825032230
      Gh(H)           0.328480000000    -2.335764000000     2.040561000000     1.007825032230
      Gh(O)           1.394067000000     1.308528000000    -2.063548000000    15.994914619570
      Gh(H)           1.073967000000     0.850781000000    -1.278231000000     1.007825032230
      Gh(H)           0.906903000000     2.092693000000    -2.265606000000     1.007825032230
      Gh(O)          -2.338432000000     0.730854000000     1.212540000000    15.994914619570
      Gh(H)          -2.409960000000     1.553376000000     1.716659000000     1.007825032230
      Gh(H)          -1.476015000000     0.775888000000     0.745875000000     1.007825032230

  Charge       = -1
  Multiplicity = 1
  Basis Set: AUG-CC-PVTZ
    Blend: AUG-CC-PVTZ
  Basis Set: (AUG-CC-PVTZ AUX)
    Blend: AUG-CC-PVTZ-JKFIT

    Orbital Energies [Eh]
    ---------------------

    Doubly Occupied:

       1A    -25.833576     2A     -1.075900     3A     -0.180940
       4A     -0.180930     5A     -0.180872

  @DF-RHF Final Energy:   -99.45110306360471

   => Energetics <=

    Nuclear Repulsion Energy =              0.0000000000000000
    One-Electron Energy =                -143.9977619455126217
    Two-Electron Energy =                  44.5466588819079092
    Total Energy =                        -99.4511030636047053
 Dipole X            :         -0.0000405            0.0000000           -0.0000405
 Dipole Y            :         -0.0000129            0.0000000           -0.0000129
 Dipole Z            :          0.0000749            0.0000000            0.0000749
 Magnitude           :                                                    0.0000861
  Basis Set: (AUG-CC-PVTZ AUX)
    Blend: AUG-CC-PVTZ-RI
	 Reference Energy          =     -99.4511030636047053 [Eh]
	 Singles Energy            =      -0.0000000000000000 [Eh]
	 Same-Spin Energy          =      -0.0820522153161282 [Eh]
	 Opposite-Spin Energy      =      -0.2300500712677609 [Eh]
	 Correlation Energy        =      -0.3121022865838891 [Eh]
	 Total Energy              =     -99.7632053501885991 [Eh]

	 ================> DF-SCS-MP2 Energies <==================
	-----------------------------------------------------------
	 SCS Same-Spin Scale       =       0.3333333333333333 [-]
	 SCS Opposite-Spin Scale   =       1.2000000000000000 [-]
	 SCS Same-Spin Energy      =      -0.0273507384387094 [Eh]
	 SCS Opposite-Spin Energy  =      -0.2760600855213131 [Eh]
	 SCS Correlation Energy    =      -0.3034108239600224 [Eh]
	 SCS Total Energy          =     -99.7545138875647268 [Eh]
	-----------------------------------------------------------

*** Psi4 exiting successfully. Buy a developer a beer!
