                               Psi4 1.8.2 release

  ==> Input File <==

--------------------------------------------------------------------------
MEMORY 60 GB

molecule dimer {
-1 1
F          0.000000     0.000000     0.000000
O         -0.318921     0.096636     2.907600
H         -0.209107     0.035971     1.908927
H          0.113370     0.903125     3.133819
O         -1.624836     2.111763    -0.674676
H         -1.136960     1.329449    -0.328407
H         -1.463411     2.236115    -1.611825
O          1.830939     2.016220     1.109031
H          1.608996     1.925541     2.025625
H          1.143692     1.515686     0.601146
O          1.707563     0.850050    -2.001594
H          1.699145     1.727491    -2.482621
H          0.964886     0.694880    -1.390422
O         -2.207657    -1.687922    -0.160566
H         -1.466453    -1.044049    -0.029828
H         -3.021094    -1.262992     0.163198

units ang
no_reorient
no_com
symmetry c1
}

set {
basis        aug-cc-pVTZ
scf_type     df
}

energy("mp2")
--------------------------------------------------------------------------

    Molecular point group: c1

    Geometry (in Angstrom), charge = -1, multiplicity = 1:

       Center              X                  Y                   Z               Mass
    ------------   -----------------  -----------------  -----------------  -----------------
         F            0.000000000000     0.000000000000     0.000000000000    18.998403162730
         O           -0.318921000000     0.096636000000     2.907600000000    15.994914619570
         H           -0.209107000000     0.035971000000     1.908927000000     1.007825032230
         H            0.113370000000     0.903125000000     3.133819000000     1.007825032230
         O           -1.624836000000     2.111763000000    -0.674676000000    15.994914619570
         H           -1.136960000000     1.329449000000    -0.328407000000     1.007825032230
         H           -1.463411000000     2.236115000000    -1.611825000000     1.007825032230
         O            1.830939000000     2.016220000000     1.109031000000    15.994914619570
         H            1.608996000000     1.925541000000     2.025625000000     1.007825032230
         H            1.143692000000     1.515686000000     0.601146000000     1.007825032230
         O            1.707563000000     0.850050000000    -2.001594000000    15.994914619570
         H            1.699145000000     1.727491000000    -2.482621000000     1.007825032230
         H            0.964886000000     0.694880000000    -1.390422000000     1.007825032230
         O           -2.207657000000    -1.687922000000    -0.160566000000    15.994914619570
         H           -1.466453000000    -1.044049000000    -0.029828000000     1.007825032230
         H           -3.021094000000    -1.262992000000     0.163198000000     1.007825032230

  Charge       = -1
  Multiplicity = 1
  Basis Set: AUG-CC-PVTZ
    Blend: AUG-CC-PVTZ
  Basis Set: (AUG-CC-PVTZ AUX)
    Blend: AUG-CC-PVTZ-JKFIT

    Orbital Energies [Eh]
    ---------------------

    Doubly Occupied:

       1A    -26.004950     2A    -20.418996     3A    -20.415381
       4A    -20.407627     5A    -20.407114     6A    -20.400109
       7A     -1.271453     8A     -1.200743     9A     -1.196075
      10A     -1.187660    11A     -1.174881    12A     -1.173261
      13A     -0.575533    14A     -0.572435    15A     -0.568253
      16A     -0.557240    17A     -0.547419    18A     -0.453951
      19A     -0.431375    20A     -0.427397    21A     -0.418225
      22A     -0.405163    23A     -0.366770    24A     -0.362954
      25A     -0.359053    26A     -0.357045    27A     -0.354084
      28A     -0.350288    29A     -0.345756    30A     -0.340983

  @DF-RHF Final Energy:  -479.85153567193277

   => Energetics <=

    Nuclear Repulsion Energy =            264.4279842759834764
    One-Electron Energy =               -1202.4546898964488264
    Two-Electron Energy =                 458.1751699485325844
    Total Energy =                       -479.8515356719327656
 Dipole X            :         12.4722777          -12.6049117           -0.1326340
 Dipole Y            :        -66.0906195           66.4336867            0.3430672
 Dipole Z            :        -21.9499596           21.5957372           -0.3542223
 Magnitude           :                                                    0.5106470
  Basis Set: (AUG-CC-PVTZ AUX)
    Blend: AUG-CC-PVTZ-RI
	 Reference Energy          =    -479.8515356719327656 [Eh]
	 Singles Energy            =      -0.0000000000000000 [Eh]
	 Same-Spin Energy          =      -0.4338287705502508 [Eh]
	 Opposite-Spin Energy      =      -1.3180111346267309 [Eh]
	 Correlation Energy        =      -1.7518399051769817 [Eh]
	 Total Energy              =    -481.6033755771097731 [Eh]

	 ================> DF-SCS-MP2 Energies <==================
	-----------------------------------------------------------
	 SCS Same-Spin Scale       =       0.3333333333333333 [-]
	 SCS Opposite-Spin Scale   =       1.2000000000000000 [-]
	 SCS Same-Spin Energy      =      -0.1446095901834169 [Eh]
	 SCS Opposite-Spin Energy  =      -1.5816133615520771 [Eh]
	 SCS Correlation Energy    =      -1.7262229517354941 [Eh]
	 SCS Total Energy          =    -481.5777586236682737 [Eh]
	-----------------------------------------------------------

*** Psi4 exiting successfully. Buy a developer a beer!
