                               Psi4 1.9 release

  ==> Input File <==

--------------------------------------------------------------------------
MEMORY 60 GB

molecule dimer {
-1 1
F      0.000000     0.000000     0.000000
--
0 1
O      0.837524     0.653179     2.553921
H      0.450484     0.492379     1.655690
H      1.594760     0.044820     2.624147
O      2.594542     0.172347    -1.320489
H      2.132419     0.238275    -0.450632
H      2.553603     1.076321    -1.724631
O     -1.636542     0.886029    -2.279818
H     -2.157956     0.116431    -2.594786
H     -1.276453     0.610612    -1.388084
O      1.537179    -2.637515     0.278263
H      1.257767    -1.689888     0.387885
H      0.903055    -3.046812    -0.310398
O     -2.510626    -0.310738     1.625874
H     -1.585188    -0.173293     1.439381
H     -2.750973    -0.165710     2.541553
O      0.946957     2.640609    -0.101277
H      0.622536     1.701020    -0.141447
H      0.455089     3.126381    -0.849022

units ang
no_reorient
no_com
symmetry c1
}

set {
basis        aug-cc-pVTZ
scf_type     df
}

energy("mp2", bsse_type="cp")
--------------------------------------------------------------------------

                               Psi4 1.9 release
    Molecular point group: c1
  Charge       = 0
  Multiplicity = 1
  Basis Set: AUG-CC-PVTZ
    Blend: AUG-CC-PVTZ
  Basis Set: (AUG-CC-PVTZ AUX)
    Blend: AUG-CC-PVTZ-JKFIT
  @DF-RHF Final Energy:  -456.32096022475838
    Total Energy =                       -456.3209602247583803
 Dipole X            :        -31.6974172           30.8996961           -0.7977211
 Dipole Y            :        -25.8136619           25.6281331           -0.1855288
 Dipole Z            :        -13.8475471           13.6843535           -0.1631936
 Magnitude           :                                                    0.8351120
  Basis Set: (AUG-CC-PVTZ AUX)
    Blend: AUG-CC-PVTZ-RI
	 Reference Energy          =    -456.3209602247583803 [Eh]
	 Singles Energy            =      -0.0000000000000000 [Eh]
	 Same-Spin Energy          =      -0.4164094705294500 [Eh]
	 Opposite-Spin Energy      =      -1.3084648827814105 [Eh]
	 Correlation Energy        =      -1.7248743533108604 [Eh]
	 Total Energy              =    -458.0458345780692184 [Eh]
	 SCS Total Energy          =    -458.0299212409392453 [Eh]
                               Psi4 1.9 release
    Molecular point group: c1
  Multiplicity = 1
  Basis Set: AUG-CC-PVTZ
    Blend: AUG-CC-PVTZ
  Basis Set: (AUG-CC-PVTZ AUX)
    Blend: AUG-CC-PVTZ-JKFIT
  @DF-RHF Final Energy:   -99.45114290512063
    Total Energy =                        -99.4511429051206477
  Basis Set: (AUG-CC-PVTZ AUX)
	 Singles Energy            =      -0.0000000000000000 [Eh]
	 Same-Spin Energy          =      -0.0820380555160039 [Eh]
	 Opposite-Spin Energy      =      -0.2299357286025306 [Eh]
	 Correlation Energy        =      -0.3119737841185345 [Eh]
	 Total Energy              =     -99.7631166892391690 [Eh]
	 SCS Total Energy          =     -99.7544117979490039 [Eh]
                               Psi4 1.9 release
    Molecular point group: c1

    Geometry (in Bohr), charge = -1, multiplicity = 1:

       Center              X                  Y                   Z               Mass
    ------------   -----------------  -----------------  -----------------  -----------------
         F            0.000000000000     0.000000000000     0.000000000000    18.998403162730
         O            1.582690983498     1.234329420900     4.826211236055    15.994914619570
         H            0.851291383901     0.930461459927     3.128800648659     1.007825032230
         H            3.013659635835     0.084697524943     4.958919142942     1.007825032230
         O            4.902973800998     0.325688628544    -2.495362561680    15.994914619570
         H            4.029687894723     0.450274492543    -0.851571063367     1.007825032230
         H            4.825610303147     2.033951913079    -3.259080257474     1.007825032230
         O           -3.092616172809     1.674352149213    -4.308231635889    15.994914619570
         H           -4.077945830788     0.220022702513    -4.903434894172     1.007825032230
         H           -2.412146582019     1.153889448918    -2.623098599130     1.007825032230
         O            2.904847315805    -4.984181001787     0.525840860848    15.994914619570
         H            2.376835159639    -3.193425502698     0.732996418173     1.007825032230
         H            1.706526626225    -5.757640235758    -0.586567209890     1.007825032230
         O           -4.744395543454    -0.587209716773     3.072456574503    15.994914619570
         H           -2.995571177362    -0.327476309459     2.720035880188     1.007825032230
         H           -5.198585548529    -0.313146516250     4.802839103336     1.007825032230
         O            1.789489382585     4.990027814419    -0.191385792808    15.994914619570
         H            1.176422543238     3.214461933926    -0.267296091268     1.007825032230
         H            0.859993572708     5.908003853835    -1.604419054488     1.007825032230

  Charge       = -1
  Multiplicity = 1
  Basis Set: AUG-CC-PVTZ
    Blend: AUG-CC-PVTZ
  Basis Set: (AUG-CC-PVTZ AUX)
    Blend: AUG-CC-PVTZ-JKFIT

    Orbital Energies [Eh]
    ---------------------

    Doubly Occupied:

       1A    -26.002336     2A    -20.420085     3A    -20.419706
       4A    -20.419468     5A    -20.414352     6A    -20.414079
       7A    -20.409864     8A     -1.266245     9A     -1.206246
      10A     -1.195761    11A     -1.186837    12A     -1.184450
      13A     -1.182034    14A     -1.172994    15A     -0.595841
      16A     -0.569472    17A     -0.560016    18A     -0.553649
      19A     -0.550320    20A     -0.539247    21A     -0.440168
      22A     -0.436072    23A     -0.430211    24A     -0.429836
      25A     -0.427380    26A     -0.424081    27A     -0.370101
      28A     -0.367840    29A     -0.361122    30A     -0.359575
      31A     -0.358383    32A     -0.350905    33A     -0.349478
      34A     -0.348600    35A     -0.343189

  @DF-RHF Final Energy:  -555.90887127401004

   => Energetics <=

    Nuclear Repulsion Energy =            346.3153098805716468
    One-Electron Energy =               -1472.3284749410479435
    Two-Electron Energy =                 570.1042937864662008
    Total Energy =                       -555.9088712740100391
 Dipole X            :        -31.9302954           30.8996961           -1.0305993
 Dipole Y            :        -26.1541205           25.6281331           -0.5259874
 Dipole Z            :        -14.0123582           13.6843535           -0.3280047
 Magnitude           :                                                    1.2026574
  Basis Set: (AUG-CC-PVTZ AUX)
    Blend: AUG-CC-PVTZ-RI
	 Reference Energy          =    -555.9088712740100391 [Eh]
	 Singles Energy            =      -0.0000000000000000 [Eh]
	 Same-Spin Energy          =      -0.5036330021710602 [Eh]
	 Opposite-Spin Energy      =      -1.5373611084512977 [Eh]
	 Correlation Energy        =      -2.0409941106223579 [Eh]
	 Total Energy              =    -557.9498653846324032 [Eh]

	 ================> DF-SCS-MP2 Energies <==================
	-----------------------------------------------------------
	 SCS Same-Spin Scale       =       0.3333333333333333 [-]
	 SCS Opposite-Spin Scale   =       1.2000000000000000 [-]
	 SCS Same-Spin Energy      =      -0.1678776673903534 [Eh]
	 SCS Opposite-Spin Energy  =      -1.8448333301415571 [Eh]
	 SCS Correlation Energy    =      -2.0127109975319106 [Eh]
	 SCS Total Energy          =    -557.9215822715419790 [Eh]
	-----------------------------------------------------------

*** Psi4 exiting successfully. Buy a developer a beer!
