                               Psi4 1.8.2 release

  ==> Input File <==

--------------------------------------------------------------------------
MEMORY 60 GB

molecule dimer {
-1 1
F          0.000000     0.000000     0.000000
Gh(O)      0.201552     2.379442     1.269283
Gh(H)      1.013565     2.687047     0.939558
Gh(H)      0.155342     1.525594     0.845189
Gh(O)      0.236368    -1.899810    -2.155158
Gh(H)      0.057747    -2.671067    -1.620418
Gh(H)      0.039340    -1.225771    -1.496507
Gh(O)     -1.902528    -1.173327     1.751797
Gh(H)     -2.408246    -0.467276     2.231861
Gh(H)     -1.241179    -0.782759     1.178792
Gh(O)     -2.154508     1.404000    -1.305374
Gh(H)     -1.492883     0.912606    -0.734862
Gh(H)     -1.805542     2.277133    -1.424237
Gh(O)      1.499428    -1.231164     1.872563
Gh(H)      0.915236    -1.644768     2.531361
Gh(H)      1.009227    -0.739951     1.204952

units ang
no_reorient
no_com
symmetry c1
}

set {
basis        aug-cc-pVTZ
scf_type     df
}

energy("mp2")
--------------------------------------------------------------------------

    Molecular point group: c1

    Geometry (in Angstrom), charge = -1, multiplicity = 1:

       Center              X                  Y                   Z               Mass
    ------------   -----------------  -----------------  -----------------  -----------------
         F            0.000000000000     0.000000000000     0.000000000000    18.998403162730
      Gh(O)           0.201552000000     2.379442000000     1.269283000000    15.994914619570
      Gh(H)           1.013565000000     2.687047000000     0.939558000000     1.007825032230
      Gh(H)           0.155342000000     1.525594000000     0.845189000000     1.007825032230
      Gh(O)           0.236368000000    -1.899810000000    -2.155158000000    15.994914619570
      Gh(H)           0.057747000000    -2.671067000000    -1.620418000000     1.007825032230
      Gh(H)           0.039340000000    -1.225771000000    -1.496507000000     1.007825032230
      Gh(O)          -1.902528000000    -1.173327000000     1.751797000000    15.994914619570
      Gh(H)          -2.408246000000    -0.467276000000     2.231861000000     1.007825032230
      Gh(H)          -1.241179000000    -0.782759000000     1.178792000000     1.007825032230
      Gh(O)          -2.154508000000     1.404000000000    -1.305374000000    15.994914619570
      Gh(H)          -1.492883000000     0.912606000000    -0.734862000000     1.007825032230
      Gh(H)          -1.805542000000     2.277133000000    -1.424237000000     1.007825032230
      Gh(O)           1.499428000000    -1.231164000000     1.872563000000    15.994914619570
      Gh(H)           0.915236000000    -1.644768000000     2.531361000000     1.007825032230
      Gh(H)           1.009227000000    -0.739951000000     1.204952000000     1.007825032230

  Charge       = -1
  Multiplicity = 1
  Basis Set: AUG-CC-PVTZ
    Blend: AUG-CC-PVTZ
  Basis Set: (AUG-CC-PVTZ AUX)
    Blend: AUG-CC-PVTZ-JKFIT

    Orbital Energies [Eh]
    ---------------------

    Doubly Occupied:

       1A    -25.833560     2A     -1.075885     3A     -0.180918
       4A     -0.180913     5A     -0.180884

  @DF-RHF Final Energy:   -99.45111771275864

   => Energetics <=

    Nuclear Repulsion Energy =              0.0000000000000000
    One-Electron Energy =                -143.9979074497362888
    Two-Electron Energy =                  44.5467897369776580
    Total Energy =                        -99.4511177127586308
 Dipole X            :         -0.0001192            0.0000000           -0.0001192
 Dipole Y            :         -0.0000443            0.0000000           -0.0000443
 Dipole Z            :          0.0001779            0.0000000            0.0001779
 Magnitude           :                                                    0.0002186
  Basis Set: (AUG-CC-PVTZ AUX)
    Blend: AUG-CC-PVTZ-RI
	 Reference Energy          =     -99.4511177127586450 [Eh]
	 Singles Energy            =      -0.0000000000000000 [Eh]
	 Same-Spin Energy          =      -0.0820709097177879 [Eh]
	 Opposite-Spin Energy      =      -0.2302598381557686 [Eh]
	 Correlation Energy        =      -0.3123307478735565 [Eh]
	 Total Energy              =     -99.7634484606322047 [Eh]

	 ================> DF-SCS-MP2 Energies <==================
	-----------------------------------------------------------
	 SCS Same-Spin Scale       =       0.3333333333333333 [-]
	 SCS Opposite-Spin Scale   =       1.2000000000000000 [-]
	 SCS Same-Spin Energy      =      -0.0273569699059293 [Eh]
	 SCS Opposite-Spin Energy  =      -0.2763118057869224 [Eh]
	 SCS Correlation Energy    =      -0.3036687756928517 [Eh]
	 SCS Total Energy          =     -99.7547864884515008 [Eh]
	-----------------------------------------------------------

*** Psi4 exiting successfully. Buy a developer a beer!
