                               Psi4 1.8.2 release

  ==> Input File <==

--------------------------------------------------------------------------
MEMORY 60 GB

molecule dimer {
0 1
Gh(F)      0.000000     0.000000     0.000000
Gh(O)     -1.091558    -1.809519     1.863944
Gh(H)     -1.964939    -2.052092     1.500602
Gh(H)     -0.591849    -1.199205     1.314271
Gh(O)      0.258123    -2.349417    -1.373394
Gh(H)      0.547624    -1.593259    -0.773108
Gh(H)     -0.646190    -2.478934    -1.244225
Gh(O)     -0.214660     2.146157     2.063174
Gh(H)     -0.165088     1.390555     1.502524
Gh(H)     -0.077747     1.856844     2.975158
O         -2.197647     0.913173    -1.713640
H         -2.446327     0.152611    -2.322329
H         -2.435783     1.766268    -2.074757
Gh(O)      2.616092    -0.020543     0.476284
Gh(H)      1.590067     0.041365     0.327444
Gh(H)      2.682891    -0.935497     0.868501
Gh(O)     -2.727641     0.971623     1.032331
Gh(H)     -2.177883     0.803632     0.264595
Gh(H)     -2.164027     1.556644     1.587096
Gh(O)      0.756321     1.995676    -1.708341
Gh(H)      0.223582     2.645031    -1.239711
Gh(H)      0.300779     1.186526    -1.574937

units ang
no_reorient
no_com
symmetry c1
}

set {
basis        aug-cc-pVTZ
scf_type     df
}

energy("mp2")
--------------------------------------------------------------------------

    Molecular point group: c1

    Geometry (in Angstrom), charge = 0, multiplicity = 1:

       Center              X                  Y                   Z               Mass
    ------------   -----------------  -----------------  -----------------  -----------------
      Gh(F)           0.000000000000     0.000000000000     0.000000000000    18.998403162730
      Gh(O)          -1.091558000000    -1.809519000000     1.863944000000    15.994914619570
      Gh(H)          -1.964939000000    -2.052092000000     1.500602000000     1.007825032230
      Gh(H)          -0.591849000000    -1.199205000000     1.314271000000     1.007825032230
      Gh(O)           0.258123000000    -2.349417000000    -1.373394000000    15.994914619570
      Gh(H)           0.547624000000    -1.593259000000    -0.773108000000     1.007825032230
      Gh(H)          -0.646190000000    -2.478934000000    -1.244225000000     1.007825032230
      Gh(O)          -0.214660000000     2.146157000000     2.063174000000    15.994914619570
      Gh(H)          -0.165088000000     1.390555000000     1.502524000000     1.007825032230
      Gh(H)          -0.077747000000     1.856844000000     2.975158000000     1.007825032230
         O           -2.197647000000     0.913173000000    -1.713640000000    15.994914619570
         H           -2.446327000000     0.152611000000    -2.322329000000     1.007825032230
         H           -2.435783000000     1.766268000000    -2.074757000000     1.007825032230
      Gh(O)           2.616092000000    -0.020543000000     0.476284000000    15.994914619570
      Gh(H)           1.590067000000     0.041365000000     0.327444000000     1.007825032230
      Gh(H)           2.682891000000    -0.935497000000     0.868501000000     1.007825032230
      Gh(O)          -2.727641000000     0.971623000000     1.032331000000    15.994914619570
      Gh(H)          -2.177883000000     0.803632000000     0.264595000000     1.007825032230
      Gh(H)          -2.164027000000     1.556644000000     1.587096000000     1.007825032230
      Gh(O)           0.756321000000     1.995676000000    -1.708341000000    15.994914619570
      Gh(H)           0.223582000000     2.645031000000    -1.239711000000     1.007825032230
      Gh(H)           0.300779000000     1.186526000000    -1.574937000000     1.007825032230

  Charge       = 0
  Multiplicity = 1
  Basis Set: AUG-CC-PVTZ
    Blend: AUG-CC-PVTZ
  Basis Set: (AUG-CC-PVTZ AUX)
    Blend: AUG-CC-PVTZ-JKFIT

    Orbital Energies [Eh]
    ---------------------

    Doubly Occupied:

       1A    -20.567003     2A     -1.336716     3A     -0.719188
       4A     -0.564666     5A     -0.505866

  @DF-RHF Final Energy:   -76.05565679804826

   => Energetics <=

    Nuclear Repulsion Energy =              8.9608438777636756
    One-Electron Energy =                -122.6461219440670476
    Two-Electron Energy =                  37.6296212682551214
    Total Energy =                        -76.0556567980482470
 Dipole X            :         42.1224294          -42.4494584           -0.3270290
 Dipole Y            :        -17.3630845           17.4313308            0.0682463
 Dipole Z            :         33.5650266          -34.2157705           -0.6507439
 Magnitude           :                                                    0.7314869
  Basis Set: (AUG-CC-PVTZ AUX)
    Blend: AUG-CC-PVTZ-RI
	 Reference Energy          =     -76.0556567980482612 [Eh]
	 Singles Energy            =      -0.0000000000000000 [Eh]
	 Same-Spin Energy          =      -0.0687755203909206 [Eh]
	 Opposite-Spin Energy      =      -0.2171925757604498 [Eh]
	 Correlation Energy        =      -0.2859680961513704 [Eh]
	 Total Energy              =     -76.3416248941996258 [Eh]

	 ================> DF-SCS-MP2 Energies <==================
	-----------------------------------------------------------
	 SCS Same-Spin Scale       =       0.3333333333333333 [-]
	 SCS Opposite-Spin Scale   =       1.2000000000000000 [-]
	 SCS Same-Spin Energy      =      -0.0229251734636402 [Eh]
	 SCS Opposite-Spin Energy  =      -0.2606310909125397 [Eh]
	 SCS Correlation Energy    =      -0.2835562643761799 [Eh]
	 SCS Total Energy          =     -76.3392130624244345 [Eh]
	-----------------------------------------------------------

*** Psi4 exiting successfully. Buy a developer a beer!
