                               Psi4 1.8.2 release

  ==> Input File <==

--------------------------------------------------------------------------
MEMORY 60 GB

molecule dimer {
0 1
Gh(F)      0.000000     0.000000     0.000000
Gh(O)     -1.945136    -1.413182     1.367579
Gh(H)     -1.132921    -0.938922     1.171212
Gh(H)     -2.651383    -0.875104     0.961083
Gh(O)     -1.350681    -2.008379    -1.670930
Gh(H)     -0.985944    -1.268364    -1.181080
Gh(H)     -1.736380    -2.627030    -1.021029
Gh(O)      0.862309    -0.601341     2.674102
Gh(H)      1.741873    -0.563225     3.014842
Gh(H)      0.976276    -0.526036     1.729429
O         -1.323555     2.376947     0.717854
H         -0.951878     1.552126     0.528634
H         -1.972845     2.155135     1.420980
Gh(O)      1.514005     2.065652    -0.894712
Gh(H)      0.997807     1.295821    -0.630673
Gh(H)      2.370089     1.930574    -0.478737

units ang
no_reorient
no_com
symmetry c1
}

set {
basis        aug-cc-pVTZ
scf_type     df
}

energy("mp2")
--------------------------------------------------------------------------

    Molecular point group: c1

    Geometry (in Angstrom), charge = 0, multiplicity = 1:

       Center              X                  Y                   Z               Mass
    ------------   -----------------  -----------------  -----------------  -----------------
      Gh(F)           0.000000000000     0.000000000000     0.000000000000    18.998403162730
      Gh(O)          -1.945136000000    -1.413182000000     1.367579000000    15.994914619570
      Gh(H)          -1.132921000000    -0.938922000000     1.171212000000     1.007825032230
      Gh(H)          -2.651383000000    -0.875104000000     0.961083000000     1.007825032230
      Gh(O)          -1.350681000000    -2.008379000000    -1.670930000000    15.994914619570
      Gh(H)          -0.985944000000    -1.268364000000    -1.181080000000     1.007825032230
      Gh(H)          -1.736380000000    -2.627030000000    -1.021029000000     1.007825032230
      Gh(O)           0.862309000000    -0.601341000000     2.674102000000    15.994914619570
      Gh(H)           1.741873000000    -0.563225000000     3.014842000000     1.007825032230
      Gh(H)           0.976276000000    -0.526036000000     1.729429000000     1.007825032230
         O           -1.323555000000     2.376947000000     0.717854000000    15.994914619570
         H           -0.951878000000     1.552126000000     0.528634000000     1.007825032230
         H           -1.972845000000     2.155135000000     1.420980000000     1.007825032230
      Gh(O)           1.514005000000     2.065652000000    -0.894712000000    15.994914619570
      Gh(H)           0.997807000000     1.295821000000    -0.630673000000     1.007825032230
      Gh(H)           2.370089000000     1.930574000000    -0.478737000000     1.007825032230

  Charge       = 0
  Multiplicity = 1
  Basis Set: AUG-CC-PVTZ
    Blend: AUG-CC-PVTZ
  Basis Set: (AUG-CC-PVTZ AUX)
    Blend: AUG-CC-PVTZ-JKFIT

    Orbital Energies [Eh]
    ---------------------

    Doubly Occupied:

       1A    -20.567243     2A     -1.358123     3A     -0.715554
       4A     -0.589938     5A     -0.511406

  @DF-RHF Final Energy:   -76.05885640142259

   => Energetics <=

    Nuclear Repulsion Energy =              9.2460013161802088
    One-Electron Energy =                -123.1251860313543318
    Two-Electron Energy =                  37.8203283137515314
    Total Energy =                        -76.0588564014225881
 Dipole X            :         25.3597732          -25.5361772           -0.1764040
 Dipole Y            :        -43.6381109           42.9399387           -0.6981722
 Dipole Z            :        -14.2027417           14.5366162            0.3338745
 Magnitude           :                                                    0.7937474
  Basis Set: (AUG-CC-PVTZ AUX)
    Blend: AUG-CC-PVTZ-RI
	 Reference Energy          =     -76.0588564014225881 [Eh]
	 Singles Energy            =      -0.0000000000000000 [Eh]
	 Same-Spin Energy          =      -0.0683774819081720 [Eh]
	 Opposite-Spin Energy      =      -0.2161206361961373 [Eh]
	 Correlation Energy        =      -0.2844981181043094 [Eh]
	 Total Energy              =     -76.3433545195268977 [Eh]

	 ================> DF-SCS-MP2 Energies <==================
	-----------------------------------------------------------
	 SCS Same-Spin Scale       =       0.3333333333333333 [-]
	 SCS Opposite-Spin Scale   =       1.2000000000000000 [-]
	 SCS Same-Spin Energy      =      -0.0227924939693907 [Eh]
	 SCS Opposite-Spin Energy  =      -0.2593447634353648 [Eh]
	 SCS Correlation Energy    =      -0.2821372574047555 [Eh]
	 SCS Total Energy          =     -76.3409936588273439 [Eh]
	-----------------------------------------------------------

*** Psi4 exiting successfully. Buy a developer a beer!
