                               Psi4 1.9 release

  ==> Input File <==

--------------------------------------------------------------------------
MEMORY 60 GB

molecule dimer {
-1 1
F      0.000000     0.000000     0.000000
--
0 1
O     -1.168925    -2.673082    -0.156407
H     -0.532814    -1.976025     0.030081
H     -0.770947    -3.520667    -0.293653
O      1.082029     2.520347    -0.603439
H      0.672508     1.677488    -0.480498
H      0.457772     2.981546    -1.209019
O     -0.925839     1.844347     1.960486
H     -1.580309     2.274669     1.443794
H     -0.581606     1.043570     1.437507
O     -2.619341     0.361552    -1.053879
H     -1.651449     0.465340    -0.947193
H     -2.854127     1.241772    -0.755563
O      1.854349    -0.472305    -2.337972
H      2.829300    -0.270573    -2.277932
H      1.410065    -0.078132    -1.605965
O      1.344018    -1.431921     1.858566
H      2.072652    -1.020212     2.353761
H      0.950753    -0.724812     1.238400

units ang
no_reorient
no_com
symmetry c1
}

set {
basis        aug-cc-pVTZ
scf_type     df
}

energy("mp2", bsse_type="cp")
--------------------------------------------------------------------------

                               Psi4 1.9 release
    Molecular point group: c1
  Charge       = 0
  Multiplicity = 1
  Basis Set: AUG-CC-PVTZ
    Blend: AUG-CC-PVTZ
  Basis Set: (AUG-CC-PVTZ AUX)
    Blend: AUG-CC-PVTZ-JKFIT
  @DF-RHF Final Energy:  -456.31810629682599
    Total Energy =                       -456.3181062968259880
 Dipole X            :          6.6392210           -5.7596471            0.8795739
 Dipole Y            :         -5.0538211            6.2086347            1.1548136
 Dipole Z            :          6.8688039           -7.0438407           -0.1750369
 Magnitude           :                                                    1.4621500
  Basis Set: (AUG-CC-PVTZ AUX)
    Blend: AUG-CC-PVTZ-RI
	 Reference Energy          =    -456.3181062968259880 [Eh]
	 Singles Energy            =      -0.0000000000000000 [Eh]
	 Same-Spin Energy          =      -0.4150438145546043 [Eh]
	 Opposite-Spin Energy      =      -1.3052115382003606 [Eh]
	 Correlation Energy        =      -1.7202553527549649 [Eh]
	 Total Energy              =    -458.0383616495809633 [Eh]
	 SCS Total Energy          =    -458.0227080808513165 [Eh]
                               Psi4 1.9 release
    Molecular point group: c1
  Multiplicity = 1
  Basis Set: AUG-CC-PVTZ
    Blend: AUG-CC-PVTZ
  Basis Set: (AUG-CC-PVTZ AUX)
    Blend: AUG-CC-PVTZ-JKFIT
  @DF-RHF Final Energy:   -99.45115437494998
    Total Energy =                        -99.4511543749499936
  Basis Set: (AUG-CC-PVTZ AUX)
	 Singles Energy            =      -0.0000000000000000 [Eh]
	 Same-Spin Energy          =      -0.0820805228828684 [Eh]
	 Opposite-Spin Energy      =      -0.2303310316592522 [Eh]
	 Correlation Energy        =      -0.3124115545421206 [Eh]
	 Total Energy              =     -99.7635659294921027 [Eh]
	 SCS Total Energy          =     -99.7549117872353719 [Eh]
                               Psi4 1.9 release
    Molecular point group: c1

    Geometry (in Bohr), charge = -1, multiplicity = 1:

       Center              X                  Y                   Z               Mass
    ------------   -----------------  -----------------  -----------------  -----------------
         F            0.000000000000     0.000000000000     0.000000000000    18.998403162730
         O           -2.208948111201    -5.051392890891    -0.295566394104    15.994914619570
         H           -1.006872535810    -3.734146067058     0.056844851580     1.007825032230
         H           -1.456878687243    -6.653096408937    -0.554923745919     1.007825032230
         O            2.044738469803     4.762765571119    -1.140334443420    15.994914619570
         H            1.270855937179     3.169992898742    -0.908009623830     1.007825032230
         H            0.865063707903     5.634305370454    -2.284714790475     1.007825032230
         O           -1.749582146268     3.485310710310     3.704781612794    15.994914619570
         H           -2.986351203596     4.298501436069     2.728375241579     1.007825032230
         H           -1.099076052923     1.972061492744     2.716494533429     1.007825032230
         O           -4.949837119183     0.683234260112    -1.991542679371    15.994914619570
         H           -3.120786320161     0.879365155221    -1.789935357951     1.007825032230
         H           -5.393518357275     2.346608990262    -1.427807140529     1.007825032230
         O            3.504211751017    -0.892527097684    -4.418126768989    15.994914619570
         H            5.346602126758    -0.511308866944    -4.304667612416     1.007825032230
         H            2.664636669094    -0.147648081634    -3.034834017071     1.007825032230
         O            2.539825927686    -2.705938523292     3.512180726088    15.994914619570
         H            3.916744633382    -1.927921269906     4.447963654784     1.007825032230
         H            1.796662782957    -1.369696172445     2.340236833767     1.007825032230

  Charge       = -1
  Multiplicity = 1
  Basis Set: AUG-CC-PVTZ
    Blend: AUG-CC-PVTZ
  Basis Set: (AUG-CC-PVTZ AUX)
    Blend: AUG-CC-PVTZ-JKFIT

    Orbital Energies [Eh]
    ---------------------

    Doubly Occupied:

       1A    -26.011844     2A    -20.423917     3A    -20.422633
       4A    -20.417106     5A    -20.407495     6A    -20.405678
       7A    -20.392717     8A     -1.279473     9A     -1.208203
      10A     -1.202097    11A     -1.200763    12A     -1.186338
      13A     -1.180877    14A     -1.172341    15A     -0.581282
      16A     -0.574162    17A     -0.567955    18A     -0.561505
      19A     -0.552207    20A     -0.541141    21A     -0.455549
      22A     -0.448392    23A     -0.435597    24A     -0.428992
      25A     -0.421695    26A     -0.403409    27A     -0.375286
      28A     -0.371962    29A     -0.369388    30A     -0.362018
      31A     -0.360449    32A     -0.354242    33A     -0.347644
      34A     -0.344328    35A     -0.339571

  @DF-RHF Final Energy:  -555.91173882563328

   => Energetics <=

    Nuclear Repulsion Energy =            349.1846091644717944
    One-Electron Energy =               -1477.9761761790812216
    Two-Electron Energy =                 572.8798281889761483
    Total Energy =                       -555.9117388256332788
 Dipole X            :          6.6168906           -5.7596471            0.8572435
 Dipole Y            :         -5.2221355            6.2086347            0.9864992
 Dipole Z            :          6.6943704           -7.0438407           -0.3494703
 Magnitude           :                                                    1.3528402
  Basis Set: (AUG-CC-PVTZ AUX)
    Blend: AUG-CC-PVTZ-RI
	 Reference Energy          =    -555.9117388256332788 [Eh]
	 Singles Energy            =      -0.0000000000000000 [Eh]
	 Same-Spin Energy          =      -0.5031620108300944 [Eh]
	 Opposite-Spin Energy      =      -1.5350369803499087 [Eh]
	 Correlation Energy        =      -2.0381989911800029 [Eh]
	 Total Energy              =    -557.9499378168133035 [Eh]

	 ================> DF-SCS-MP2 Energies <==================
	-----------------------------------------------------------
	 SCS Same-Spin Scale       =       0.3333333333333333 [-]
	 SCS Opposite-Spin Scale   =       1.2000000000000000 [-]
	 SCS Same-Spin Energy      =      -0.1677206702766981 [Eh]
	 SCS Opposite-Spin Energy  =      -1.8420443764198904 [Eh]
	 SCS Correlation Energy    =      -2.0097650466965886 [Eh]
	 SCS Total Energy          =    -557.9215038723298221 [Eh]
	-----------------------------------------------------------

*** Psi4 exiting successfully. Buy a developer a beer!
