                               Psi4 1.8.2 release

  ==> Input File <==

--------------------------------------------------------------------------
MEMORY 60 GB

molecule dimer {
-1 1
F          0.000000     0.000000     0.000000
Gh(O)     -0.499858     2.656083    -0.452516
Gh(H)     -0.568811     1.780548    -0.057749
Gh(H)     -0.971596     2.655662    -1.273282
Gh(O)      2.032753     1.165306     1.191711
Gh(H)      1.862455     1.191590     2.129967
Gh(H)      1.311241     0.610980     0.867723
Gh(O)      1.503412    -0.706894    -2.146729
Gh(H)      2.318272    -0.158179    -2.419535
Gh(H)      1.004696    -0.164797    -1.460316
Gh(O)     -1.040215     0.023420     2.545448
Gh(H)     -0.674650     0.273310     1.628852
Gh(H)     -1.234537     0.904277     2.858910

units ang
no_reorient
no_com
symmetry c1
}

set {
basis        aug-cc-pVTZ
scf_type     df
}

energy("mp2")
--------------------------------------------------------------------------

    Molecular point group: c1

    Geometry (in Angstrom), charge = -1, multiplicity = 1:

       Center              X                  Y                   Z               Mass
    ------------   -----------------  -----------------  -----------------  -----------------
         F            0.000000000000     0.000000000000     0.000000000000    18.998403162730
      Gh(O)          -0.499858000000     2.656083000000    -0.452516000000    15.994914619570
      Gh(H)          -0.568811000000     1.780548000000    -0.057749000000     1.007825032230
      Gh(H)          -0.971596000000     2.655662000000    -1.273282000000     1.007825032230
      Gh(O)           2.032753000000     1.165306000000     1.191711000000    15.994914619570
      Gh(H)           1.862455000000     1.191590000000     2.129967000000     1.007825032230
      Gh(H)           1.311241000000     0.610980000000     0.867723000000     1.007825032230
      Gh(O)           1.503412000000    -0.706894000000    -2.146729000000    15.994914619570
      Gh(H)           2.318272000000    -0.158179000000    -2.419535000000     1.007825032230
      Gh(H)           1.004696000000    -0.164797000000    -1.460316000000     1.007825032230
      Gh(O)          -1.040215000000     0.023420000000     2.545448000000    15.994914619570
      Gh(H)          -0.674650000000     0.273310000000     1.628852000000     1.007825032230
      Gh(H)          -1.234537000000     0.904277000000     2.858910000000     1.007825032230

  Charge       = -1
  Multiplicity = 1
  Basis Set: AUG-CC-PVTZ
    Blend: AUG-CC-PVTZ
  Basis Set: (AUG-CC-PVTZ AUX)
    Blend: AUG-CC-PVTZ-JKFIT

    Orbital Energies [Eh]
    ---------------------

    Doubly Occupied:

       1A    -25.833614     2A     -1.075908     3A     -0.180945
       4A     -0.180909     5A     -0.180898

  @DF-RHF Final Energy:   -99.45108200860678

   => Energetics <=

    Nuclear Repulsion Energy =              0.0000000000000000
    One-Electron Energy =                -143.9976152875424589
    Two-Electron Energy =                  44.5465332789356836
    Total Energy =                        -99.4510820086067753
 Dipole X            :         -0.0000024            0.0000000           -0.0000024
 Dipole Y            :          0.0003515            0.0000000            0.0003515
 Dipole Z            :          0.0000405            0.0000000            0.0000405
 Magnitude           :                                                    0.0003539
  Basis Set: (AUG-CC-PVTZ AUX)
    Blend: AUG-CC-PVTZ-RI
	 Reference Energy          =     -99.4510820086067753 [Eh]
	 Singles Energy            =      -0.0000000000000000 [Eh]
	 Same-Spin Energy          =      -0.0820332046196269 [Eh]
	 Opposite-Spin Energy      =      -0.2299551688691716 [Eh]
	 Correlation Energy        =      -0.3119883734887985 [Eh]
	 Total Energy              =     -99.7630703820955773 [Eh]

	 ================> DF-SCS-MP2 Energies <==================
	-----------------------------------------------------------
	 SCS Same-Spin Scale       =       0.3333333333333333 [-]
	 SCS Opposite-Spin Scale   =       1.2000000000000000 [-]
	 SCS Same-Spin Energy      =      -0.0273444015398756 [Eh]
	 SCS Opposite-Spin Energy  =      -0.2759462026430060 [Eh]
	 SCS Correlation Energy    =      -0.3032906041828816 [Eh]
	 SCS Total Energy          =     -99.7543726127896520 [Eh]
	-----------------------------------------------------------

*** Psi4 exiting successfully. Buy a developer a beer!
