                               Psi4 1.8.2 release

  ==> Input File <==

--------------------------------------------------------------------------
MEMORY 60 GB

molecule dimer {
0 1
Gh(F)      0.000000     0.000000     0.000000
Gh(O)     -1.099415     0.509468    -2.395867
Gh(H)     -0.823277     0.145981    -1.541676
Gh(H)     -1.890375     0.027373    -2.614284
O          0.238498     2.462715     1.298490
H          0.012979     3.164109     0.695784
H          0.008055     1.642894     0.840179
Gh(O)      0.322958    -1.372463     2.497652
Gh(H)     -0.493733    -1.781919     2.917983
Gh(H)      0.095175    -0.785721     1.771503
Gh(O)     -2.636381    -0.435403     0.978292
Gh(H)     -1.761899    -0.148892     0.629044
Gh(H)     -3.224729     0.257191     0.655683
Gh(O)      2.875216     1.167609    -0.219419
Gh(H)      2.072560     0.692871    -0.290350
Gh(H)      3.166030     1.069334     0.690007

units ang
no_reorient
no_com
symmetry c1
}

set {
basis        aug-cc-pVTZ
scf_type     df
}

energy("mp2")
--------------------------------------------------------------------------

    Molecular point group: c1

    Geometry (in Angstrom), charge = 0, multiplicity = 1:

       Center              X                  Y                   Z               Mass
    ------------   -----------------  -----------------  -----------------  -----------------
      Gh(F)           0.000000000000     0.000000000000     0.000000000000    18.998403162730
      Gh(O)          -1.099415000000     0.509468000000    -2.395867000000    15.994914619570
      Gh(H)          -0.823277000000     0.145981000000    -1.541676000000     1.007825032230
      Gh(H)          -1.890375000000     0.027373000000    -2.614284000000     1.007825032230
         O            0.238498000000     2.462715000000     1.298490000000    15.994914619570
         H            0.012979000000     3.164109000000     0.695784000000     1.007825032230
         H            0.008055000000     1.642894000000     0.840179000000     1.007825032230
      Gh(O)           0.322958000000    -1.372463000000     2.497652000000    15.994914619570
      Gh(H)          -0.493733000000    -1.781919000000     2.917983000000     1.007825032230
      Gh(H)           0.095175000000    -0.785721000000     1.771503000000     1.007825032230
      Gh(O)          -2.636381000000    -0.435403000000     0.978292000000    15.994914619570
      Gh(H)          -1.761899000000    -0.148892000000     0.629044000000     1.007825032230
      Gh(H)          -3.224729000000     0.257191000000     0.655683000000     1.007825032230
      Gh(O)           2.875216000000     1.167609000000    -0.219419000000    15.994914619570
      Gh(H)           2.072560000000     0.692871000000    -0.290350000000     1.007825032230
      Gh(H)           3.166030000000     1.069334000000     0.690007000000     1.007825032230

  Charge       = 0
  Multiplicity = 1
  Basis Set: AUG-CC-PVTZ
    Blend: AUG-CC-PVTZ
  Basis Set: (AUG-CC-PVTZ AUX)
    Blend: AUG-CC-PVTZ-JKFIT

    Orbital Energies [Eh]
    ---------------------

    Doubly Occupied:

       1A    -20.567015     2A     -1.351672     3A     -0.718553
       4A     -0.582387     5A     -0.509841

  @DF-RHF Final Energy:   -76.06047179384343

   => Energetics <=

    Nuclear Repulsion Energy =              9.1712446770279854
    One-Electron Energy =                -123.0044926337010196
    Two-Electron Energy =                  37.7727761628296079
    Total Energy =                        -76.0604717938434192
 Dipole X            :         -3.9494365            3.6453157           -0.3041208
 Dipole Y            :        -46.3914414           46.3147742           -0.0766672
 Dipole Z            :        -23.2402280           22.5328732           -0.7073548
 Magnitude           :                                                    0.7737688
  Basis Set: (AUG-CC-PVTZ AUX)
    Blend: AUG-CC-PVTZ-RI
	 Reference Energy          =     -76.0604717938434334 [Eh]
	 Singles Energy            =      -0.0000000000000000 [Eh]
	 Same-Spin Energy          =      -0.0684350572903360 [Eh]
	 Opposite-Spin Energy      =      -0.2161698631226470 [Eh]
	 Correlation Energy        =      -0.2846049204129830 [Eh]
	 Total Energy              =     -76.3450767142564217 [Eh]

	 ================> DF-SCS-MP2 Energies <==================
	-----------------------------------------------------------
	 SCS Same-Spin Scale       =       0.3333333333333333 [-]
	 SCS Opposite-Spin Scale   =       1.2000000000000000 [-]
	 SCS Same-Spin Energy      =      -0.0228116857634453 [Eh]
	 SCS Opposite-Spin Energy  =      -0.2594038357471764 [Eh]
	 SCS Correlation Energy    =      -0.2822155215106217 [Eh]
	 SCS Total Energy          =     -76.3426873153540555 [Eh]
	-----------------------------------------------------------

*** Psi4 exiting successfully. Buy a developer a beer!
