                               Psi4 1.8.2 release

  ==> Input File <==

--------------------------------------------------------------------------
MEMORY 60 GB

molecule dimer {
0 1
Gh(F)      0.000000     0.000000     0.000000
Gh(O)     -0.392888    -0.121012     2.785079
Gh(H)     -0.259660    -0.152385     1.841015
Gh(H)     -1.323429     0.233529     2.886423
Gh(O)      1.463244    -0.030176    -2.287680
Gh(H)      1.783413     0.869016    -2.171191
Gh(H)      0.898165    -0.052833    -1.517520
Gh(O)      2.491850    -0.524051     1.213339
Gh(H)      2.257701    -1.257554     1.794479
Gh(H)      1.655262    -0.339365     0.764832
O         -0.964522    -2.497486     0.718464
H         -0.421140    -3.026626     0.161927
H         -0.780543    -1.618486     0.321566
Gh(O)     -2.126631     0.994699    -1.561757
Gh(H)     -1.501523     1.040360    -0.888337
Gh(H)     -2.679426     0.248197    -1.354555

units ang
no_reorient
no_com
symmetry c1
}

set {
basis        aug-cc-pVTZ
scf_type     df
}

energy("mp2")
--------------------------------------------------------------------------

    Molecular point group: c1

    Geometry (in Angstrom), charge = 0, multiplicity = 1:

       Center              X                  Y                   Z               Mass
    ------------   -----------------  -----------------  -----------------  -----------------
      Gh(F)           0.000000000000     0.000000000000     0.000000000000    18.998403162730
      Gh(O)          -0.392888000000    -0.121012000000     2.785079000000    15.994914619570
      Gh(H)          -0.259660000000    -0.152385000000     1.841015000000     1.007825032230
      Gh(H)          -1.323429000000     0.233529000000     2.886423000000     1.007825032230
      Gh(O)           1.463244000000    -0.030176000000    -2.287680000000    15.994914619570
      Gh(H)           1.783413000000     0.869016000000    -2.171191000000     1.007825032230
      Gh(H)           0.898165000000    -0.052833000000    -1.517520000000     1.007825032230
      Gh(O)           2.491850000000    -0.524051000000     1.213339000000    15.994914619570
      Gh(H)           2.257701000000    -1.257554000000     1.794479000000     1.007825032230
      Gh(H)           1.655262000000    -0.339365000000     0.764832000000     1.007825032230
         O           -0.964522000000    -2.497486000000     0.718464000000    15.994914619570
         H           -0.421140000000    -3.026626000000     0.161927000000     1.007825032230
         H           -0.780543000000    -1.618486000000     0.321566000000     1.007825032230
      Gh(O)          -2.126631000000     0.994699000000    -1.561757000000    15.994914619570
      Gh(H)          -1.501523000000     1.040360000000    -0.888337000000     1.007825032230
      Gh(H)          -2.679426000000     0.248197000000    -1.354555000000     1.007825032230

  Charge       = 0
  Multiplicity = 1
  Basis Set: AUG-CC-PVTZ
    Blend: AUG-CC-PVTZ
  Basis Set: (AUG-CC-PVTZ AUX)
    Blend: AUG-CC-PVTZ-JKFIT

    Orbital Energies [Eh]
    ---------------------

    Doubly Occupied:

       1A    -20.570025     2A     -1.355904     3A     -0.704655
       4A     -0.594795     5A     -0.511623

  @DF-RHF Final Energy:   -76.05844207999435

   => Energetics <=

    Nuclear Repulsion Energy =              9.1737565147351585
    One-Electron Energy =                -122.9903896484246530
    Two-Electron Energy =                  37.7581910536951426
    Total Energy =                        -76.0584420799943501
 Dipole X            :         17.3293926          -16.8523111            0.4770815
 Dipole Y            :         46.7554184          -46.5345058            0.2209126
 Dipole Z            :        -12.3993944           11.7752709           -0.6241235
 Magnitude           :                                                    0.8160510
  Basis Set: (AUG-CC-PVTZ AUX)
    Blend: AUG-CC-PVTZ-RI
	 Reference Energy          =     -76.0584420799943501 [Eh]
	 Singles Energy            =      -0.0000000000000000 [Eh]
	 Same-Spin Energy          =      -0.0686266529664782 [Eh]
	 Opposite-Spin Energy      =      -0.2166412534518012 [Eh]
	 Correlation Energy        =      -0.2852679064182794 [Eh]
	 Total Energy              =     -76.3437099864126338 [Eh]

	 ================> DF-SCS-MP2 Energies <==================
	-----------------------------------------------------------
	 SCS Same-Spin Scale       =       0.3333333333333333 [-]
	 SCS Opposite-Spin Scale   =       1.2000000000000000 [-]
	 SCS Same-Spin Energy      =      -0.0228755509888261 [Eh]
	 SCS Opposite-Spin Energy  =      -0.2599695041421615 [Eh]
	 SCS Correlation Energy    =      -0.2828450551309876 [Eh]
	 SCS Total Energy          =     -76.3412871351253415 [Eh]
	-----------------------------------------------------------

*** Psi4 exiting successfully. Buy a developer a beer!
