                               Psi4 1.8.2 release

  ==> Input File <==

--------------------------------------------------------------------------
MEMORY 60 GB

molecule dimer {
-1 1
F          0.000000     0.000000     0.000000
O          1.569360     1.518618    -1.837610
H          1.155301     1.598253    -2.718294
H          0.927061     0.996283    -1.347020
O          0.530386     0.269958     2.875111
H          1.172033     0.849356     3.370842
H          0.631636     0.167803     1.901881
O         -0.928796    -2.527019    -0.372089
H         -0.809957    -1.635358     0.032375
H         -1.197638    -3.136721     0.344653
O         -1.941797     1.884913     0.438019
H         -1.127941     2.210082     0.062217
H         -1.791200     0.968612     0.500762
O         -2.979564    -0.679629     0.263051
H         -3.238399    -1.549104     0.622195
H         -3.682243    -0.073049     0.667091
O          1.997910    -1.718340     0.059017
H          1.266622    -1.101851    -0.130084
H          2.707820    -1.267608     0.569883

units ang
no_reorient
no_com
symmetry c1
}

set {
basis        aug-cc-pVTZ
scf_type     df
}

energy("mp2")
--------------------------------------------------------------------------

    Molecular point group: c1

    Geometry (in Angstrom), charge = -1, multiplicity = 1:

       Center              X                  Y                   Z               Mass
    ------------   -----------------  -----------------  -----------------  -----------------
         F            0.000000000000     0.000000000000     0.000000000000    18.998403162730
         O            1.569360000000     1.518618000000    -1.837610000000    15.994914619570
         H            1.155301000000     1.598253000000    -2.718294000000     1.007825032230
         H            0.927061000000     0.996283000000    -1.347020000000     1.007825032230
         O            0.530386000000     0.269958000000     2.875111000000    15.994914619570
         H            1.172033000000     0.849356000000     3.370842000000     1.007825032230
         H            0.631636000000     0.167803000000     1.901881000000     1.007825032230
         O           -0.928796000000    -2.527019000000    -0.372089000000    15.994914619570
         H           -0.809957000000    -1.635358000000     0.032375000000     1.007825032230
         H           -1.197638000000    -3.136721000000     0.344653000000     1.007825032230
         O           -1.941797000000     1.884913000000     0.438019000000    15.994914619570
         H           -1.127941000000     2.210082000000     0.062217000000     1.007825032230
         H           -1.791200000000     0.968612000000     0.500762000000     1.007825032230
         O           -2.979564000000    -0.679629000000     0.263051000000    15.994914619570
         H           -3.238399000000    -1.549104000000     0.622195000000     1.007825032230
         H           -3.682243000000    -0.073049000000     0.667091000000     1.007825032230
         O            1.997910000000    -1.718340000000     0.059017000000    15.994914619570
         H            1.266622000000    -1.101851000000    -0.130084000000     1.007825032230
         H            2.707820000000    -1.267608000000     0.569883000000     1.007825032230

  Charge       = -1
  Multiplicity = 1
  Basis Set: AUG-CC-PVTZ
    Blend: AUG-CC-PVTZ
  Basis Set: (AUG-CC-PVTZ AUX)
    Blend: AUG-CC-PVTZ-JKFIT

    Orbital Energies [Eh]
    ---------------------

    Doubly Occupied:

       1A    -25.974201     2A    -20.450980     3A    -20.409407
       4A    -20.408551     5A    -20.386590     6A    -20.382623
       7A    -20.372236     8A     -1.243665     9A     -1.217592
      10A     -1.189615    11A     -1.182710    12A     -1.173748
      13A     -1.160510    14A     -1.147541    15A     -0.581452
      16A     -0.570614    17A     -0.552704    18A     -0.542878
      19A     -0.540820    20A     -0.526534    21A     -0.460656
      22A     -0.433690    23A     -0.425040    24A     -0.404973
      25A     -0.402843    26A     -0.391576    27A     -0.383205
      28A     -0.353255    29A     -0.351733    30A     -0.340139
      31A     -0.335993    32A     -0.330054    33A     -0.329041
      34A     -0.318351    35A     -0.312822

  @DF-RHF Final Energy:  -555.88852790974261

   => Energetics <=

    Nuclear Repulsion Energy =            355.8520322320024434
    One-Electron Energy =               -1492.3044120590107013
    Two-Electron Energy =                 580.5638519172657652
    Total Energy =                       -555.8885279097426064
 Dipole X            :         33.5138066          -34.0281339           -0.5143273
 Dipole Y            :         23.1169288          -22.6489232            0.4680056
 Dipole Z            :        -28.4296360           28.8759468            0.4463108
 Magnitude           :                                                    0.8262900
  Basis Set: (AUG-CC-PVTZ AUX)
    Blend: AUG-CC-PVTZ-RI
	 Reference Energy          =    -555.8885279097426064 [Eh]
	 Singles Energy            =      -0.0000000000000000 [Eh]
	 Same-Spin Energy          =      -0.5049391922276611 [Eh]
	 Opposite-Spin Energy      =      -1.5374814459584698 [Eh]
	 Correlation Energy        =      -2.0424206381861310 [Eh]
	 Total Energy              =    -557.9309485479287787 [Eh]

	 ================> DF-SCS-MP2 Energies <==================
	-----------------------------------------------------------
	 SCS Same-Spin Scale       =       0.3333333333333333 [-]
	 SCS Opposite-Spin Scale   =       1.2000000000000000 [-]
	 SCS Same-Spin Energy      =      -0.1683130640758870 [Eh]
	 SCS Opposite-Spin Energy  =      -1.8449777351501637 [Eh]
	 SCS Correlation Energy    =      -2.0132907992260507 [Eh]
	 SCS Total Energy          =    -557.9018187089686762 [Eh]
	-----------------------------------------------------------

*** Psi4 exiting successfully. Buy a developer a beer!
