                               Psi4 1.8.2 release

  ==> Input File <==

--------------------------------------------------------------------------
MEMORY 60 GB

molecule dimer {
-1 1
F          0.000000     0.000000     0.000000
O          2.400550     0.878111     1.258466
H          1.541205     0.949633     0.811432
H          2.699131     1.774987     1.477501
O         -2.134479     1.075150     1.390297
H         -2.935259     0.501464     1.548356
H         -1.522539     0.602603     0.828169
O         -2.058570    -0.966210    -1.758447
H         -1.269903    -0.802439    -1.187441
H         -2.168440    -1.875697    -2.119616
O          2.056294    -1.500050    -1.140092
H          1.522958    -0.799826    -0.738451
H          2.773549    -1.554714    -0.462578
O         -0.008638     2.314735    -1.744331
H         -0.015099     1.517325    -1.142884
H         -0.979067     2.389768    -1.960602
O          0.111329    -1.229377     2.544786
H         -0.031102    -0.875406     1.676046
H          0.128193    -0.452941     3.103989

units ang
no_reorient
no_com
symmetry c1
}

set {
basis        aug-cc-pVTZ
scf_type     df
}

energy("mp2")
--------------------------------------------------------------------------

    Molecular point group: c1

    Geometry (in Angstrom), charge = -1, multiplicity = 1:

       Center              X                  Y                   Z               Mass
    ------------   -----------------  -----------------  -----------------  -----------------
         F            0.000000000000     0.000000000000     0.000000000000    18.998403162730
         O            2.400550000000     0.878111000000     1.258466000000    15.994914619570
         H            1.541205000000     0.949633000000     0.811432000000     1.007825032230
         H            2.699131000000     1.774987000000     1.477501000000     1.007825032230
         O           -2.134479000000     1.075150000000     1.390297000000    15.994914619570
         H           -2.935259000000     0.501464000000     1.548356000000     1.007825032230
         H           -1.522539000000     0.602603000000     0.828169000000     1.007825032230
         O           -2.058570000000    -0.966210000000    -1.758447000000    15.994914619570
         H           -1.269903000000    -0.802439000000    -1.187441000000     1.007825032230
         H           -2.168440000000    -1.875697000000    -2.119616000000     1.007825032230
         O            2.056294000000    -1.500050000000    -1.140092000000    15.994914619570
         H            1.522958000000    -0.799826000000    -0.738451000000     1.007825032230
         H            2.773549000000    -1.554714000000    -0.462578000000     1.007825032230
         O           -0.008638000000     2.314735000000    -1.744331000000    15.994914619570
         H           -0.015099000000     1.517325000000    -1.142884000000     1.007825032230
         H           -0.979067000000     2.389768000000    -1.960602000000     1.007825032230
         O            0.111329000000    -1.229377000000     2.544786000000    15.994914619570
         H           -0.031102000000    -0.875406000000     1.676046000000     1.007825032230
         H            0.128193000000    -0.452941000000     3.103989000000     1.007825032230

  Charge       = -1
  Multiplicity = 1
  Basis Set: AUG-CC-PVTZ
    Blend: AUG-CC-PVTZ
  Basis Set: (AUG-CC-PVTZ AUX)
    Blend: AUG-CC-PVTZ-JKFIT

    Orbital Energies [Eh]
    ---------------------

    Doubly Occupied:

       1A    -26.014690     2A    -20.424315     3A    -20.416948
       4A    -20.413451     5A    -20.413042     6A    -20.400365
       7A    -20.398131     8A     -1.283046     9A     -1.203345
      10A     -1.191526    11A     -1.188580    12A     -1.185014
      13A     -1.178037    14A     -1.177453    15A     -0.583131
      16A     -0.576156    17A     -0.569151    18A     -0.557186
      19A     -0.534763    20A     -0.531571    21A     -0.441406
      22A     -0.439535    23A     -0.433984    24A     -0.429227
      25A     -0.425028    26A     -0.416383    27A     -0.372295
      28A     -0.371217    29A     -0.368569    30A     -0.366363
      31A     -0.360326    32A     -0.356086    33A     -0.350111
      34A     -0.342908    35A     -0.340732

  @DF-RHF Final Energy:  -555.92545712738831

   => Energetics <=

    Nuclear Repulsion Energy =            351.5315282700086641
    One-Electron Energy =               -1482.8058139562244833
    Two-Electron Energy =                 575.3488285588274493
    Total Energy =                       -555.9254571273883130
 Dipole X            :         -5.6206712            5.0559906           -0.5646806
 Dipole Y            :        -11.1655630           11.2507283            0.0851652
 Dipole Z            :        -11.3776983           11.7906684            0.4129700
 Magnitude           :                                                    0.7047422
  Basis Set: (AUG-CC-PVTZ AUX)
    Blend: AUG-CC-PVTZ-RI
	 Reference Energy          =    -555.9254571273883130 [Eh]
	 Singles Energy            =      -0.0000000000000000 [Eh]
	 Same-Spin Energy          =      -0.5035419351788990 [Eh]
	 Opposite-Spin Energy      =      -1.5361436179822654 [Eh]
	 Correlation Energy        =      -2.0396855531611644 [Eh]
	 Total Energy              =    -557.9651426805494339 [Eh]

	 ================> DF-SCS-MP2 Energies <==================
	-----------------------------------------------------------
	 SCS Same-Spin Scale       =       0.3333333333333333 [-]
	 SCS Opposite-Spin Scale   =       1.2000000000000000 [-]
	 SCS Same-Spin Energy      =      -0.1678473117262997 [Eh]
	 SCS Opposite-Spin Energy  =      -1.8433723415787184 [Eh]
	 SCS Correlation Energy    =      -2.0112196533050182 [Eh]
	 SCS Total Energy          =    -557.9366767806933467 [Eh]
	-----------------------------------------------------------

*** Psi4 exiting successfully. Buy a developer a beer!
