                               Psi4 1.8.2 release

  ==> Input File <==

--------------------------------------------------------------------------
MEMORY 60 GB

molecule dimer {
-1 1
F          0.000000     0.000000     0.000000
O         -1.136882    -1.427020    -2.064111
H         -0.783852    -0.777272    -1.407214
H         -0.400851    -1.885120    -2.490398
O          0.647093     1.533221    -2.138006
H         -0.259996     1.897885    -2.425146
H          0.490876     1.036365    -1.331999
O         -1.960682     2.060929     0.326986
H         -1.310449     1.308838     0.298130
H         -2.313939     1.970028     1.209085
O          0.487728    -2.673074     1.248775
H          0.447712    -2.447997     2.166696
H          0.530132    -1.919359     0.687623

units ang
no_reorient
no_com
symmetry c1
}

set {
basis        aug-cc-pVTZ
scf_type     df
}

energy("mp2")
--------------------------------------------------------------------------

    Molecular point group: c1

    Geometry (in Angstrom), charge = -1, multiplicity = 1:

       Center              X                  Y                   Z               Mass
    ------------   -----------------  -----------------  -----------------  -----------------
         F            0.000000000000     0.000000000000     0.000000000000    18.998403162730
         O           -1.136882000000    -1.427020000000    -2.064111000000    15.994914619570
         H           -0.783852000000    -0.777272000000    -1.407214000000     1.007825032230
         H           -0.400851000000    -1.885120000000    -2.490398000000     1.007825032230
         O            0.647093000000     1.533221000000    -2.138006000000    15.994914619570
         H           -0.259996000000     1.897885000000    -2.425146000000     1.007825032230
         H            0.490876000000     1.036365000000    -1.331999000000     1.007825032230
         O           -1.960682000000     2.060929000000     0.326986000000    15.994914619570
         H           -1.310449000000     1.308838000000     0.298130000000     1.007825032230
         H           -2.313939000000     1.970028000000     1.209085000000     1.007825032230
         O            0.487728000000    -2.673074000000     1.248775000000    15.994914619570
         H            0.447712000000    -2.447997000000     2.166696000000     1.007825032230
         H            0.530132000000    -1.919359000000     0.687623000000     1.007825032230

  Charge       = -1
  Multiplicity = 1
  Basis Set: AUG-CC-PVTZ
    Blend: AUG-CC-PVTZ
  Basis Set: (AUG-CC-PVTZ AUX)
    Blend: AUG-CC-PVTZ-JKFIT

    Orbital Energies [Eh]
    ---------------------

    Doubly Occupied:

       1A    -25.970151     2A    -20.404038     3A    -20.403817
       4A    -20.384243     5A    -20.381858     6A     -1.233779
       7A     -1.199068     8A     -1.183640     9A     -1.158179
      10A     -1.153901    11A     -0.586916    12A     -0.542258
      13A     -0.538919    14A     -0.526426    15A     -0.431981
      16A     -0.421718    17A     -0.406029    18A     -0.399721
      19A     -0.356083    20A     -0.348477    21A     -0.333260
      22A     -0.327985    23A     -0.325724    24A     -0.320575
      25A     -0.315018

  @DF-RHF Final Energy:  -403.78424958171740

   => Energetics <=

    Nuclear Repulsion Energy =            183.5103638140615772
    One-Electron Energy =                -935.2816914377735884
    Two-Electron Energy =                 347.9870780419946641
    Total Energy =                       -403.7842495817174040
 Dipole X            :         36.9815325          -36.4760814            0.5054511
 Dipole Y            :          9.3115860           -9.1919756            0.1196104
 Dipole Z            :         47.6616894          -45.9280379            1.7336515
 Magnitude           :                                                    1.8097886
  Basis Set: (AUG-CC-PVTZ AUX)
    Blend: AUG-CC-PVTZ-RI
	 Reference Energy          =    -403.7842495817174040 [Eh]
	 Singles Energy            =      -0.0000000000000000 [Eh]
	 Same-Spin Energy          =      -0.3618641773937044 [Eh]
	 Opposite-Spin Energy      =      -1.0965760840911787 [Eh]
	 Correlation Energy        =      -1.4584402614848830 [Eh]
	 Total Energy              =    -405.2426898432022995 [Eh]

	 ================> DF-SCS-MP2 Energies <==================
	-----------------------------------------------------------
	 SCS Same-Spin Scale       =       0.3333333333333333 [-]
	 SCS Opposite-Spin Scale   =       1.2000000000000000 [-]
	 SCS Same-Spin Energy      =      -0.1206213924645681 [Eh]
	 SCS Opposite-Spin Energy  =      -1.3158913009094144 [Eh]
	 SCS Correlation Energy    =      -1.4365126933739825 [Eh]
	 SCS Total Energy          =    -405.2207622750913742 [Eh]
	-----------------------------------------------------------

*** Psi4 exiting successfully. Buy a developer a beer!
