                               Psi4 1.9 release

  ==> Input File <==

--------------------------------------------------------------------------
MEMORY 60 GB

molecule dimer {
-1 1
F      0.000000     0.000000     0.000000
--
0 1
O     -0.594284    -0.634372    -2.562911
H     -0.497083    -0.431183    -1.650200
H     -1.006656    -1.548570    -2.604579
O     -1.938246     2.105808    -0.043070
H     -1.889287     2.428560    -0.934253
H     -1.298126     1.315153    -0.005089
O      2.410889    -1.157179    -0.315817
H      2.529967    -1.073339    -1.271904
H      1.596731    -0.690599    -0.141440
O     -2.082039    -1.493757     1.208536
H     -1.903126    -2.455205     1.406995
H     -1.292528    -1.067209     0.789863

units ang
no_reorient
no_com
symmetry c1
}

set {
basis        aug-cc-pVTZ
scf_type     df
}

energy("mp2", bsse_type="cp")
--------------------------------------------------------------------------

                               Psi4 1.9 release
    Molecular point group: c1
  Charge       = 0
  Multiplicity = 1
  Basis Set: AUG-CC-PVTZ
    Blend: AUG-CC-PVTZ
  Basis Set: (AUG-CC-PVTZ AUX)
    Blend: AUG-CC-PVTZ-JKFIT
  @DF-RHF Final Energy:  -304.21946370977747
    Total Energy =                       -304.2194637097775285
 Dipole X            :         40.7579625          -40.4203877            0.3375748
 Dipole Y            :         23.7082205          -24.4878119           -0.7795914
 Dipole Z            :         33.5517787          -34.2356070           -0.6838282
 Magnitude           :                                                    1.0905689
  Basis Set: (AUG-CC-PVTZ AUX)
    Blend: AUG-CC-PVTZ-RI
	 Reference Energy          =    -304.2194637097774716 [Eh]
	 Singles Energy            =      -0.0000000000000000 [Eh]
	 Same-Spin Energy          =      -0.2759512557196512 [Eh]
	 Opposite-Spin Energy      =      -0.8696166517834034 [Eh]
	 Correlation Energy        =      -1.1455679075030547 [Eh]
	 Total Energy              =    -305.3650316172805219 [Eh]
	 SCS Total Energy          =    -305.3549874438240863 [Eh]
                               Psi4 1.9 release
    Molecular point group: c1
  Multiplicity = 1
  Basis Set: AUG-CC-PVTZ
    Blend: AUG-CC-PVTZ
  Basis Set: (AUG-CC-PVTZ AUX)
    Blend: AUG-CC-PVTZ-JKFIT
  @DF-RHF Final Energy:   -99.45106006021490
    Total Energy =                        -99.4510600602148855
  Basis Set: (AUG-CC-PVTZ AUX)
	 Singles Energy            =      -0.0000000000000000 [Eh]
	 Same-Spin Energy          =      -0.0820148641878471 [Eh]
	 Opposite-Spin Energy      =      -0.2298166720481509 [Eh]
	 Correlation Energy        =      -0.3118315362359980 [Eh]
	 Total Energy              =     -99.7628915964508991 [Eh]
	 SCS Total Energy          =     -99.7541783547353020 [Eh]
                               Psi4 1.9 release
    Molecular point group: c1

    Geometry (in Bohr), charge = -1, multiplicity = 1:

       Center              X                  Y                   Z               Mass
    ------------   -----------------  -----------------  -----------------  -----------------
         F            0.000000000000     0.000000000000     0.000000000000    18.998403162730
         O           -1.123034000742    -1.198789341659    -4.843199873923    15.994914619570
         H           -0.939350731621    -0.814817779953    -3.118426052231     1.007825032230
         H           -1.902304142549    -2.926373186100    -4.921940982119     1.007825032230
         O           -3.662754103764     3.979400392798    -0.081390504223    15.994914619570
         H           -3.570235002388     4.589313279242    -1.765482301887     1.007825032230
         H           -2.453102616336     2.485278983074    -0.009616816252     1.007825032230
         O            4.555919928879    -2.186751388131    -0.596807635764    15.994914619570
         H            4.780944736446    -2.028316749773    -2.403550217874     1.007825032230
         H            3.017384286028    -1.305042972515    -0.267282863185     1.007825032230
         O           -3.934483492522    -2.822791627986     2.283802052756    15.994914619570
         H           -3.596386922238    -4.639665031855     2.658835209889     1.007825032230
         H           -2.442523929486    -2.016732728624     1.492624746632     1.007825032230

  Charge       = -1
  Multiplicity = 1
  Basis Set: AUG-CC-PVTZ
    Blend: AUG-CC-PVTZ
  Basis Set: (AUG-CC-PVTZ AUX)
    Blend: AUG-CC-PVTZ-JKFIT

    Orbital Energies [Eh]
    ---------------------

    Doubly Occupied:

       1A    -25.979235     2A    -20.402749     3A    -20.401037
       4A    -20.390035     5A    -20.386690     6A     -1.245844
       7A     -1.180690     8A     -1.174462     9A     -1.166693
      10A     -1.164539    11A     -0.554010    12A     -0.549929
      13A     -0.542807    14A     -0.531099    15A     -0.423666
      16A     -0.422660    17A     -0.410518    18A     -0.406967
      19A     -0.348436    20A     -0.344842    21A     -0.340983
      22A     -0.334004    23A     -0.333045    24A     -0.329327
      25A     -0.326009

  @DF-RHF Final Energy:  -403.78775381961538

   => Energetics <=

    Nuclear Repulsion Energy =            184.4575881724580881
    One-Electron Energy =                -937.1101273908261646
    Two-Electron Energy =                 348.8647853987526446
    Total Energy =                       -403.7877538196153751
 Dipole X            :         41.0940789          -40.4203877            0.6736913
 Dipole Y            :         23.9736608          -24.4878119           -0.5141512
 Dipole Z            :         33.9055168          -34.2356070           -0.3300902
 Magnitude           :                                                    0.9094893
  Basis Set: (AUG-CC-PVTZ AUX)
    Blend: AUG-CC-PVTZ-RI
	 Reference Energy          =    -403.7877538196153751 [Eh]
	 Singles Energy            =      -0.0000000000000000 [Eh]
	 Same-Spin Energy          =      -0.3627291380080396 [Eh]
	 Opposite-Spin Energy      =      -1.0985849350147838 [Eh]
	 Correlation Energy        =      -1.4613140730228236 [Eh]
	 Total Energy              =    -405.2490678926382088 [Eh]

	 ================> DF-SCS-MP2 Energies <==================
	-----------------------------------------------------------
	 SCS Same-Spin Scale       =       0.3333333333333333 [-]
	 SCS Opposite-Spin Scale   =       1.2000000000000000 [-]
	 SCS Same-Spin Energy      =      -0.1209097126693465 [Eh]
	 SCS Opposite-Spin Energy  =      -1.3183019220177405 [Eh]
	 SCS Correlation Energy    =      -1.4392116346870871 [Eh]
	 SCS Total Energy          =    -405.2269654543024444 [Eh]
	-----------------------------------------------------------

*** Psi4 exiting successfully. Buy a developer a beer!
