                               Psi4 1.8.2 release

  ==> Input File <==

--------------------------------------------------------------------------
MEMORY 60 GB

molecule dimer {
0 1
Gh(F)      0.000000     0.000000     0.000000
Gh(O)      2.510030    -0.661941    -0.832182
Gh(H)      3.047987     0.136114    -0.766474
Gh(H)      1.651515    -0.398683    -0.437510
Gh(O)     -1.861163     1.391541     1.823140
Gh(H)     -1.395324     0.891965     1.132552
Gh(H)     -2.167141     2.148676     1.326070
Gh(O)     -0.069818    -1.825737     1.950594
Gh(H)      0.658754    -2.446451     1.867536
Gh(H)     -0.032357    -1.190493     1.210077
O          2.118804     1.277032     1.563138
H          2.238847     0.825714     2.421086
H          1.328717     0.912441     1.134542
Gh(O)     -2.940937    -0.619005    -0.168957
Gh(H)     -2.026060    -0.454747    -0.472925
Gh(H)     -3.379101    -1.135452    -0.844734
Gh(O)      0.534776     0.816487    -2.672079
Gh(H)      0.728932     1.193376    -1.819618
Gh(H)     -0.414644     0.967166    -2.819436

units ang
no_reorient
no_com
symmetry c1
}

set {
basis        aug-cc-pVTZ
scf_type     df
}

energy("mp2")
--------------------------------------------------------------------------

    Molecular point group: c1

    Geometry (in Angstrom), charge = 0, multiplicity = 1:

       Center              X                  Y                   Z               Mass
    ------------   -----------------  -----------------  -----------------  -----------------
      Gh(F)           0.000000000000     0.000000000000     0.000000000000    18.998403162730
      Gh(O)           2.510030000000    -0.661941000000    -0.832182000000    15.994914619570
      Gh(H)           3.047987000000     0.136114000000    -0.766474000000     1.007825032230
      Gh(H)           1.651515000000    -0.398683000000    -0.437510000000     1.007825032230
      Gh(O)          -1.861163000000     1.391541000000     1.823140000000    15.994914619570
      Gh(H)          -1.395324000000     0.891965000000     1.132552000000     1.007825032230
      Gh(H)          -2.167141000000     2.148676000000     1.326070000000     1.007825032230
      Gh(O)          -0.069818000000    -1.825737000000     1.950594000000    15.994914619570
      Gh(H)           0.658754000000    -2.446451000000     1.867536000000     1.007825032230
      Gh(H)          -0.032357000000    -1.190493000000     1.210077000000     1.007825032230
         O            2.118804000000     1.277032000000     1.563138000000    15.994914619570
         H            2.238847000000     0.825714000000     2.421086000000     1.007825032230
         H            1.328717000000     0.912441000000     1.134542000000     1.007825032230
      Gh(O)          -2.940937000000    -0.619005000000    -0.168957000000    15.994914619570
      Gh(H)          -2.026060000000    -0.454747000000    -0.472925000000     1.007825032230
      Gh(H)          -3.379101000000    -1.135452000000    -0.844734000000     1.007825032230
      Gh(O)           0.534776000000     0.816487000000    -2.672079000000    15.994914619570
      Gh(H)           0.728932000000     1.193376000000    -1.819618000000     1.007825032230
      Gh(H)          -0.414644000000     0.967166000000    -2.819436000000     1.007825032230

  Charge       = 0
  Multiplicity = 1
  Basis Set: AUG-CC-PVTZ
    Blend: AUG-CC-PVTZ
  Basis Set: (AUG-CC-PVTZ AUX)
    Blend: AUG-CC-PVTZ-JKFIT

    Orbital Energies [Eh]
    ---------------------

    Doubly Occupied:

       1A    -20.568105     2A     -1.342684     3A     -0.715954
       4A     -0.574369     5A     -0.507831

  @DF-RHF Final Energy:   -76.05891389438032

   => Energetics <=

    Nuclear Repulsion Energy =              9.0336123382368196
    One-Electron Energy =                -122.7671628686820497
    Two-Electron Energy =                  37.6746366360649034
    Total Energy =                        -76.0589138943803249
 Dipole X            :        -39.2207337           38.7733931           -0.4473406
 Dipole Y            :        -23.1338568           22.5905628           -0.5432940
 Dipole Z            :        -30.0653943           30.3503849            0.2849906
 Magnitude           :                                                    0.7592770
  Basis Set: (AUG-CC-PVTZ AUX)
    Blend: AUG-CC-PVTZ-RI
	 Reference Energy          =     -76.0589138943803249 [Eh]
	 Singles Energy            =      -0.0000000000000000 [Eh]
	 Same-Spin Energy          =      -0.0686503213171024 [Eh]
	 Opposite-Spin Energy      =      -0.2169105344393420 [Eh]
	 Correlation Energy        =      -0.2855608557564444 [Eh]
	 Total Energy              =     -76.3444747501367686 [Eh]

	 ================> DF-SCS-MP2 Energies <==================
	-----------------------------------------------------------
	 SCS Same-Spin Scale       =       0.3333333333333333 [-]
	 SCS Opposite-Spin Scale   =       1.2000000000000000 [-]
	 SCS Same-Spin Energy      =      -0.0228834404390341 [Eh]
	 SCS Opposite-Spin Energy  =      -0.2602926413272104 [Eh]
	 SCS Correlation Energy    =      -0.2831760817662445 [Eh]
	 SCS Total Energy          =     -76.3420899761465677 [Eh]
	-----------------------------------------------------------

*** Psi4 exiting successfully. Buy a developer a beer!
