                               Psi4 1.8.2 release

  ==> Input File <==

--------------------------------------------------------------------------
MEMORY 60 GB

molecule dimer {
-1 1
F          0.000000     0.000000     0.000000
O         -1.926510    -0.488905     1.828209
H         -1.218437    -0.291512     1.216095
H         -1.943797     0.253946     2.436303
O         -1.465982     2.344386    -0.959195
H         -1.258918     1.474742    -0.673609
H         -0.760802     2.572151    -1.640564
O          1.781208     1.993985     0.947440
H          2.722858     1.834958     1.158027
H          1.404065     1.156182     0.633208
O          0.920742    -0.070805    -2.597380
H          0.201064     0.162434    -3.173783
H          0.557053     0.093415    -1.736858
O          1.502065    -2.307810     0.115819
H          1.299950    -2.782798    -0.663331
H          1.063706    -1.409643     0.038071

units ang
no_reorient
no_com
symmetry c1
}

set {
basis        aug-cc-pVTZ
scf_type     df
}

energy("mp2")
--------------------------------------------------------------------------

    Molecular point group: c1

    Geometry (in Angstrom), charge = -1, multiplicity = 1:

       Center              X                  Y                   Z               Mass
    ------------   -----------------  -----------------  -----------------  -----------------
         F            0.000000000000     0.000000000000     0.000000000000    18.998403162730
         O           -1.926510000000    -0.488905000000     1.828209000000    15.994914619570
         H           -1.218437000000    -0.291512000000     1.216095000000     1.007825032230
         H           -1.943797000000     0.253946000000     2.436303000000     1.007825032230
         O           -1.465982000000     2.344386000000    -0.959195000000    15.994914619570
         H           -1.258918000000     1.474742000000    -0.673609000000     1.007825032230
         H           -0.760802000000     2.572151000000    -1.640564000000     1.007825032230
         O            1.781208000000     1.993985000000     0.947440000000    15.994914619570
         H            2.722858000000     1.834958000000     1.158027000000     1.007825032230
         H            1.404065000000     1.156182000000     0.633208000000     1.007825032230
         O            0.920742000000    -0.070805000000    -2.597380000000    15.994914619570
         H            0.201064000000     0.162434000000    -3.173783000000     1.007825032230
         H            0.557053000000     0.093415000000    -1.736858000000     1.007825032230
         O            1.502065000000    -2.307810000000     0.115819000000    15.994914619570
         H            1.299950000000    -2.782798000000    -0.663331000000     1.007825032230
         H            1.063706000000    -1.409643000000     0.038071000000     1.007825032230

  Charge       = -1
  Multiplicity = 1
  Basis Set: AUG-CC-PVTZ
    Blend: AUG-CC-PVTZ
  Basis Set: (AUG-CC-PVTZ AUX)
    Blend: AUG-CC-PVTZ-JKFIT

    Orbital Energies [Eh]
    ---------------------

    Doubly Occupied:

       1A    -25.997646     2A    -20.415701     3A    -20.412691
       4A    -20.411180     5A    -20.389641     6A    -20.389047
       7A     -1.266514     8A     -1.208120     9A     -1.194372
      10A     -1.187339    11A     -1.178925    12A     -1.173588
      13A     -0.572985    14A     -0.562298    15A     -0.561533
      16A     -0.549140    17A     -0.548165    18A     -0.450541
      19A     -0.434496    20A     -0.425951    21A     -0.422287
      22A     -0.415430    23A     -0.365321    24A     -0.361410
      25A     -0.357179    26A     -0.354192    27A     -0.350742
      28A     -0.345805    29A     -0.336195    30A     -0.334200

  @DF-RHF Final Energy:  -479.86432918717196

   => Energetics <=

    Nuclear Repulsion Energy =            261.6616005903339328
    One-Electron Energy =               -1197.1065855310898769
    Two-Electron Energy =                 455.5806557535839829
    Total Energy =                       -479.8643291871719612
 Dipole X            :        -16.0177727           16.1740261            0.1562534
 Dipole Y            :        -27.9805200           28.0259291            0.0454091
 Dipole Z            :         13.9703537          -14.6024750           -0.6321213
 Magnitude           :                                                    0.6527285
  Basis Set: (AUG-CC-PVTZ AUX)
    Blend: AUG-CC-PVTZ-RI
	 Reference Energy          =    -479.8643291871719612 [Eh]
	 Singles Energy            =      -0.0000000000000000 [Eh]
	 Same-Spin Energy          =      -0.4317493156378437 [Eh]
	 Opposite-Spin Energy      =      -1.3137097246092149 [Eh]
	 Correlation Energy        =      -1.7454590402470584 [Eh]
	 Total Energy              =    -481.6097882274190169 [Eh]

	 ================> DF-SCS-MP2 Energies <==================
	-----------------------------------------------------------
	 SCS Same-Spin Scale       =       0.3333333333333333 [-]
	 SCS Opposite-Spin Scale   =       1.2000000000000000 [-]
	 SCS Same-Spin Energy      =      -0.1439164385459479 [Eh]
	 SCS Opposite-Spin Energy  =      -1.5764516695310578 [Eh]
	 SCS Correlation Energy    =      -1.7203681080770057 [Eh]
	 SCS Total Energy          =    -481.5846972952489864 [Eh]
	-----------------------------------------------------------

*** Psi4 exiting successfully. Buy a developer a beer!
