                               Psi4 1.8.2 release

  ==> Input File <==

--------------------------------------------------------------------------
MEMORY 60 GB

molecule dimer {
0 1
Gh(F)      0.000000     0.000000     0.000000
Gh(O)      1.687657     1.316846    -1.965167
Gh(H)      2.588408     1.564995    -1.727402
Gh(H)      1.164304     1.175955    -1.161700
Gh(O)     -1.464850     2.221854    -0.966651
Gh(H)     -1.553513     2.085937    -1.894647
Gh(H)     -0.984980     1.460650    -0.640983
Gh(O)      1.779926    -1.980227    -0.972180
Gh(H)      1.031895    -1.360303    -0.763898
Gh(H)      1.804884    -2.133995    -1.896560
Gh(O)     -1.058445    -2.339141     1.291056
Gh(H)     -0.708302    -3.070607     0.723884
Gh(H)     -0.765571    -1.555023     0.855966
O         -1.517699    -1.121248    -1.892872
H         -2.456826    -0.756113    -1.965467
H         -1.021022    -0.535627    -1.187547

units ang
no_reorient
no_com
symmetry c1
}

set {
basis        aug-cc-pVTZ
scf_type     df
}

energy("mp2")
--------------------------------------------------------------------------

    Molecular point group: c1

    Geometry (in Angstrom), charge = 0, multiplicity = 1:

       Center              X                  Y                   Z               Mass
    ------------   -----------------  -----------------  -----------------  -----------------
      Gh(F)           0.000000000000     0.000000000000     0.000000000000    18.998403162730
      Gh(O)           1.687657000000     1.316846000000    -1.965167000000    15.994914619570
      Gh(H)           2.588408000000     1.564995000000    -1.727402000000     1.007825032230
      Gh(H)           1.164304000000     1.175955000000    -1.161700000000     1.007825032230
      Gh(O)          -1.464850000000     2.221854000000    -0.966651000000    15.994914619570
      Gh(H)          -1.553513000000     2.085937000000    -1.894647000000     1.007825032230
      Gh(H)          -0.984980000000     1.460650000000    -0.640983000000     1.007825032230
      Gh(O)           1.779926000000    -1.980227000000    -0.972180000000    15.994914619570
      Gh(H)           1.031895000000    -1.360303000000    -0.763898000000     1.007825032230
      Gh(H)           1.804884000000    -2.133995000000    -1.896560000000     1.007825032230
      Gh(O)          -1.058445000000    -2.339141000000     1.291056000000    15.994914619570
      Gh(H)          -0.708302000000    -3.070607000000     0.723884000000     1.007825032230
      Gh(H)          -0.765571000000    -1.555023000000     0.855966000000     1.007825032230
         O           -1.517699000000    -1.121248000000    -1.892872000000    15.994914619570
         H           -2.456826000000    -0.756113000000    -1.965467000000     1.007825032230
         H           -1.021022000000    -0.535627000000    -1.187547000000     1.007825032230

  Charge       = 0
  Multiplicity = 1
  Basis Set: AUG-CC-PVTZ
    Blend: AUG-CC-PVTZ
  Basis Set: (AUG-CC-PVTZ AUX)
    Blend: AUG-CC-PVTZ-JKFIT

    Orbital Energies [Eh]
    ---------------------

    Doubly Occupied:

       1A    -20.577442     2A     -1.319472     3A     -0.685352
       4A     -0.567199     5A     -0.504423

  @DF-RHF Final Energy:   -76.04750577892403

   => Energetics <=

    Nuclear Repulsion Energy =              8.5719500501000390
    One-Electron Energy =                -121.9311324847780469
    Two-Electron Energy =                  37.3116766557539705
    Total Energy =                        -76.0475057789240338
 Dipole X            :         29.2283894          -29.5164638           -0.2880744
 Dipole Y            :         20.0011888          -19.3918479            0.6093408
 Dipole Z            :         34.9779575          -34.5744103            0.4035472
 Magnitude           :                                                    0.7855784
  Basis Set: (AUG-CC-PVTZ AUX)
    Blend: AUG-CC-PVTZ-RI
	 Reference Energy          =     -76.0475057789240338 [Eh]
	 Singles Energy            =      -0.0000000000000000 [Eh]
	 Same-Spin Energy          =      -0.0695990081921031 [Eh]
	 Opposite-Spin Energy      =      -0.2200220844089919 [Eh]
	 Correlation Energy        =      -0.2896210926010950 [Eh]
	 Total Energy              =     -76.3371268715251290 [Eh]

	 ================> DF-SCS-MP2 Energies <==================
	-----------------------------------------------------------
	 SCS Same-Spin Scale       =       0.3333333333333333 [-]
	 SCS Opposite-Spin Scale   =       1.2000000000000000 [-]
	 SCS Same-Spin Energy      =      -0.0231996693973677 [Eh]
	 SCS Opposite-Spin Energy  =      -0.2640265012907903 [Eh]
	 SCS Correlation Energy    =      -0.2872261706881580 [Eh]
	 SCS Total Energy          =     -76.3347319496121912 [Eh]
	-----------------------------------------------------------

*** Psi4 exiting successfully. Buy a developer a beer!
