                               Psi4 1.9 release

  ==> Input File <==

--------------------------------------------------------------------------
MEMORY 60 GB

molecule dimer {
-1 1
F      0.000000     0.000000     0.000000
--
0 1
O      0.939133     2.246448    -1.810299
H      0.182154     2.339815    -2.431459
H      0.631445     1.529279    -1.221823
O      0.333738     1.798982     2.158341
H      0.266377     1.191470     1.384322
H     -0.480834     1.721529     2.716331
O     -2.404593     1.393581     0.312901
H     -2.408128     1.153754     1.258151
H     -1.572145     1.037122    -0.045040
O      1.919438    -1.311444    -1.308668
H      1.124707    -0.870402    -0.913735
H      2.164585    -2.064254    -0.748678
O      1.220508    -1.402945     2.234795
H      0.781895    -2.282298     2.115950
H      0.768841    -0.858246     1.533477
O     -1.412038    -2.154855    -1.604480
H     -2.091893    -1.650807    -2.061775
H     -1.081371    -1.383401    -1.077126

units ang
no_reorient
no_com
symmetry c1
}

set {
basis        aug-cc-pVTZ
scf_type     df
}

energy("mp2", bsse_type="cp")
--------------------------------------------------------------------------

                               Psi4 1.9 release
    Molecular point group: c1
  Charge       = 0
  Multiplicity = 1
  Basis Set: AUG-CC-PVTZ
    Blend: AUG-CC-PVTZ
  Basis Set: (AUG-CC-PVTZ AUX)
    Blend: AUG-CC-PVTZ-JKFIT
  @DF-RHF Final Energy:  -456.31040117766725
    Total Energy =                       -456.3104011776672451
 Dipole X            :         -7.5494984            5.7733420           -1.7761565
 Dipole Y            :         -9.1558051            8.3557963           -0.8000087
 Dipole Z            :         -0.3109868            0.6979042            0.3869174
 Magnitude           :                                                    1.9860642
  Basis Set: (AUG-CC-PVTZ AUX)
    Blend: AUG-CC-PVTZ-RI
	 Reference Energy          =    -456.3104011776672451 [Eh]
	 Singles Energy            =      -0.0000000000000000 [Eh]
	 Same-Spin Energy          =      -0.4169549036427282 [Eh]
	 Opposite-Spin Energy      =      -1.3109689920945917 [Eh]
	 Correlation Energy        =      -1.7279238957373200 [Eh]
	 Total Energy              =    -458.0383250734045646 [Eh]
	 SCS Total Energy          =    -458.0225489360616393 [Eh]
                               Psi4 1.9 release
    Molecular point group: c1
  Multiplicity = 1
  Basis Set: AUG-CC-PVTZ
    Blend: AUG-CC-PVTZ
  Basis Set: (AUG-CC-PVTZ AUX)
    Blend: AUG-CC-PVTZ-JKFIT
  @DF-RHF Final Energy:   -99.45116128621989
    Total Energy =                        -99.4511612862198859
  Basis Set: (AUG-CC-PVTZ AUX)
	 Singles Energy            =      -0.0000000000000000 [Eh]
	 Same-Spin Energy          =      -0.0820853645873492 [Eh]
	 Opposite-Spin Energy      =      -0.2303680818471475 [Eh]
	 Correlation Energy        =      -0.3124534464344968 [Eh]
	 Total Energy              =     -99.7636147326543892 [Eh]
	 SCS Total Energy          =     -99.7549647726322490 [Eh]
                               Psi4 1.9 release
    Molecular point group: c1

    Geometry (in Bohr), charge = -1, multiplicity = 1:

       Center              X                  Y                   Z               Mass
    ------------   -----------------  -----------------  -----------------  -----------------
         F            0.000000000000     0.000000000000     0.000000000000    18.998403162730
         O            1.774704165380     4.245171475082    -3.420969315190    15.994914619570
         H            0.344221172657     4.421609534238    -4.594791595280     1.007825032230
         H            1.193258113290     2.889918479414    -2.308910843785     1.007825032230
         O            0.630673417658     3.399583284628     4.078673375347    15.994914619570
         H            0.503379576121     2.251551986699     2.615989449446     1.007825032230
         H           -0.908644571808     3.253218327033     5.133121656091     1.007825032230
         O           -4.544022213193     2.633486423642     0.591297194382    15.994914619570
         H           -4.550702395047     2.180279076151     2.377560814471     1.007825032230
         H           -2.970923479508     1.959876538687    -0.085113264691     1.007825032230
         O            3.627212134797    -2.478269988875    -2.473024109151    15.994914619570
         H            2.125388201385    -1.644821399051    -1.726708901245     1.007825032230
         H            4.090472825274    -3.900874713381    -1.414796376156     1.007825032230
         O            2.306425853930    -2.651181819080     4.223150496543    15.994914619570
         H            1.477567408865    -4.312918156680     3.998565995162     1.007825032230
         H            1.452898924023    -1.621849888270     2.897851549689     1.007825032230
         O           -2.668365098739    -4.072085790073    -3.032027773775    15.994914619570
         H           -3.953104853762    -3.119573115989    -3.896190082316     1.007825032230
         H           -2.043495030012    -2.614249011684    -2.035473142610     1.007825032230

  Charge       = -1
  Multiplicity = 1
  Basis Set: AUG-CC-PVTZ
    Blend: AUG-CC-PVTZ
  Basis Set: (AUG-CC-PVTZ AUX)
    Blend: AUG-CC-PVTZ-JKFIT

    Orbital Energies [Eh]
    ---------------------

    Doubly Occupied:

       1A    -26.030931     2A    -20.435114     3A    -20.426678
       4A    -20.424449     5A    -20.422592     6A    -20.414238
       7A    -20.389777     8A     -1.299680     9A     -1.214577
      10A     -1.205272    11A     -1.196069    12A     -1.191494
      13A     -1.183072    14A     -1.166039    15A     -0.578297
      16A     -0.568064    17A     -0.556945    18A     -0.554988
      19A     -0.548297    20A     -0.543631    21A     -0.469429
      22A     -0.458922    23A     -0.448929    24A     -0.441258
      25A     -0.426377    26A     -0.415792    27A     -0.388015
      28A     -0.382608    29A     -0.375655    30A     -0.371730
      31A     -0.366938    32A     -0.363624    33A     -0.360687
      34A     -0.350792    35A     -0.332734

  @DF-RHF Final Energy:  -555.91878214688859

   => Energetics <=

    Nuclear Repulsion Energy =            349.4859488749727348
    One-Electron Energy =               -1478.2020698544790775
    Two-Electron Energy =                 572.7973388326176973
    Total Energy =                       -555.9187821468885886
 Dipole X            :         -7.6229068            5.7733420           -1.8495648
 Dipole Y            :         -9.1376851            8.3557963           -0.7818888
 Dipole Z            :         -0.3819613            0.6979042            0.3159429
 Magnitude           :                                                    2.0327469
  Basis Set: (AUG-CC-PVTZ AUX)
    Blend: AUG-CC-PVTZ-RI
	 Reference Energy          =    -555.9187821468885886 [Eh]
	 Singles Energy            =      -0.0000000000000000 [Eh]
	 Same-Spin Energy          =      -0.5045668395245947 [Eh]
	 Opposite-Spin Energy      =      -1.5389780860418909 [Eh]
	 Correlation Energy        =      -2.0435449255664855 [Eh]
	 Total Energy              =    -557.9623270724550821 [Eh]

	 ================> DF-SCS-MP2 Energies <==================
	-----------------------------------------------------------
	 SCS Same-Spin Scale       =       0.3333333333333333 [-]
	 SCS Opposite-Spin Scale   =       1.2000000000000000 [-]
	 SCS Same-Spin Energy      =      -0.1681889465081982 [Eh]
	 SCS Opposite-Spin Energy  =      -1.8467737032502689 [Eh]
	 SCS Correlation Energy    =      -2.0149626497584672 [Eh]
	 SCS Total Energy          =    -557.9337447966470336 [Eh]
	-----------------------------------------------------------

*** Psi4 exiting successfully. Buy a developer a beer!
