                               Psi4 1.8.2 release

  ==> Input File <==

--------------------------------------------------------------------------
MEMORY 60 GB

molecule dimer {
-1 1
F          0.000000     0.000000     0.000000
O         -0.403439     1.183217     2.402459
H         -0.368174     0.518223     1.697033
H          0.232895     0.753495     2.947123
O          2.303742    -1.250421     0.525025
H          1.490227    -0.788707     0.531894
H          2.843314    -1.105727     1.310304
O         -2.398892     1.650841    -0.051992
H         -1.675125     0.929581     0.042817
H         -2.902495     1.553309     0.752774
O         -1.481475    -2.214462    -0.034526
H         -0.810065    -1.515855    -0.061717
H         -1.006129    -3.009721    -0.410769
O         -0.656255     0.245235    -2.745367
H         -0.053838    -0.438387    -3.118900
H         -0.449334     0.215360    -1.787135

units ang
no_reorient
no_com
symmetry c1
}

set {
basis        aug-cc-pVTZ
scf_type     df
}

energy("mp2")
--------------------------------------------------------------------------

    Molecular point group: c1

    Geometry (in Angstrom), charge = -1, multiplicity = 1:

       Center              X                  Y                   Z               Mass
    ------------   -----------------  -----------------  -----------------  -----------------
         F            0.000000000000     0.000000000000     0.000000000000    18.998403162730
         O           -0.403439000000     1.183217000000     2.402459000000    15.994914619570
         H           -0.368174000000     0.518223000000     1.697033000000     1.007825032230
         H            0.232895000000     0.753495000000     2.947123000000     1.007825032230
         O            2.303742000000    -1.250421000000     0.525025000000    15.994914619570
         H            1.490227000000    -0.788707000000     0.531894000000     1.007825032230
         H            2.843314000000    -1.105727000000     1.310304000000     1.007825032230
         O           -2.398892000000     1.650841000000    -0.051992000000    15.994914619570
         H           -1.675125000000     0.929581000000     0.042817000000     1.007825032230
         H           -2.902495000000     1.553309000000     0.752774000000     1.007825032230
         O           -1.481475000000    -2.214462000000    -0.034526000000    15.994914619570
         H           -0.810065000000    -1.515855000000    -0.061717000000     1.007825032230
         H           -1.006129000000    -3.009721000000    -0.410769000000     1.007825032230
         O           -0.656255000000     0.245235000000    -2.745367000000    15.994914619570
         H           -0.053838000000    -0.438387000000    -3.118900000000     1.007825032230
         H           -0.449334000000     0.215360000000    -1.787135000000     1.007825032230

  Charge       = -1
  Multiplicity = 1
  Basis Set: AUG-CC-PVTZ
    Blend: AUG-CC-PVTZ
  Basis Set: (AUG-CC-PVTZ AUX)
    Blend: AUG-CC-PVTZ-JKFIT

    Orbital Energies [Eh]
    ---------------------

    Doubly Occupied:

       1A    -26.002143     2A    -20.409414     3A    -20.408369
       4A    -20.401200     5A    -20.396252     6A    -20.391672
       7A     -1.273987     8A     -1.204053     9A     -1.201243
      10A     -1.174015    11A     -1.169328    12A     -1.162229
      13A     -0.594775    14A     -0.549026    15A     -0.543508
      16A     -0.535592    17A     -0.519365    18A     -0.456167
      19A     -0.428201    20A     -0.425999    21A     -0.418861
      22A     -0.411165    23A     -0.366105    24A     -0.362625
      25A     -0.356708    26A     -0.353095    27A     -0.348737
      28A     -0.341169    29A     -0.335021    30A     -0.330247

  @DF-RHF Final Energy:  -479.84796480397227

   => Energetics <=

    Nuclear Repulsion Energy =            266.5418580181523112
    One-Electron Energy =               -1207.0391009191384910
    Two-Electron Energy =                 460.6492780970139052
    Total Energy =                       -479.8479648039722747
 Dipole X            :         46.8537767          -44.9552164            1.8985604
 Dipole Y            :         10.2117062          -11.2876157           -1.0759095
 Dipole Z            :         -3.9848764            5.0421975            1.0573211
 Magnitude           :                                                    2.4248795
  Basis Set: (AUG-CC-PVTZ AUX)
    Blend: AUG-CC-PVTZ-RI
	 Reference Energy          =    -479.8479648039722747 [Eh]
	 Singles Energy            =      -0.0000000000000000 [Eh]
	 Same-Spin Energy          =      -0.4341057625995897 [Eh]
	 Opposite-Spin Energy      =      -1.3182788749926047 [Eh]
	 Correlation Energy        =      -1.7523846375921943 [Eh]
	 Total Energy              =    -481.6003494415644468 [Eh]

	 ================> DF-SCS-MP2 Energies <==================
	-----------------------------------------------------------
	 SCS Same-Spin Scale       =       0.3333333333333333 [-]
	 SCS Opposite-Spin Scale   =       1.2000000000000000 [-]
	 SCS Same-Spin Energy      =      -0.1447019208665299 [Eh]
	 SCS Opposite-Spin Energy  =      -1.5819346499911255 [Eh]
	 SCS Correlation Energy    =      -1.7266365708576554 [Eh]
	 SCS Total Energy          =    -481.5746013748299106 [Eh]
	-----------------------------------------------------------

*** Psi4 exiting successfully. Buy a developer a beer!
