                               Psi4 1.8.2 release

  ==> Input File <==

--------------------------------------------------------------------------
MEMORY 60 GB

molecule dimer {
0 1
Gh(F)      0.000000     0.000000     0.000000
O          1.590084    -1.184330    -2.003102
H          1.148328    -0.682878    -1.303231
H          0.913372    -1.486227    -2.592972
Gh(O)     -2.579713     0.695595     0.903205
Gh(H)     -1.766790     0.373051     0.472017
Gh(H)     -2.556590     0.408652     1.799991
Gh(O)      0.006302    -2.680277     0.762718
Gh(H)     -0.174598    -1.785268     0.559851
Gh(H)      0.461896    -3.084610     0.019470
Gh(O)     -1.603595     0.178698    -2.497753
Gh(H)     -1.541862     0.933686    -3.056288
Gh(H)     -0.984133     0.301020    -1.747949
Gh(O)      0.426525     1.345587     2.362969
Gh(H)     -0.180704     2.043739     2.250203
Gh(H)      0.386881     0.812199     1.526283

units ang
no_reorient
no_com
symmetry c1
}

set {
basis        aug-cc-pVTZ
scf_type     df
}

energy("mp2")
--------------------------------------------------------------------------

    Molecular point group: c1

    Geometry (in Angstrom), charge = 0, multiplicity = 1:

       Center              X                  Y                   Z               Mass
    ------------   -----------------  -----------------  -----------------  -----------------
      Gh(F)           0.000000000000     0.000000000000     0.000000000000    18.998403162730
         O            1.590084000000    -1.184330000000    -2.003102000000    15.994914619570
         H            1.148328000000    -0.682878000000    -1.303231000000     1.007825032230
         H            0.913372000000    -1.486227000000    -2.592972000000     1.007825032230
      Gh(O)          -2.579713000000     0.695595000000     0.903205000000    15.994914619570
      Gh(H)          -1.766790000000     0.373051000000     0.472017000000     1.007825032230
      Gh(H)          -2.556590000000     0.408652000000     1.799991000000     1.007825032230
      Gh(O)           0.006302000000    -2.680277000000     0.762718000000    15.994914619570
      Gh(H)          -0.174598000000    -1.785268000000     0.559851000000     1.007825032230
      Gh(H)           0.461896000000    -3.084610000000     0.019470000000     1.007825032230
      Gh(O)          -1.603595000000     0.178698000000    -2.497753000000    15.994914619570
      Gh(H)          -1.541862000000     0.933686000000    -3.056288000000     1.007825032230
      Gh(H)          -0.984133000000     0.301020000000    -1.747949000000     1.007825032230
      Gh(O)           0.426525000000     1.345587000000     2.362969000000    15.994914619570
      Gh(H)          -0.180704000000     2.043739000000     2.250203000000     1.007825032230
      Gh(H)           0.386881000000     0.812199000000     1.526283000000     1.007825032230

  Charge       = 0
  Multiplicity = 1
  Basis Set: AUG-CC-PVTZ
    Blend: AUG-CC-PVTZ
  Basis Set: (AUG-CC-PVTZ AUX)
    Blend: AUG-CC-PVTZ-JKFIT

    Orbital Energies [Eh]
    ---------------------

    Doubly Occupied:

       1A    -20.566091     2A     -1.351900     3A     -0.722139
       4A     -0.580304     5A     -0.509642

  @DF-RHF Final Energy:   -76.06047753298476

   => Energetics <=

    Nuclear Repulsion Energy =              9.1887456514096879
    One-Electron Energy =                -123.0382907641521228
    Two-Electron Energy =                  37.7890675797576705
    Total Energy =                        -76.0604775329847627
 Dipole X            :        -28.6843452           27.9346346           -0.7497106
 Dipole Y            :         22.1357247          -22.0034891            0.1322356
 Dipole Z            :         37.7163676          -37.6452701            0.0710975
 Magnitude           :                                                    0.7645961
  Basis Set: (AUG-CC-PVTZ AUX)
    Blend: AUG-CC-PVTZ-RI
	 Reference Energy          =     -76.0604775329847627 [Eh]
	 Singles Energy            =      -0.0000000000000000 [Eh]
	 Same-Spin Energy          =      -0.0683680515896096 [Eh]
	 Opposite-Spin Energy      =      -0.2159987091927701 [Eh]
	 Correlation Energy        =      -0.2843667607823797 [Eh]
	 Total Energy              =     -76.3448442937671388 [Eh]

	 ================> DF-SCS-MP2 Energies <==================
	-----------------------------------------------------------
	 SCS Same-Spin Scale       =       0.3333333333333333 [-]
	 SCS Opposite-Spin Scale   =       1.2000000000000000 [-]
	 SCS Same-Spin Energy      =      -0.0227893505298698 [Eh]
	 SCS Opposite-Spin Energy  =      -0.2591984510313242 [Eh]
	 SCS Correlation Energy    =      -0.2819878015611940 [Eh]
	 SCS Total Energy          =     -76.3424653345459632 [Eh]
	-----------------------------------------------------------

*** Psi4 exiting successfully. Buy a developer a beer!
