                               Psi4 1.8.2 release

  ==> Input File <==

--------------------------------------------------------------------------
MEMORY 60 GB

molecule dimer {
0 1
Gh(F)      0.000000     0.000000     0.000000
Gh(O)     -1.251116    -1.324241     1.858701
Gh(H)     -0.644750    -1.144723     1.133580
Gh(H)     -1.241253    -0.487636     2.348342
Gh(O)     -0.962366    -2.269385    -1.669304
Gh(H)     -0.867402    -1.542612    -1.090180
Gh(H)     -1.783634    -2.711967    -1.474651
Gh(O)      2.005604    -2.181428    -0.280141
Gh(H)      1.372139    -1.457922    -0.354971
Gh(H)      2.139229    -2.266705     0.685608
Gh(O)     -0.128590     2.176756     1.552053
Gh(H)     -0.060687     1.399457     1.025673
Gh(H)     -0.705954     2.013435     2.266419
O         -2.791118     0.791832    -0.581116
H         -1.861301     0.475451    -0.426954
H         -2.961146     1.432019     0.088729

units ang
no_reorient
no_com
symmetry c1
}

set {
basis        aug-cc-pVTZ
scf_type     df
}

energy("mp2")
--------------------------------------------------------------------------

    Molecular point group: c1

    Geometry (in Angstrom), charge = 0, multiplicity = 1:

       Center              X                  Y                   Z               Mass
    ------------   -----------------  -----------------  -----------------  -----------------
      Gh(F)           0.000000000000     0.000000000000     0.000000000000    18.998403162730
      Gh(O)          -1.251116000000    -1.324241000000     1.858701000000    15.994914619570
      Gh(H)          -0.644750000000    -1.144723000000     1.133580000000     1.007825032230
      Gh(H)          -1.241253000000    -0.487636000000     2.348342000000     1.007825032230
      Gh(O)          -0.962366000000    -2.269385000000    -1.669304000000    15.994914619570
      Gh(H)          -0.867402000000    -1.542612000000    -1.090180000000     1.007825032230
      Gh(H)          -1.783634000000    -2.711967000000    -1.474651000000     1.007825032230
      Gh(O)           2.005604000000    -2.181428000000    -0.280141000000    15.994914619570
      Gh(H)           1.372139000000    -1.457922000000    -0.354971000000     1.007825032230
      Gh(H)           2.139229000000    -2.266705000000     0.685608000000     1.007825032230
      Gh(O)          -0.128590000000     2.176756000000     1.552053000000    15.994914619570
      Gh(H)          -0.060687000000     1.399457000000     1.025673000000     1.007825032230
      Gh(H)          -0.705954000000     2.013435000000     2.266419000000     1.007825032230
         O           -2.791118000000     0.791832000000    -0.581116000000    15.994914619570
         H           -1.861301000000     0.475451000000    -0.426954000000     1.007825032230
         H           -2.961146000000     1.432019000000     0.088729000000     1.007825032230

  Charge       = 0
  Multiplicity = 1
  Basis Set: AUG-CC-PVTZ
    Blend: AUG-CC-PVTZ
  Basis Set: (AUG-CC-PVTZ AUX)
    Blend: AUG-CC-PVTZ-JKFIT

    Orbital Energies [Eh]
    ---------------------

    Doubly Occupied:

       1A    -20.568233     2A     -1.347611     3A     -0.714768
       4A     -0.579770     5A     -0.509064

  @DF-RHF Final Energy:   -76.05849026621793

   => Energetics <=

    Nuclear Repulsion Energy =              9.0942697017371241
    One-Electron Energy =                -122.8666231508025106
    Two-Electron Energy =                  37.7138631828474473
    Total Energy =                        -76.0584902662179445
 Dipole X            :         51.8073474          -51.3086929            0.4986545
 Dipole Y            :        -15.3551439           15.5753608            0.2202169
 Dipole Z            :          9.9741731           -9.4243533            0.5498198
 Magnitude           :                                                    0.7742439
  Basis Set: (AUG-CC-PVTZ AUX)
    Blend: AUG-CC-PVTZ-RI
	 Reference Energy          =     -76.0584902662179303 [Eh]
	 Singles Energy            =      -0.0000000000000000 [Eh]
	 Same-Spin Energy          =      -0.0685580421308577 [Eh]
	 Opposite-Spin Energy      =      -0.2165741052930364 [Eh]
	 Correlation Energy        =      -0.2851321474238941 [Eh]
	 Total Energy              =     -76.3436224136418247 [Eh]

	 ================> DF-SCS-MP2 Energies <==================
	-----------------------------------------------------------
	 SCS Same-Spin Scale       =       0.3333333333333333 [-]
	 SCS Opposite-Spin Scale   =       1.2000000000000000 [-]
	 SCS Same-Spin Energy      =      -0.0228526807102859 [Eh]
	 SCS Opposite-Spin Energy  =      -0.2598889263516437 [Eh]
	 SCS Correlation Energy    =      -0.2827416070619296 [Eh]
	 SCS Total Energy          =     -76.3412318732798667 [Eh]
	-----------------------------------------------------------

*** Psi4 exiting successfully. Buy a developer a beer!
