                               Psi4 1.9 release

  ==> Input File <==

--------------------------------------------------------------------------
MEMORY 60 GB

molecule dimer {
-1 1
F      0.000000     0.000000     0.000000
--
0 1
O     -0.286622    -1.514715     2.435167
H     -0.402152    -1.045189     1.569146
H      0.608407    -1.883599     2.387395
O     -2.461253    -1.232960    -1.069186
H     -1.653607    -1.018445    -0.593070
H     -2.664912    -0.521743    -1.698566
O      2.627690     1.043131    -0.166942
H      2.582567     0.776855    -1.104331
H      1.672597     0.976927     0.122659
O      0.537003    -1.242099    -2.661767
H      0.000214    -0.978346    -3.428741
H      0.354593    -0.727473    -1.893451
O     -1.468053     1.104063     2.129759
H     -0.967829     0.901328     1.361246
H     -2.109567     0.364225     2.248548
O      1.926326    -2.436781     0.093481
H      2.827091    -2.287496     0.347949
H      1.352146    -1.641731     0.155321
O     -0.916969     2.226321    -1.648781
H     -1.489975     1.706670    -2.249404
H     -0.532336     1.455566    -1.146943

units ang
no_reorient
no_com
symmetry c1
}

set {
basis        aug-cc-pVTZ
scf_type     df
}

energy("mp2", bsse_type="cp")
--------------------------------------------------------------------------

                               Psi4 1.9 release
    Molecular point group: c1
  Charge       = 0
  Multiplicity = 1
  Basis Set: AUG-CC-PVTZ
    Blend: AUG-CC-PVTZ
  Basis Set: (AUG-CC-PVTZ AUX)
    Blend: AUG-CC-PVTZ-JKFIT
  @DF-RHF Final Energy:  -532.36584505729797
    Total Energy =                       -532.3658450572979746
 Dipole X            :          1.2928877           -1.4320099           -0.1391222
 Dipole Y            :         38.5282524          -38.4498247            0.0784277
 Dipole Z            :         19.4505026          -20.8406443           -1.3901417
 Magnitude           :                                                    1.3992854
  Basis Set: (AUG-CC-PVTZ AUX)
    Blend: AUG-CC-PVTZ-RI
	 Reference Energy          =    -532.3658450572979746 [Eh]
	 Singles Energy            =      -0.0000000000000000 [Eh]
	 Same-Spin Energy          =      -0.4864320831963739 [Eh]
	 Opposite-Spin Energy      =      -1.5266024407461016 [Eh]
	 Correlation Energy        =      -2.0130345239424754 [Eh]
	 Total Energy              =    -534.3788795812404260 [Eh]
	 SCS Total Energy          =    -534.3599120139253955 [Eh]
                               Psi4 1.9 release
    Molecular point group: c1
  Multiplicity = 1
  Basis Set: AUG-CC-PVTZ
    Blend: AUG-CC-PVTZ
  Basis Set: (AUG-CC-PVTZ AUX)
    Blend: AUG-CC-PVTZ-JKFIT
  @DF-RHF Final Energy:   -99.45117842296685
    Total Energy =                        -99.4511784229668478
  Basis Set: (AUG-CC-PVTZ AUX)
	 Singles Energy            =      -0.0000000000000000 [Eh]
	 Same-Spin Energy          =      -0.0820831942355398 [Eh]
	 Opposite-Spin Energy      =      -0.2302688007041243 [Eh]
	 Correlation Energy        =      -0.3123519949396640 [Eh]
	 Total Energy              =     -99.7635304179065088 [Eh]
	 SCS Total Energy          =     -99.7548620485569728 [Eh]
                               Psi4 1.9 release
    Molecular point group: c1

    Geometry (in Bohr), charge = -1, multiplicity = 1:

       Center              X                  Y                   Z               Mass
    ------------   -----------------  -----------------  -----------------  -----------------
         F            0.000000000000     0.000000000000     0.000000000000    18.998403162730
         O           -0.541637081531    -2.862396508123     4.601798699753    15.994914619570
         H           -0.759957140805    -1.975120959341     2.965256190858     1.007825032230
         H            1.149722602811    -3.559486240186     4.511522703287     1.007825032230
         O           -4.651094095461    -2.329956723644    -2.020468717174    15.994914619570
         H           -3.124864349140    -1.924582123842    -1.120739873225     1.007825032230
         H           -5.035953828446    -0.985951377875    -3.209824546014     1.007825032230
         O            4.965614442604     1.971231902975    -0.315474658836    15.994914619570
         H            4.880344330645     1.468043189193    -2.086883141853     1.007825032230
         H            3.160750248262     1.846124474565     0.231791916823     1.007825032230
         O            1.014788598549    -2.347226930705    -5.030010639782    15.994914619570
         H            0.000404401391    -1.848805995937    -6.479381445128     1.007825032230
         H            0.670083656004    -1.374724733665    -3.578103821974     1.007825032230
         O           -2.774218107657     2.086376695251     4.024661223229    15.994914619570
         H           -1.828931746276     1.703263069207     2.572382129375     1.007825032230
         H           -3.986503873304     0.688285498045     4.249139899946     1.007825032230
         O            3.640228568349    -4.604848717719     0.176653487934    15.994914619570
         H            5.342427721747    -4.322740953080     0.657528315627     1.007825032230
         H            2.555185621633    -3.102421961674     0.293514151532     1.007825032230
         O           -1.732820275535     4.207136957355    -3.115744530858    15.994914619570
         H           -2.815644683779     3.225138886535    -4.250757505509     1.007825032230
         H           -1.005969246722     2.750621097528    -2.167408151511     1.007825032230

  Charge       = -1
  Multiplicity = 1
  Basis Set: AUG-CC-PVTZ
    Blend: AUG-CC-PVTZ
  Basis Set: (AUG-CC-PVTZ AUX)
    Blend: AUG-CC-PVTZ-JKFIT

    Orbital Energies [Eh]
    ---------------------

    Doubly Occupied:

       1A    -26.038216     2A    -20.443611     3A    -20.436259
       4A    -20.434016     5A    -20.426193     6A    -20.424734
       7A    -20.414172     8A    -20.405309     9A     -1.304498
      10A     -1.220981    11A     -1.217416    12A     -1.214902
      13A     -1.208394    14A     -1.196332    15A     -1.195062
      16A     -1.187329    17A     -0.609852    18A     -0.596980
      19A     -0.595490    20A     -0.566666    21A     -0.564725
      22A     -0.557242    23A     -0.555966    24A     -0.476143
      25A     -0.458664    26A     -0.449389    27A     -0.443931
      28A     -0.442560    29A     -0.433887    30A     -0.428906
      31A     -0.392415    32A     -0.390316    33A     -0.386807
      34A     -0.384246    35A     -0.381128    36A     -0.373502
      37A     -0.371833    38A     -0.365317    39A     -0.362697
      40A     -0.342240

  @DF-RHF Final Energy:  -631.98493125183029

   => Energetics <=

    Nuclear Repulsion Energy =            453.9450976533303219
    One-Electron Energy =               -1792.4633991524938210
    Two-Electron Energy =                 706.5333702473332096
    Total Energy =                       -631.9849312518302895
 Dipole X            :          1.3429778           -1.4320099           -0.0890321
 Dipole Y            :         38.6663564          -38.4498247            0.2165317
 Dipole Z            :         19.5818753          -20.8406443           -1.2587690
 Magnitude           :                                                    1.2803562
  Basis Set: (AUG-CC-PVTZ AUX)
    Blend: AUG-CC-PVTZ-RI
	 Reference Energy          =    -631.9849312518302895 [Eh]
	 Singles Energy            =      -0.0000000000000000 [Eh]
	 Same-Spin Energy          =      -0.5737207959113536 [Eh]
	 Opposite-Spin Energy      =      -1.7543231865118187 [Eh]
	 Correlation Energy        =      -2.3280439824231722 [Eh]
	 Total Energy              =    -634.3129752342534857 [Eh]

	 ================> DF-SCS-MP2 Energies <==================
	-----------------------------------------------------------
	 SCS Same-Spin Scale       =       0.3333333333333333 [-]
	 SCS Opposite-Spin Scale   =       1.2000000000000000 [-]
	 SCS Same-Spin Energy      =      -0.1912402653037845 [Eh]
	 SCS Opposite-Spin Energy  =      -2.1051878238141826 [Eh]
	 SCS Correlation Energy    =      -2.2964280891179669 [Eh]
	 SCS Total Energy          =    -634.2813593409482564 [Eh]
	-----------------------------------------------------------

*** Psi4 exiting successfully. Buy a developer a beer!
