                               Psi4 1.8.2 release

  ==> Input File <==

--------------------------------------------------------------------------
MEMORY 60 GB

molecule dimer {
-1 1
F          0.000000     0.000000     0.000000
O          1.085350    -0.452967    -2.498595
H          0.740226    -0.290867    -1.628710
H          1.712584     0.278333    -2.718517
O          2.724779     1.025508     1.044409
H          1.842746     0.753869     0.654207
H          2.827630     0.510970     1.864390
O          0.347464     2.793856    -0.347316
H          0.359101     1.813032    -0.464677
H          1.260776     3.131718    -0.519961
O         -0.522190    -0.709648     2.712844
H         -1.491139    -0.927418     2.859256
H         -0.468495    -0.514250     1.793049
O          1.416063    -2.457372     0.057633
H          0.659838    -3.068519     0.149532
H          0.955921    -1.620980    -0.132078
O         -2.262354    -0.569114    -1.491409
H         -1.655329    -0.029416    -0.956922
H         -2.394828    -1.281723    -0.858167

units ang
no_reorient
no_com
symmetry c1
}

set {
basis        aug-cc-pVTZ
scf_type     df
}

energy("mp2")
--------------------------------------------------------------------------

    Molecular point group: c1

    Geometry (in Angstrom), charge = -1, multiplicity = 1:

       Center              X                  Y                   Z               Mass
    ------------   -----------------  -----------------  -----------------  -----------------
         F            0.000000000000     0.000000000000     0.000000000000    18.998403162730
         O            1.085350000000    -0.452967000000    -2.498595000000    15.994914619570
         H            0.740226000000    -0.290867000000    -1.628710000000     1.007825032230
         H            1.712584000000     0.278333000000    -2.718517000000     1.007825032230
         O            2.724779000000     1.025508000000     1.044409000000    15.994914619570
         H            1.842746000000     0.753869000000     0.654207000000     1.007825032230
         H            2.827630000000     0.510970000000     1.864390000000     1.007825032230
         O            0.347464000000     2.793856000000    -0.347316000000    15.994914619570
         H            0.359101000000     1.813032000000    -0.464677000000     1.007825032230
         H            1.260776000000     3.131718000000    -0.519961000000     1.007825032230
         O           -0.522190000000    -0.709648000000     2.712844000000    15.994914619570
         H           -1.491139000000    -0.927418000000     2.859256000000     1.007825032230
         H           -0.468495000000    -0.514250000000     1.793049000000     1.007825032230
         O            1.416063000000    -2.457372000000     0.057633000000    15.994914619570
         H            0.659838000000    -3.068519000000     0.149532000000     1.007825032230
         H            0.955921000000    -1.620980000000    -0.132078000000     1.007825032230
         O           -2.262354000000    -0.569114000000    -1.491409000000    15.994914619570
         H           -1.655329000000    -0.029416000000    -0.956922000000     1.007825032230
         H           -2.394828000000    -1.281723000000    -0.858167000000     1.007825032230

  Charge       = -1
  Multiplicity = 1
  Basis Set: AUG-CC-PVTZ
    Blend: AUG-CC-PVTZ
  Basis Set: (AUG-CC-PVTZ AUX)
    Blend: AUG-CC-PVTZ-JKFIT

    Orbital Energies [Eh]
    ---------------------

    Doubly Occupied:

       1A    -26.016895     2A    -20.425731     3A    -20.421856
       4A    -20.416353     5A    -20.413397     6A    -20.408529
       7A    -20.403619     8A     -1.284866     9A     -1.204483
      10A     -1.198279    11A     -1.191346    12A     -1.188311
      13A     -1.184898    14A     -1.184211    15A     -0.572735
      16A     -0.565859    17A     -0.564253    18A     -0.557696
      19A     -0.547986    20A     -0.541752    21A     -0.453686
      22A     -0.447082    23A     -0.439235    24A     -0.434942
      25A     -0.430736    26A     -0.421543    27A     -0.376693
      28A     -0.373844    29A     -0.368818    30A     -0.366684
      31A     -0.363485    32A     -0.356605    33A     -0.353743
      34A     -0.350550    35A     -0.341943

  @DF-RHF Final Energy:  -555.91830827886110

   => Energetics <=

    Nuclear Repulsion Energy =            352.5580949572446912
    One-Electron Energy =               -1484.6075055563105707
    Two-Electron Energy =                 576.1311023202047181
    Total Energy =                       -555.9183082788611046
 Dipole X            :        -51.3620546           50.3837400           -0.9783146
 Dipole Y            :          7.7065022           -7.9427967           -0.2362945
 Dipole Z            :          8.6208000           -7.8198190            0.8009810
 Magnitude           :                                                    1.2862757
  Basis Set: (AUG-CC-PVTZ AUX)
    Blend: AUG-CC-PVTZ-RI
	 Reference Energy          =    -555.9183082788611046 [Eh]
	 Singles Energy            =      -0.0000000000000000 [Eh]
	 Same-Spin Energy          =      -0.5035880822867285 [Eh]
	 Opposite-Spin Energy      =      -1.5370485902617135 [Eh]
	 Correlation Energy        =      -2.0406366725484419 [Eh]
	 Total Energy              =    -557.9589449514095350 [Eh]

	 ================> DF-SCS-MP2 Energies <==================
	-----------------------------------------------------------
	 SCS Same-Spin Scale       =       0.3333333333333333 [-]
	 SCS Opposite-Spin Scale   =       1.2000000000000000 [-]
	 SCS Same-Spin Energy      =      -0.1678626940955761 [Eh]
	 SCS Opposite-Spin Energy  =      -1.8444583083140560 [Eh]
	 SCS Correlation Energy    =      -2.0123210024096321 [Eh]
	 SCS Total Energy          =    -557.9306292812707397 [Eh]
	-----------------------------------------------------------

*** Psi4 exiting successfully. Buy a developer a beer!
