                               Psi4 1.9 release

  ==> Input File <==

--------------------------------------------------------------------------
MEMORY 60 GB

molecule dimer {
-1 1
F      0.000000     0.000000     0.000000
--
0 1
O      2.081703    -1.508701     1.473146
H      1.423928    -1.144779     0.827316
H      1.989185    -0.825890     2.234926
O     -1.611172     1.039781    -2.139406
H     -1.249726     0.761251    -1.244112
H     -1.011081     0.474083    -2.746982
O      0.972873    -2.190476    -1.634802
H      0.624232    -1.381249    -1.276102
H      0.243327    -2.774866    -1.933728
O     -0.433920     2.565224     0.815342
H     -0.264565     1.626146     0.879923
H      0.340327     2.904093     1.318431
O     -2.434501    -1.580169     0.979841
H     -2.571580    -1.692205     1.903886
H     -1.682664    -1.058526     0.812807
O      1.827191     1.758440    -0.803170
H      1.167277     1.082376    -0.802700
H      1.643038     2.278252    -1.564266

units ang
no_reorient
no_com
symmetry c1
}

set {
basis        aug-cc-pVTZ
scf_type     df
}

energy("mp2", bsse_type="cp")
--------------------------------------------------------------------------

                               Psi4 1.9 release
    Molecular point group: c1
  Charge       = 0
  Multiplicity = 1
  Basis Set: AUG-CC-PVTZ
    Blend: AUG-CC-PVTZ
  Basis Set: (AUG-CC-PVTZ AUX)
    Blend: AUG-CC-PVTZ-JKFIT
  @DF-RHF Final Energy:  -456.31761585275660
    Total Energy =                       -456.3176158527566031
 Dipole X            :         -7.4015955            7.3115205           -0.0900751
 Dipole Y            :         -1.6278658            1.7413411            0.1134753
 Dipole Z            :         23.3800982          -22.7957530            0.5843452
 Magnitude           :                                                    0.6020378
  Basis Set: (AUG-CC-PVTZ AUX)
    Blend: AUG-CC-PVTZ-RI
	 Reference Energy          =    -456.3176158527566031 [Eh]
	 Singles Energy            =      -0.0000000000000000 [Eh]
	 Same-Spin Energy          =      -0.4157268788746316 [Eh]
	 Opposite-Spin Energy      =      -1.3064659379724042 [Eh]
	 Correlation Energy        =      -1.7221928168470357 [Eh]
	 Total Energy              =    -458.0398086696036444 [Eh]
	 SCS Total Energy          =    -458.0239506046150382 [Eh]
                               Psi4 1.9 release
    Molecular point group: c1
  Multiplicity = 1
  Basis Set: AUG-CC-PVTZ
    Blend: AUG-CC-PVTZ
  Basis Set: (AUG-CC-PVTZ AUX)
    Blend: AUG-CC-PVTZ-JKFIT
  @DF-RHF Final Energy:   -99.45114658980332
    Total Energy =                        -99.4511465898033151
  Basis Set: (AUG-CC-PVTZ AUX)
	 Singles Energy            =      -0.0000000000000000 [Eh]
	 Same-Spin Energy          =      -0.0820631497110079 [Eh]
	 Opposite-Spin Energy      =      -0.2301638627793284 [Eh]
	 Correlation Energy        =      -0.3122270124903362 [Eh]
	 Total Energy              =     -99.7633736022936546 [Eh]
	 SCS Total Energy          =     -99.7546976083755084 [Eh]
                               Psi4 1.9 release
    Molecular point group: c1

    Geometry (in Bohr), charge = -1, multiplicity = 1:

       Center              X                  Y                   Z               Mass
    ------------   -----------------  -----------------  -----------------  -----------------
         F            0.000000000000     0.000000000000     0.000000000000    18.998403162730
         O            3.933848544544    -2.851031695204     2.783842482814    15.994914619570
         H            2.690833942371    -2.163318784175     1.563400659209     1.007825032230
         H            3.759014862869    -1.560705909754     4.223398050665     1.007825032230
         O           -3.044673821006     1.964901320455    -4.042891411161    15.994914619570
         H           -2.361639871864     1.438555902731    -2.351030949396     1.007825032230
         H           -1.910666180654     0.895887030735    -5.191043651562     1.007825032230
         O            1.838463524853    -4.139399724388    -3.089328049351    15.994914619570
         H            1.179627518747    -2.610182321062    -2.411483288149     1.007825032230
         H            0.459821388929    -5.243736774845    -3.654216321129     1.007825032230
         O           -0.819989960359     4.847570810451     1.540773078583    15.994914619570
         H           -0.499955392382     3.072970580009     1.662813481491     1.007825032230
         H            0.643124823099     5.487940412859     2.491473505313     1.007825032230
         O           -4.600540142153    -2.986086641939     1.851631136495    15.994914619570
         H           -4.859581909705    -3.197803998130     3.597823114093     1.007825032230
         H           -3.179774121167    -2.000324236676     1.535982622855     1.007825032230
         O            3.452890568901     3.322970008050    -1.517771332184    15.994914619570
         H            2.205833842546     2.045394204769    -1.516883160905     1.007825032230
         H            3.104891833720     4.305272324777    -2.956034327365     1.007825032230

  Charge       = -1
  Multiplicity = 1
  Basis Set: AUG-CC-PVTZ
    Blend: AUG-CC-PVTZ
  Basis Set: (AUG-CC-PVTZ AUX)
    Blend: AUG-CC-PVTZ-JKFIT

    Orbital Energies [Eh]
    ---------------------

    Doubly Occupied:

       1A    -26.008432     2A    -20.422459     3A    -20.418638
       4A    -20.418036     5A    -20.417388     6A    -20.403066
       7A    -20.393606     8A     -1.276024     9A     -1.223358
      10A     -1.200154    11A     -1.195855    12A     -1.185814
      13A     -1.174063    14A     -1.171353    15A     -0.606644
      16A     -0.582529    17A     -0.568262    18A     -0.543181
      19A     -0.529028    20A     -0.522900    21A     -0.444720
      22A     -0.441796    23A     -0.437223    24A     -0.432193
      25A     -0.429250    26A     -0.426086    27A     -0.375967
      28A     -0.373689    29A     -0.366077    30A     -0.364452
      31A     -0.360079    32A     -0.353972    33A     -0.350724
      34A     -0.349150    35A     -0.329431

  @DF-RHF Final Energy:  -555.91017681111089

   => Energetics <=

    Nuclear Repulsion Energy =            350.8407985506028695
    One-Electron Energy =               -1481.3107405970338277
    Two-Electron Energy =                 574.5597652353201283
    Total Energy =                       -555.9101768111108868
 Dipole X            :         -7.5399126            7.3115205           -0.2283921
 Dipole Y            :         -1.7862427            1.7413411           -0.0449016
 Dipole Z            :         23.6036445          -22.7957530            0.8078914
 Magnitude           :                                                    0.8407542
  Basis Set: (AUG-CC-PVTZ AUX)
    Blend: AUG-CC-PVTZ-RI
	 Reference Energy          =    -555.9101768111108868 [Eh]
	 Singles Energy            =      -0.0000000000000000 [Eh]
	 Same-Spin Energy          =      -0.5030331207150401 [Eh]
	 Opposite-Spin Energy      =      -1.5354097624265228 [Eh]
	 Correlation Energy        =      -2.0384428831415629 [Eh]
	 Total Energy              =    -557.9486196942524430 [Eh]

	 ================> DF-SCS-MP2 Energies <==================
	-----------------------------------------------------------
	 SCS Same-Spin Scale       =       0.3333333333333333 [-]
	 SCS Opposite-Spin Scale   =       1.2000000000000000 [-]
	 SCS Same-Spin Energy      =      -0.1676777069050134 [Eh]
	 SCS Opposite-Spin Energy  =      -1.8424917149118274 [Eh]
	 SCS Correlation Energy    =      -2.0101694218168409 [Eh]
	 SCS Total Energy          =    -557.9203462329277272 [Eh]
	-----------------------------------------------------------

*** Psi4 exiting successfully. Buy a developer a beer!
