                               Psi4 1.8.2 release

  ==> Input File <==

--------------------------------------------------------------------------
MEMORY 60 GB

molecule dimer {
-1 1
F          0.000000     0.000000     0.000000
O         -0.580884    -1.648700     2.195241
H         -1.020660    -1.208330     2.917618
H         -0.253605    -1.019050     1.524375
O          2.537363    -0.724230     0.693189
H          1.626552    -0.593909     0.467081
H          2.844385    -1.514828     0.175338
O         -2.966082     0.085030    -0.257782
H         -2.046228     0.047434     0.053577
H         -3.144712    -0.828874    -0.456325
O          0.685142     2.385594    -1.181765
H          0.345072     1.543477    -0.827825
H          1.560160     2.607602    -0.897901
O          0.514673     1.946164     2.026000
H          1.317660     1.741717     2.515660
H          0.573925     1.491257     1.189736
O         -0.034012    -0.439230    -2.881590
H         -0.368618    -0.315122    -1.979070
H         -0.049734    -1.427287    -2.983019

units ang
no_reorient
no_com
symmetry c1
}

set {
basis        aug-cc-pVTZ
scf_type     df
}

energy("mp2")
--------------------------------------------------------------------------

    Molecular point group: c1

    Geometry (in Angstrom), charge = -1, multiplicity = 1:

       Center              X                  Y                   Z               Mass
    ------------   -----------------  -----------------  -----------------  -----------------
         F            0.000000000000     0.000000000000     0.000000000000    18.998403162730
         O           -0.580884000000    -1.648700000000     2.195241000000    15.994914619570
         H           -1.020660000000    -1.208330000000     2.917618000000     1.007825032230
         H           -0.253605000000    -1.019050000000     1.524375000000     1.007825032230
         O            2.537363000000    -0.724230000000     0.693189000000    15.994914619570
         H            1.626552000000    -0.593909000000     0.467081000000     1.007825032230
         H            2.844385000000    -1.514828000000     0.175338000000     1.007825032230
         O           -2.966082000000     0.085030000000    -0.257782000000    15.994914619570
         H           -2.046228000000     0.047434000000     0.053577000000     1.007825032230
         H           -3.144712000000    -0.828874000000    -0.456325000000     1.007825032230
         O            0.685142000000     2.385594000000    -1.181765000000    15.994914619570
         H            0.345072000000     1.543477000000    -0.827825000000     1.007825032230
         H            1.560160000000     2.607602000000    -0.897901000000     1.007825032230
         O            0.514673000000     1.946164000000     2.026000000000    15.994914619570
         H            1.317660000000     1.741717000000     2.515660000000     1.007825032230
         H            0.573925000000     1.491257000000     1.189736000000     1.007825032230
         O           -0.034012000000    -0.439230000000    -2.881590000000    15.994914619570
         H           -0.368618000000    -0.315122000000    -1.979070000000     1.007825032230
         H           -0.049734000000    -1.427287000000    -2.983019000000     1.007825032230

  Charge       = -1
  Multiplicity = 1
  Basis Set: AUG-CC-PVTZ
    Blend: AUG-CC-PVTZ
  Basis Set: (AUG-CC-PVTZ AUX)
    Blend: AUG-CC-PVTZ-JKFIT

    Orbital Energies [Eh]
    ---------------------

    Doubly Occupied:

       1A    -26.011867     2A    -20.420704     3A    -20.417504
       4A    -20.414247     5A    -20.409985     6A    -20.407425
       7A    -20.387746     8A     -1.280934     9A     -1.203999
      10A     -1.198026    11A     -1.195138    12A     -1.192952
      13A     -1.190654    14A     -1.175170    15A     -0.582212
      16A     -0.575689    17A     -0.569283    18A     -0.565802
      19A     -0.561311    20A     -0.551154    21A     -0.447527
      22A     -0.440660    23A     -0.438248    24A     -0.431565
      25A     -0.426314    26A     -0.406950    27A     -0.374941
      28A     -0.370859    29A     -0.363937    30A     -0.361493
      31A     -0.361342    32A     -0.356768    33A     -0.352957
      34A     -0.348577    35A     -0.334185

  @DF-RHF Final Energy:  -555.92542307320696

   => Energetics <=

    Nuclear Repulsion Energy =            353.2428903183335933
    One-Electron Energy =               -1486.0803690048298904
    Two-Electron Energy =                 576.9120556132893398
    Total Energy =                       -555.9254230732069573
 Dipole X            :         -4.3842223            4.9771550            0.5929327
 Dipole Y            :        -27.0337683           25.2488405           -1.7849278
 Dipole Z            :        -11.9598148           12.1803979            0.2205831
 Magnitude           :                                                    1.8937247
  Basis Set: (AUG-CC-PVTZ AUX)
    Blend: AUG-CC-PVTZ-RI
	 Reference Energy          =    -555.9254230732069573 [Eh]
	 Singles Energy            =      -0.0000000000000000 [Eh]
	 Same-Spin Energy          =      -0.5023611127411212 [Eh]
	 Opposite-Spin Energy      =      -1.5327436256933484 [Eh]
	 Correlation Energy        =      -2.0351047384344696 [Eh]
	 Total Energy              =    -557.9605278116414411 [Eh]

	 ================> DF-SCS-MP2 Energies <==================
	-----------------------------------------------------------
	 SCS Same-Spin Scale       =       0.3333333333333333 [-]
	 SCS Opposite-Spin Scale   =       1.2000000000000000 [-]
	 SCS Same-Spin Energy      =      -0.1674537042470404 [Eh]
	 SCS Opposite-Spin Energy  =      -1.8392923508320180 [Eh]
	 SCS Correlation Energy    =      -2.0067460550790583 [Eh]
	 SCS Total Energy          =    -557.9321691282859774 [Eh]
	-----------------------------------------------------------

*** Psi4 exiting successfully. Buy a developer a beer!
