                               Psi4 1.8.2 release

  ==> Input File <==

--------------------------------------------------------------------------
MEMORY 60 GB

molecule dimer {
-1 1
F          0.000000     0.000000     0.000000
O         -0.457010    -0.913459     2.874606
H         -0.306480    -0.682030     1.919254
H          0.333257    -0.768961     3.330802
O         -1.736364     1.604014    -1.591024
H         -1.392750     1.031544    -0.917866
H         -2.603083     1.329404    -1.841321
O          0.819239     2.289400     1.312707
H          0.597058     2.285995     2.245025
H          0.522724     1.425126     0.938345
O          2.214721     0.612757    -1.586063
H          1.959488     0.830819    -2.501662
H          1.438663     0.411088    -1.114963
O         -1.059183    -2.036592    -1.488676
H         -0.695984    -1.884564    -2.350649
H         -0.551134    -1.260861    -1.152770

units ang
no_reorient
no_com
symmetry c1
}

set {
basis        aug-cc-pVTZ
scf_type     df
}

energy("mp2")
--------------------------------------------------------------------------

    Molecular point group: c1

    Geometry (in Angstrom), charge = -1, multiplicity = 1:

       Center              X                  Y                   Z               Mass
    ------------   -----------------  -----------------  -----------------  -----------------
         F            0.000000000000     0.000000000000     0.000000000000    18.998403162730
         O           -0.457010000000    -0.913459000000     2.874606000000    15.994914619570
         H           -0.306480000000    -0.682030000000     1.919254000000     1.007825032230
         H            0.333257000000    -0.768961000000     3.330802000000     1.007825032230
         O           -1.736364000000     1.604014000000    -1.591024000000    15.994914619570
         H           -1.392750000000     1.031544000000    -0.917866000000     1.007825032230
         H           -2.603083000000     1.329404000000    -1.841321000000     1.007825032230
         O            0.819239000000     2.289400000000     1.312707000000    15.994914619570
         H            0.597058000000     2.285995000000     2.245025000000     1.007825032230
         H            0.522724000000     1.425126000000     0.938345000000     1.007825032230
         O            2.214721000000     0.612757000000    -1.586063000000    15.994914619570
         H            1.959488000000     0.830819000000    -2.501662000000     1.007825032230
         H            1.438663000000     0.411088000000    -1.114963000000     1.007825032230
         O           -1.059183000000    -2.036592000000    -1.488676000000    15.994914619570
         H           -0.695984000000    -1.884564000000    -2.350649000000     1.007825032230
         H           -0.551134000000    -1.260861000000    -1.152770000000     1.007825032230

  Charge       = -1
  Multiplicity = 1
  Basis Set: AUG-CC-PVTZ
    Blend: AUG-CC-PVTZ
  Basis Set: (AUG-CC-PVTZ AUX)
    Blend: AUG-CC-PVTZ-JKFIT

    Orbital Energies [Eh]
    ---------------------

    Doubly Occupied:

       1A    -25.992815     2A    -20.416060     3A    -20.406163
       4A    -20.405261     5A    -20.398264     6A    -20.393123
       7A     -1.259252     8A     -1.204751     9A     -1.201049
      10A     -1.195773    11A     -1.189413    12A     -1.172727
      13A     -0.582602    14A     -0.577390    15A     -0.566203
      16A     -0.548748    17A     -0.520684    18A     -0.457780
      19A     -0.437249    20A     -0.427184    21A     -0.421846
      22A     -0.413696    23A     -0.363773    24A     -0.361469
      25A     -0.354774    26A     -0.350203    27A     -0.347103
      28A     -0.346657    29A     -0.340428    30A     -0.335159

  @DF-RHF Final Energy:  -479.85626437964436

   => Energetics <=

    Nuclear Repulsion Energy =            258.8797768174825364
    One-Electron Energy =               -1191.4968788575993131
    Two-Electron Energy =                 452.7608376604724754
    Total Energy =                       -479.8562643796443581
 Dipole X            :          4.4245827           -4.6241920           -0.1996093
 Dipole Y            :        -29.1155805           28.6605691           -0.4550114
 Dipole Z            :          9.7823519           -9.9652912           -0.1829393
 Magnitude           :                                                    0.5294772
  Basis Set: (AUG-CC-PVTZ AUX)
    Blend: AUG-CC-PVTZ-RI
	 Reference Energy          =    -479.8562643796443581 [Eh]
	 Singles Energy            =      -0.0000000000000000 [Eh]
	 Same-Spin Energy          =      -0.4315522237034461 [Eh]
	 Opposite-Spin Energy      =      -1.3129701414265511 [Eh]
	 Correlation Energy        =      -1.7445223651299973 [Eh]
	 Total Energy              =    -481.6007867447743820 [Eh]

	 ================> DF-SCS-MP2 Energies <==================
	-----------------------------------------------------------
	 SCS Same-Spin Scale       =       0.3333333333333333 [-]
	 SCS Opposite-Spin Scale   =       1.2000000000000000 [-]
	 SCS Same-Spin Energy      =      -0.1438507412344820 [Eh]
	 SCS Opposite-Spin Energy  =      -1.5755641697118612 [Eh]
	 SCS Correlation Energy    =      -1.7194149109463432 [Eh]
	 SCS Total Energy          =    -481.5756792905906991 [Eh]
	-----------------------------------------------------------

*** Psi4 exiting successfully. Buy a developer a beer!
