                               Psi4 1.8.2 release

  ==> Input File <==

--------------------------------------------------------------------------
MEMORY 60 GB

molecule dimer {
0 1
Gh(F)      0.000000     0.000000     0.000000
Gh(O)     -1.944527     0.667499    -2.037884
Gh(H)     -1.368387     0.229404    -1.388126
Gh(H)     -1.725369     0.146857    -2.796287
Gh(O)      2.643442     0.923070     0.544992
Gh(H)      1.757284     0.494516     0.594070
Gh(H)      2.927492     0.930628     1.470439
O         -0.089574    -2.415065     1.212511
H         -0.321483    -1.491225     0.904779
H          0.328480    -2.335764     2.040561
Gh(O)      1.394067     1.308528    -2.063548
Gh(H)      1.073967     0.850781    -1.278231
Gh(H)      0.906903     2.092693    -2.265606
Gh(O)     -2.338432     0.730854     1.212540
Gh(H)     -2.409960     1.553376     1.716659
Gh(H)     -1.476015     0.775888     0.745875

units ang
no_reorient
no_com
symmetry c1
}

set {
basis        aug-cc-pVTZ
scf_type     df
}

energy("mp2")
--------------------------------------------------------------------------

    Molecular point group: c1

    Geometry (in Angstrom), charge = 0, multiplicity = 1:

       Center              X                  Y                   Z               Mass
    ------------   -----------------  -----------------  -----------------  -----------------
      Gh(F)           0.000000000000     0.000000000000     0.000000000000    18.998403162730
      Gh(O)          -1.944527000000     0.667499000000    -2.037884000000    15.994914619570
      Gh(H)          -1.368387000000     0.229404000000    -1.388126000000     1.007825032230
      Gh(H)          -1.725369000000     0.146857000000    -2.796287000000     1.007825032230
      Gh(O)           2.643442000000     0.923070000000     0.544992000000    15.994914619570
      Gh(H)           1.757284000000     0.494516000000     0.594070000000     1.007825032230
      Gh(H)           2.927492000000     0.930628000000     1.470439000000     1.007825032230
         O           -0.089574000000    -2.415065000000     1.212511000000    15.994914619570
         H           -0.321483000000    -1.491225000000     0.904779000000     1.007825032230
         H            0.328480000000    -2.335764000000     2.040561000000     1.007825032230
      Gh(O)           1.394067000000     1.308528000000    -2.063548000000    15.994914619570
      Gh(H)           1.073967000000     0.850781000000    -1.278231000000     1.007825032230
      Gh(H)           0.906903000000     2.092693000000    -2.265606000000     1.007825032230
      Gh(O)          -2.338432000000     0.730854000000     1.212540000000    15.994914619570
      Gh(H)          -2.409960000000     1.553376000000     1.716659000000     1.007825032230
      Gh(H)          -1.476015000000     0.775888000000     0.745875000000     1.007825032230

  Charge       = 0
  Multiplicity = 1
  Basis Set: AUG-CC-PVTZ
    Blend: AUG-CC-PVTZ
  Basis Set: (AUG-CC-PVTZ AUX)
    Blend: AUG-CC-PVTZ-JKFIT

    Orbital Energies [Eh]
    ---------------------

    Doubly Occupied:

       1A    -20.567066     2A     -1.348210     3A     -0.718752
       4A     -0.577227     5A     -0.508846

  @DF-RHF Final Energy:   -76.05755895469377

   => Energetics <=

    Nuclear Repulsion Energy =              9.1163089327350271
    One-Electron Energy =                -122.9075316402302320
    Two-Electron Energy =                  37.7336637528014336
    Total Energy =                        -76.0575589546937749
 Dipole X            :          1.4693355           -1.3409402            0.1283953
 Dipole Y            :         44.4067091          -43.7424525            0.6642566
 Dipole Z            :        -23.5407766           23.8963957            0.3556191
 Magnitude           :                                                    0.7643214
  Basis Set: (AUG-CC-PVTZ AUX)
    Blend: AUG-CC-PVTZ-RI
	 Reference Energy          =     -76.0575589546937749 [Eh]
	 Singles Energy            =      -0.0000000000000000 [Eh]
	 Same-Spin Energy          =      -0.0684913932708017 [Eh]
	 Opposite-Spin Energy      =      -0.2162506693560172 [Eh]
	 Correlation Energy        =      -0.2847420626268189 [Eh]
	 Total Energy              =     -76.3423010173205938 [Eh]

	 ================> DF-SCS-MP2 Energies <==================
	-----------------------------------------------------------
	 SCS Same-Spin Scale       =       0.3333333333333333 [-]
	 SCS Opposite-Spin Scale   =       1.2000000000000000 [-]
	 SCS Same-Spin Energy      =      -0.0228304644236006 [Eh]
	 SCS Opposite-Spin Energy  =      -0.2595008032272207 [Eh]
	 SCS Correlation Energy    =      -0.2823312676508212 [Eh]
	 SCS Total Energy          =     -76.3398902223445930 [Eh]
	-----------------------------------------------------------

*** Psi4 exiting successfully. Buy a developer a beer!
