                               Psi4 1.8.2 release

  ==> Input File <==

--------------------------------------------------------------------------
MEMORY 60 GB

molecule dimer {
-1 1
F          0.000000     0.000000     0.000000
O         -1.815093    -1.909151    -1.378201
H         -1.403991    -2.276259    -2.165990
H         -1.261117    -1.228137    -1.060890
O         -2.290972     1.058239     1.136022
H         -1.623090     0.540782     0.668743
H         -1.945953     1.955729     1.153331
O          0.991195     2.121049     1.492154
H          0.917310     1.817853     2.425342
H          0.600819     1.313217     1.073674
O          0.163617    -2.054169     1.849337
H         -0.065307    -1.308779     1.260088
H         -0.495621    -2.762095     1.646170

units ang
no_reorient
no_com
symmetry c1
}

set {
basis        aug-cc-pVTZ
scf_type     df
}

energy("mp2")
--------------------------------------------------------------------------

    Molecular point group: c1

    Geometry (in Angstrom), charge = -1, multiplicity = 1:

       Center              X                  Y                   Z               Mass
    ------------   -----------------  -----------------  -----------------  -----------------
         F            0.000000000000     0.000000000000     0.000000000000    18.998403162730
         O           -1.815093000000    -1.909151000000    -1.378201000000    15.994914619570
         H           -1.403991000000    -2.276259000000    -2.165990000000     1.007825032230
         H           -1.261117000000    -1.228137000000    -1.060890000000     1.007825032230
         O           -2.290972000000     1.058239000000     1.136022000000    15.994914619570
         H           -1.623090000000     0.540782000000     0.668743000000     1.007825032230
         H           -1.945953000000     1.955729000000     1.153331000000     1.007825032230
         O            0.991195000000     2.121049000000     1.492154000000    15.994914619570
         H            0.917310000000     1.817853000000     2.425342000000     1.007825032230
         H            0.600819000000     1.313217000000     1.073674000000     1.007825032230
         O            0.163617000000    -2.054169000000     1.849337000000    15.994914619570
         H           -0.065307000000    -1.308779000000     1.260088000000     1.007825032230
         H           -0.495621000000    -2.762095000000     1.646170000000     1.007825032230

  Charge       = -1
  Multiplicity = 1
  Basis Set: AUG-CC-PVTZ
    Blend: AUG-CC-PVTZ
  Basis Set: (AUG-CC-PVTZ AUX)
    Blend: AUG-CC-PVTZ-JKFIT

    Orbital Energies [Eh]
    ---------------------

    Doubly Occupied:

       1A    -25.968484     2A    -20.412559     3A    -20.397563
       4A    -20.391902     5A    -20.386957     6A     -1.232178
       7A     -1.206122     8A     -1.172862     9A     -1.170367
      10A     -1.164217    11A     -0.580954    12A     -0.542951
      13A     -0.534313    14A     -0.518586    15A     -0.436139
      16A     -0.430079    17A     -0.416344    18A     -0.412136
      19A     -0.362261    20A     -0.342039    21A     -0.336269
      22A     -0.334832    23A     -0.323038    24A     -0.320939
      25A     -0.318632

  @DF-RHF Final Energy:  -403.78797823190996

   => Energetics <=

    Nuclear Repulsion Energy =            186.2677297232300475
    One-Electron Energy =                -940.6859632266578046
    Two-Electron Energy =                 350.6302552715177399
    Total Energy =                       -403.7879782319099604
 Dipole X            :         55.3696708          -54.5884695            0.7812014
 Dipole Y            :         15.3430078          -15.5334448           -0.1904370
 Dipole Z            :        -57.6408035           56.3043219           -1.3364817
 Magnitude           :                                                    1.5597195
  Basis Set: (AUG-CC-PVTZ AUX)
    Blend: AUG-CC-PVTZ-RI
	 Reference Energy          =    -403.7879782319099604 [Eh]
	 Singles Energy            =      -0.0000000000000000 [Eh]
	 Same-Spin Energy          =      -0.3623068431089499 [Eh]
	 Opposite-Spin Energy      =      -1.0975645626008248 [Eh]
	 Correlation Energy        =      -1.4598714057097748 [Eh]
	 Total Energy              =    -405.2478496376197086 [Eh]

	 ================> DF-SCS-MP2 Energies <==================
	-----------------------------------------------------------
	 SCS Same-Spin Scale       =       0.3333333333333333 [-]
	 SCS Opposite-Spin Scale   =       1.2000000000000000 [-]
	 SCS Same-Spin Energy      =      -0.1207689477029833 [Eh]
	 SCS Opposite-Spin Energy  =      -1.3170774751209897 [Eh]
	 SCS Correlation Energy    =      -1.4378464228239731 [Eh]
	 SCS Total Energy          =    -405.2258246547339127 [Eh]
	-----------------------------------------------------------

*** Psi4 exiting successfully. Buy a developer a beer!
