                               Psi4 1.8.2 release

  ==> Input File <==

--------------------------------------------------------------------------
MEMORY 60 GB

molecule dimer {
0 1
Gh(F)      0.000000     0.000000     0.000000
Gh(O)      1.915295    -0.763106     1.924441
Gh(H)      1.286691    -0.531055     1.264235
Gh(H)      2.662839    -0.169891     1.770863
Gh(O)     -1.830911     1.362948     1.404744
Gh(H)     -2.414198     1.461222     0.672062
Gh(H)     -1.183612     0.808558     0.986977
Gh(O)      1.145913     2.301825    -0.946882
Gh(H)      0.849368     1.425256    -0.632387
Gh(H)      0.889211     3.015024    -0.341450
O         -0.440059    -0.165284    -2.578451
H         -1.173902     0.512427    -2.648391
H         -0.268164    -0.280289    -1.637521

units ang
no_reorient
no_com
symmetry c1
}

set {
basis        aug-cc-pVTZ
scf_type     df
}

energy("mp2")
--------------------------------------------------------------------------

    Molecular point group: c1

    Geometry (in Angstrom), charge = 0, multiplicity = 1:

       Center              X                  Y                   Z               Mass
    ------------   -----------------  -----------------  -----------------  -----------------
      Gh(F)           0.000000000000     0.000000000000     0.000000000000    18.998403162730
      Gh(O)           1.915295000000    -0.763106000000     1.924441000000    15.994914619570
      Gh(H)           1.286691000000    -0.531055000000     1.264235000000     1.007825032230
      Gh(H)           2.662839000000    -0.169891000000     1.770863000000     1.007825032230
      Gh(O)          -1.830911000000     1.362948000000     1.404744000000    15.994914619570
      Gh(H)          -2.414198000000     1.461222000000     0.672062000000     1.007825032230
      Gh(H)          -1.183612000000     0.808558000000     0.986977000000     1.007825032230
      Gh(O)           1.145913000000     2.301825000000    -0.946882000000    15.994914619570
      Gh(H)           0.849368000000     1.425256000000    -0.632387000000     1.007825032230
      Gh(H)           0.889211000000     3.015024000000    -0.341450000000     1.007825032230
         O           -0.440059000000    -0.165284000000    -2.578451000000    15.994914619570
         H           -1.173902000000     0.512427000000    -2.648391000000     1.007825032230
         H           -0.268164000000    -0.280289000000    -1.637521000000     1.007825032230

  Charge       = 0
  Multiplicity = 1
  Basis Set: AUG-CC-PVTZ
    Blend: AUG-CC-PVTZ
  Basis Set: (AUG-CC-PVTZ AUX)
    Blend: AUG-CC-PVTZ-JKFIT

    Orbital Energies [Eh]
    ---------------------

    Doubly Occupied:

       1A    -20.570611     2A     -1.340078     3A     -0.707504
       4A     -0.576598     5A     -0.507808

  @DF-RHF Final Energy:   -76.05722300995980

   => Energetics <=

    Nuclear Repulsion Energy =              8.9586452836975781
    One-Electron Energy =                -122.6265365421807019
    Two-Electron Energy =                  37.6106682485233250
    Total Energy =                        -76.0572230099597988
 Dipole X            :          9.0115499           -9.3778377           -0.3662878
 Dipole Y            :          2.4270665           -2.0600547            0.3670118
 Dipole Z            :         47.6574704          -47.0797296            0.5777408
 Magnitude           :                                                    0.7763046
  Basis Set: (AUG-CC-PVTZ AUX)
    Blend: AUG-CC-PVTZ-RI
	 Reference Energy          =     -76.0572230099597988 [Eh]
	 Singles Energy            =      -0.0000000000000000 [Eh]
	 Same-Spin Energy          =      -0.0688069893036832 [Eh]
	 Opposite-Spin Energy      =      -0.2173671278992445 [Eh]
	 Correlation Energy        =      -0.2861741172029276 [Eh]
	 Total Energy              =     -76.3433971271627314 [Eh]

	 ================> DF-SCS-MP2 Energies <==================
	-----------------------------------------------------------
	 SCS Same-Spin Scale       =       0.3333333333333333 [-]
	 SCS Opposite-Spin Scale   =       1.2000000000000000 [-]
	 SCS Same-Spin Energy      =      -0.0229356631012277 [Eh]
	 SCS Opposite-Spin Energy  =      -0.2608405534790934 [Eh]
	 SCS Correlation Energy    =      -0.2837762165803211 [Eh]
	 SCS Total Energy          =     -76.3409992265401200 [Eh]
	-----------------------------------------------------------

*** Psi4 exiting successfully. Buy a developer a beer!
