                               Psi4 1.8.2 release

  ==> Input File <==

--------------------------------------------------------------------------
MEMORY 60 GB

molecule dimer {
-1 1
F          0.000000     0.000000     0.000000
O          0.266469    -2.404656     1.201531
H         -0.633463    -2.712726     1.302485
H          0.132332    -1.593576     0.677383
O          2.063058     1.457481     1.160244
H          1.663140     1.837137     1.934730
H          1.358434     1.078668     0.675898
O         -2.665582    -0.685885     0.620014
H         -2.886730    -0.889932     1.510510
H         -1.770852    -0.247202     0.618308
O         -0.466229     2.894120     0.100297
H         -0.550035     1.915540     0.120147
H         -0.933453     3.301434     0.894465
O         -1.428658     0.445594    -2.381825
H         -2.319156     0.785428    -2.378532
H         -1.312007     0.123368    -1.502513
O          2.197488    -0.935719    -1.597882
H          1.331309    -0.620386    -1.258959
H          2.234943    -1.865177    -1.274134

units ang
no_reorient
no_com
symmetry c1
}

set {
basis        aug-cc-pVTZ
scf_type     df
}

energy("mp2")
--------------------------------------------------------------------------

    Molecular point group: c1

    Geometry (in Angstrom), charge = -1, multiplicity = 1:

       Center              X                  Y                   Z               Mass
    ------------   -----------------  -----------------  -----------------  -----------------
         F            0.000000000000     0.000000000000     0.000000000000    18.998403162730
         O            0.266469000000    -2.404656000000     1.201531000000    15.994914619570
         H           -0.633463000000    -2.712726000000     1.302485000000     1.007825032230
         H            0.132332000000    -1.593576000000     0.677383000000     1.007825032230
         O            2.063058000000     1.457481000000     1.160244000000    15.994914619570
         H            1.663140000000     1.837137000000     1.934730000000     1.007825032230
         H            1.358434000000     1.078668000000     0.675898000000     1.007825032230
         O           -2.665582000000    -0.685885000000     0.620014000000    15.994914619570
         H           -2.886730000000    -0.889932000000     1.510510000000     1.007825032230
         H           -1.770852000000    -0.247202000000     0.618308000000     1.007825032230
         O           -0.466229000000     2.894120000000     0.100297000000    15.994914619570
         H           -0.550035000000     1.915540000000     0.120147000000     1.007825032230
         H           -0.933453000000     3.301434000000     0.894465000000     1.007825032230
         O           -1.428658000000     0.445594000000    -2.381825000000    15.994914619570
         H           -2.319156000000     0.785428000000    -2.378532000000     1.007825032230
         H           -1.312007000000     0.123368000000    -1.502513000000     1.007825032230
         O            2.197488000000    -0.935719000000    -1.597882000000    15.994914619570
         H            1.331309000000    -0.620386000000    -1.258959000000     1.007825032230
         H            2.234943000000    -1.865177000000    -1.274134000000     1.007825032230

  Charge       = -1
  Multiplicity = 1
  Basis Set: AUG-CC-PVTZ
    Blend: AUG-CC-PVTZ
  Basis Set: (AUG-CC-PVTZ AUX)
    Blend: AUG-CC-PVTZ-JKFIT

    Orbital Energies [Eh]
    ---------------------

    Doubly Occupied:

       1A    -26.012449     2A    -20.438666     3A    -20.426142
       4A    -20.408190     5A    -20.404939     6A    -20.395583
       7A    -20.386430     8A     -1.282040     9A     -1.222174
      10A     -1.203139    11A     -1.191920    12A     -1.190194
      13A     -1.184645    14A     -1.167901    15A     -0.599323
      16A     -0.572076    17A     -0.567344    18A     -0.554936
      19A     -0.552256    20A     -0.530285    21A     -0.459840
      22A     -0.443331    23A     -0.436946    24A     -0.429827
      25A     -0.420258    26A     -0.418598    27A     -0.384779
      28A     -0.373002    29A     -0.367804    30A     -0.365921
      31A     -0.364087    32A     -0.352873    33A     -0.349160
      34A     -0.335136    35A     -0.332967

  @DF-RHF Final Energy:  -555.91971800193255

   => Energetics <=

    Nuclear Repulsion Energy =            354.8006212232405119
    One-Electron Energy =               -1489.1903549935661886
    Two-Electron Energy =                 578.4700157683930684
    Total Energy =                       -555.9197180019325515
 Dipole X            :          5.1827834           -7.4704086           -2.2876252
 Dipole Y            :        -13.9440424           13.7573120           -0.1867304
 Dipole Z            :         12.9813281          -11.0760250            1.9053032
 Magnitude           :                                                    2.9829981
  Basis Set: (AUG-CC-PVTZ AUX)
    Blend: AUG-CC-PVTZ-RI
	 Reference Energy          =    -555.9197180019325515 [Eh]
	 Singles Energy            =      -0.0000000000000000 [Eh]
	 Same-Spin Energy          =      -0.5032286982325023 [Eh]
	 Opposite-Spin Energy      =      -1.5343403648504823 [Eh]
	 Correlation Energy        =      -2.0375690630829846 [Eh]
	 Total Energy              =    -557.9572870650155210 [Eh]

	 ================> DF-SCS-MP2 Energies <==================
	-----------------------------------------------------------
	 SCS Same-Spin Scale       =       0.3333333333333333 [-]
	 SCS Opposite-Spin Scale   =       1.2000000000000000 [-]
	 SCS Same-Spin Energy      =      -0.1677428994108341 [Eh]
	 SCS Opposite-Spin Energy  =      -1.8412084378205786 [Eh]
	 SCS Correlation Energy    =      -2.0089513372314127 [Eh]
	 SCS Total Energy          =    -557.9286693391640028 [Eh]
	-----------------------------------------------------------

*** Psi4 exiting successfully. Buy a developer a beer!
