                               Psi4 1.8.2 release

  ==> Input File <==

--------------------------------------------------------------------------
MEMORY 60 GB

molecule dimer {
-1 1
F          0.000000     0.000000     0.000000
O         -1.152877     0.775210     2.799095
H         -0.979389     1.239914     2.012069
H         -1.986909     0.379505     2.526794
O          0.232176     1.587663    -2.218403
H          0.383176     1.242774    -3.150384
H         -0.060341     0.843167    -1.615248
O         -0.940436    -2.154740    -1.299584
H         -0.646049    -1.333314    -0.867497
H         -0.799171    -2.106453    -2.243974
O          2.111858     1.605694     0.351401
H          1.676845     2.494260     0.345983
H          1.413769     0.958707     0.234089
O          2.320272    -1.659046    -0.126921
H          1.601597    -1.085618    -0.253150
H          2.844791    -1.412144     0.605145
O         -1.080869     2.845321     0.665618
H         -0.525904     3.388483     0.014643
H         -1.193445     1.947137     0.396901

units ang
no_reorient
no_com
symmetry c1
}

set {
basis        aug-cc-pVTZ
scf_type     df
}

energy("mp2")
--------------------------------------------------------------------------

    Molecular point group: c1

    Geometry (in Angstrom), charge = -1, multiplicity = 1:

       Center              X                  Y                   Z               Mass
    ------------   -----------------  -----------------  -----------------  -----------------
         F            0.000000000000     0.000000000000     0.000000000000    18.998403162730
         O           -1.152877000000     0.775210000000     2.799095000000    15.994914619570
         H           -0.979389000000     1.239914000000     2.012069000000     1.007825032230
         H           -1.986909000000     0.379505000000     2.526794000000     1.007825032230
         O            0.232176000000     1.587663000000    -2.218403000000    15.994914619570
         H            0.383176000000     1.242774000000    -3.150384000000     1.007825032230
         H           -0.060341000000     0.843167000000    -1.615248000000     1.007825032230
         O           -0.940436000000    -2.154740000000    -1.299584000000    15.994914619570
         H           -0.646049000000    -1.333314000000    -0.867497000000     1.007825032230
         H           -0.799171000000    -2.106453000000    -2.243974000000     1.007825032230
         O            2.111858000000     1.605694000000     0.351401000000    15.994914619570
         H            1.676845000000     2.494260000000     0.345983000000     1.007825032230
         H            1.413769000000     0.958707000000     0.234089000000     1.007825032230
         O            2.320272000000    -1.659046000000    -0.126921000000    15.994914619570
         H            1.601597000000    -1.085618000000    -0.253150000000     1.007825032230
         H            2.844791000000    -1.412144000000     0.605145000000     1.007825032230
         O           -1.080869000000     2.845321000000     0.665618000000    15.994914619570
         H           -0.525904000000     3.388483000000     0.014643000000     1.007825032230
         H           -1.193445000000     1.947137000000     0.396901000000     1.007825032230

  Charge       = -1
  Multiplicity = 1
  Basis Set: AUG-CC-PVTZ
    Blend: AUG-CC-PVTZ
  Basis Set: (AUG-CC-PVTZ AUX)
    Blend: AUG-CC-PVTZ-JKFIT

    Orbital Energies [Eh]
    ---------------------

    Doubly Occupied:

       1A    -25.999910     2A    -20.443706     3A    -20.424433
       4A    -20.417667     5A    -20.397549     6A    -20.389030
       7A    -20.387030     8A     -1.269579     9A     -1.223361
      10A     -1.212665    11A     -1.194297    12A     -1.184207
      13A     -1.182117    14A     -1.166781    15A     -0.610166
      16A     -0.583654    17A     -0.568179    18A     -0.565634
      19A     -0.558203    20A     -0.542615    21A     -0.457010
      22A     -0.450419    23A     -0.431694    24A     -0.422795
      25A     -0.415457    26A     -0.412373    27A     -0.385220
      28A     -0.372221    29A     -0.364537    30A     -0.360818
      31A     -0.349613    32A     -0.346152    33A     -0.343445
      34A     -0.340936    35A     -0.329532

  @DF-RHF Final Energy:  -555.90245494782937

   => Energetics <=

    Nuclear Repulsion Energy =            357.1333957955784513
    One-Electron Energy =               -1493.8656783332937721
    Two-Electron Energy =                 580.8298275898858947
    Total Energy =                       -555.9024549478293693
 Dipole X            :        -26.8094793           25.7946898           -1.0147895
 Dipole Y            :        -57.4743933           57.7448034            0.2704101
 Dipole Z            :         -0.0531534           -1.1810429           -1.2341963
 Magnitude           :                                                    1.6205431
  Basis Set: (AUG-CC-PVTZ AUX)
    Blend: AUG-CC-PVTZ-RI
	 Reference Energy          =    -555.9024549478293693 [Eh]
	 Singles Energy            =      -0.0000000000000000 [Eh]
	 Same-Spin Energy          =      -0.5033130788024546 [Eh]
	 Opposite-Spin Energy      =      -1.5340294677113724 [Eh]
	 Correlation Energy        =      -2.0373425465138268 [Eh]
	 Total Energy              =    -557.9397974943432246 [Eh]

	 ================> DF-SCS-MP2 Energies <==================
	-----------------------------------------------------------
	 SCS Same-Spin Scale       =       0.3333333333333333 [-]
	 SCS Opposite-Spin Scale   =       1.2000000000000000 [-]
	 SCS Same-Spin Energy      =      -0.1677710262674849 [Eh]
	 SCS Opposite-Spin Energy  =      -1.8408353612536468 [Eh]
	 SCS Correlation Energy    =      -2.0086063875211315 [Eh]
	 SCS Total Energy          =    -557.9110613353504959 [Eh]
	-----------------------------------------------------------

*** Psi4 exiting successfully. Buy a developer a beer!
