                               Psi4 1.8.2 release

  ==> Input File <==

--------------------------------------------------------------------------
MEMORY 60 GB

molecule dimer {
-1 1
F          0.000000     0.000000     0.000000
O         -1.206754     1.445995    -2.000126
H         -0.743175     0.893122    -1.337335
H         -0.759524     1.330264    -2.863753
O          1.095483    -0.322767     2.616674
H          0.673548    -0.212929     1.764286
H          0.520481     0.121453     3.208852
O         -2.290620    -0.209671     1.348500
H         -2.963418    -0.750440     0.872484
H         -1.471779    -0.213731     0.855990
O          0.125449     2.911282     1.072482
H         -0.291998     2.122485     1.520867
H          0.238880     2.637426     0.191158
O          0.042032    -2.844174    -0.084119
H         -0.661379    -3.010993     0.545538
H          0.052740    -1.870059    -0.098146
O          2.622328     0.650013    -0.846197
H          1.754348     0.759921    -0.394475
H          2.674742     1.478542    -1.440090

units ang
no_reorient
no_com
symmetry c1
}

set {
basis        aug-cc-pVTZ
scf_type     df
}

energy("mp2")
--------------------------------------------------------------------------

    Molecular point group: c1

    Geometry (in Angstrom), charge = -1, multiplicity = 1:

       Center              X                  Y                   Z               Mass
    ------------   -----------------  -----------------  -----------------  -----------------
         F            0.000000000000     0.000000000000     0.000000000000    18.998403162730
         O           -1.206754000000     1.445995000000    -2.000126000000    15.994914619570
         H           -0.743175000000     0.893122000000    -1.337335000000     1.007825032230
         H           -0.759524000000     1.330264000000    -2.863753000000     1.007825032230
         O            1.095483000000    -0.322767000000     2.616674000000    15.994914619570
         H            0.673548000000    -0.212929000000     1.764286000000     1.007825032230
         H            0.520481000000     0.121453000000     3.208852000000     1.007825032230
         O           -2.290620000000    -0.209671000000     1.348500000000    15.994914619570
         H           -2.963418000000    -0.750440000000     0.872484000000     1.007825032230
         H           -1.471779000000    -0.213731000000     0.855990000000     1.007825032230
         O            0.125449000000     2.911282000000     1.072482000000    15.994914619570
         H           -0.291998000000     2.122485000000     1.520867000000     1.007825032230
         H            0.238880000000     2.637426000000     0.191158000000     1.007825032230
         O            0.042032000000    -2.844174000000    -0.084119000000    15.994914619570
         H           -0.661379000000    -3.010993000000     0.545538000000     1.007825032230
         H            0.052740000000    -1.870059000000    -0.098146000000     1.007825032230
         O            2.622328000000     0.650013000000    -0.846197000000    15.994914619570
         H            1.754348000000     0.759921000000    -0.394475000000     1.007825032230
         H            2.674742000000     1.478542000000    -1.440090000000     1.007825032230

  Charge       = -1
  Multiplicity = 1
  Basis Set: AUG-CC-PVTZ
    Blend: AUG-CC-PVTZ
  Basis Set: (AUG-CC-PVTZ AUX)
    Blend: AUG-CC-PVTZ-JKFIT

    Orbital Energies [Eh]
    ---------------------

    Doubly Occupied:

       1A    -26.018431     2A    -20.426356     3A    -20.424191
       4A    -20.418598     5A    -20.415163     6A    -20.408530
       7A    -20.407897     8A     -1.288883     9A     -1.210875
      10A     -1.204930    11A     -1.196287    12A     -1.193770
      13A     -1.192735    14A     -1.183434    15A     -0.582400
      16A     -0.576417    17A     -0.573219    18A     -0.566506
      19A     -0.551601    20A     -0.544193    21A     -0.454191
      22A     -0.447107    23A     -0.441163    24A     -0.436611
      25A     -0.433402    26A     -0.431313    27A     -0.377375
      28A     -0.374874    29A     -0.372015    30A     -0.370809
      31A     -0.361793    32A     -0.358859    33A     -0.357449
      34A     -0.354500    35A     -0.351203

  @DF-RHF Final Energy:  -555.92548693677873

   => Energetics <=

    Nuclear Repulsion Energy =            353.6699225995975553
    One-Electron Energy =               -1486.5766479343008086
    Two-Electron Energy =                 576.9812383979244714
    Total Energy =                       -555.9254869367787251
 Dipole X            :         -5.0177213            4.0190884           -0.9986329
 Dipole Y            :        -30.9510211           30.8601441           -0.0908769
 Dipole Z            :        -38.2423202           37.1956456           -1.0466746
 Magnitude           :                                                    1.4495013
  Basis Set: (AUG-CC-PVTZ AUX)
    Blend: AUG-CC-PVTZ-RI
	 Reference Energy          =    -555.9254869367787251 [Eh]
	 Singles Energy            =      -0.0000000000000000 [Eh]
	 Same-Spin Energy          =      -0.5030261337727334 [Eh]
	 Opposite-Spin Energy      =      -1.5351381788856002 [Eh]
	 Correlation Energy        =      -2.0381643126583335 [Eh]
	 Total Energy              =    -557.9636512494370209 [Eh]

	 ================> DF-SCS-MP2 Energies <==================
	-----------------------------------------------------------
	 SCS Same-Spin Scale       =       0.3333333333333333 [-]
	 SCS Opposite-Spin Scale   =       1.2000000000000000 [-]
	 SCS Same-Spin Energy      =      -0.1676753779242445 [Eh]
	 SCS Opposite-Spin Energy  =      -1.8421658146627202 [Eh]
	 SCS Correlation Energy    =      -2.0098411925869648 [Eh]
	 SCS Total Energy          =    -557.9353281293656437 [Eh]
	-----------------------------------------------------------

*** Psi4 exiting successfully. Buy a developer a beer!
