                               Psi4 1.8.2 release

  ==> Input File <==

--------------------------------------------------------------------------
MEMORY 60 GB

molecule dimer {
0 1
Gh(F)      0.000000     0.000000     0.000000
Gh(O)      1.549726    -0.592173    -2.469497
Gh(H)      2.491955    -0.304027    -2.354979
Gh(H)      1.059966    -0.129118    -1.739114
Gh(O)     -2.109158     0.552064     1.527417
Gh(H)     -1.303685     0.262813     1.105559
Gh(H)     -2.150940     1.467686     1.236099
O         -0.658953     2.609487    -0.786580
H         -0.277803     1.841298    -0.414688
H         -1.429545     2.816178    -0.200283
Gh(O)      1.311910    -1.653315     1.534469
Gh(H)      0.833433    -0.988070     1.037024
Gh(H)      0.695205    -2.456602     1.463667
Gh(O)     -1.617297    -0.996617    -2.102888
Gh(H)     -1.802101    -0.062886    -2.375282
Gh(H)     -1.153428    -0.952167    -1.276978

units ang
no_reorient
no_com
symmetry c1
}

set {
basis        aug-cc-pVTZ
scf_type     df
}

energy("mp2")
--------------------------------------------------------------------------

    Molecular point group: c1

    Geometry (in Angstrom), charge = 0, multiplicity = 1:

       Center              X                  Y                   Z               Mass
    ------------   -----------------  -----------------  -----------------  -----------------
      Gh(F)           0.000000000000     0.000000000000     0.000000000000    18.998403162730
      Gh(O)           1.549726000000    -0.592173000000    -2.469497000000    15.994914619570
      Gh(H)           2.491955000000    -0.304027000000    -2.354979000000     1.007825032230
      Gh(H)           1.059966000000    -0.129118000000    -1.739114000000     1.007825032230
      Gh(O)          -2.109158000000     0.552064000000     1.527417000000    15.994914619570
      Gh(H)          -1.303685000000     0.262813000000     1.105559000000     1.007825032230
      Gh(H)          -2.150940000000     1.467686000000     1.236099000000     1.007825032230
         O           -0.658953000000     2.609487000000    -0.786580000000    15.994914619570
         H           -0.277803000000     1.841298000000    -0.414688000000     1.007825032230
         H           -1.429545000000     2.816178000000    -0.200283000000     1.007825032230
      Gh(O)           1.311910000000    -1.653315000000     1.534469000000    15.994914619570
      Gh(H)           0.833433000000    -0.988070000000     1.037024000000     1.007825032230
      Gh(H)           0.695205000000    -2.456602000000     1.463667000000     1.007825032230
      Gh(O)          -1.617297000000    -0.996617000000    -2.102888000000    15.994914619570
      Gh(H)          -1.802101000000    -0.062886000000    -2.375282000000     1.007825032230
      Gh(H)          -1.153428000000    -0.952167000000    -1.276978000000     1.007825032230

  Charge       = 0
  Multiplicity = 1
  Basis Set: AUG-CC-PVTZ
    Blend: AUG-CC-PVTZ
  Basis Set: (AUG-CC-PVTZ AUX)
    Blend: AUG-CC-PVTZ-JKFIT

    Orbital Energies [Eh]
    ---------------------

    Doubly Occupied:

       1A    -20.567740     2A     -1.351473     3A     -0.715495
       4A     -0.583289     5A     -0.509914

  @DF-RHF Final Energy:   -76.05884943530103

   => Energetics <=

    Nuclear Repulsion Energy =              9.1520966410656879
    One-Electron Energy =                -122.9660656576977971
    Two-Electron Energy =                  37.7551195813310727
    Total Energy =                        -76.0588494353010418
 Dipole X            :         12.9375125          -13.1883457           -0.2508332
 Dipole Y            :        -48.6298929           48.2510801           -0.3788128
 Dipole Z            :         13.6881997          -13.0534930            0.6347068
 Magnitude           :                                                    0.7805569
  Basis Set: (AUG-CC-PVTZ AUX)
    Blend: AUG-CC-PVTZ-RI
	 Reference Energy          =     -76.0588494353010276 [Eh]
	 Singles Energy            =      -0.0000000000000000 [Eh]
	 Same-Spin Energy          =      -0.0684944628724339 [Eh]
	 Opposite-Spin Energy      =      -0.2164353514530338 [Eh]
	 Correlation Energy        =      -0.2849298143254676 [Eh]
	 Total Energy              =     -76.3437792496264933 [Eh]

	 ================> DF-SCS-MP2 Energies <==================
	-----------------------------------------------------------
	 SCS Same-Spin Scale       =       0.3333333333333333 [-]
	 SCS Opposite-Spin Scale   =       1.2000000000000000 [-]
	 SCS Same-Spin Energy      =      -0.0228314876241446 [Eh]
	 SCS Opposite-Spin Energy  =      -0.2597224217436405 [Eh]
	 SCS Correlation Energy    =      -0.2825539093677851 [Eh]
	 SCS Total Energy          =     -76.3414033446688194 [Eh]
	-----------------------------------------------------------

*** Psi4 exiting successfully. Buy a developer a beer!
