                               Psi4 1.9 release

  ==> Input File <==

--------------------------------------------------------------------------
MEMORY 60 GB

molecule dimer {
-1 1
F      0.000000     0.000000     0.000000
--
0 1
O      0.544622     1.947141    -1.930994
H     -0.303699     2.411400    -1.706903
H      0.604706     1.172877    -1.303359
O     -2.128467     0.389057     1.730632
H     -1.379894     0.192361     1.173874
H     -1.919456     0.067224     2.612103
O     -0.085529    -2.704846    -1.508295
H     -0.656689    -3.406752    -1.099236
H     -0.267173    -1.961465    -0.940136
O      1.549814     1.756379     1.450147
H      1.046493     1.052841     1.074196
H      1.497360     2.437675     0.800406
O     -2.175092    -0.185080    -1.433318
H     -2.620425     0.653858    -1.755423
H     -1.332482     0.046421    -1.015543

units ang
no_reorient
no_com
symmetry c1
}

set {
basis        aug-cc-pVTZ
scf_type     df
}

energy("mp2", bsse_type="cp")
--------------------------------------------------------------------------

                               Psi4 1.9 release
    Molecular point group: c1
  Charge       = 0
  Multiplicity = 1
  Basis Set: AUG-CC-PVTZ
    Blend: AUG-CC-PVTZ
  Basis Set: (AUG-CC-PVTZ AUX)
    Blend: AUG-CC-PVTZ-JKFIT
  @DF-RHF Final Energy:  -380.27295763833934
    Total Energy =                       -380.2729576383393351
 Dipole X            :         44.1765028          -44.7647301           -0.5882273
 Dipole Y            :        -22.9923718           23.2202894            0.2279176
 Dipole Z            :         30.3355164          -29.6585807            0.6769357
 Magnitude           :                                                    0.9253106
  Basis Set: (AUG-CC-PVTZ AUX)
    Blend: AUG-CC-PVTZ-RI
	 Reference Energy          =    -380.2729576383393351 [Eh]
	 Singles Energy            =      -0.0000000000000000 [Eh]
	 Same-Spin Energy          =      -0.3458816109418086 [Eh]
	 Opposite-Spin Energy      =      -1.0873860531518940 [Eh]
	 Correlation Energy        =      -1.4332676640937025 [Eh]
	 Total Energy              =    -381.7062253024330403 [Eh]
	 SCS Total Energy          =    -381.6931147724355355 [Eh]
                               Psi4 1.9 release
    Molecular point group: c1
  Multiplicity = 1
  Basis Set: AUG-CC-PVTZ
    Blend: AUG-CC-PVTZ
  Basis Set: (AUG-CC-PVTZ AUX)
    Blend: AUG-CC-PVTZ-JKFIT
  @DF-RHF Final Energy:   -99.45112010087313
    Total Energy =                        -99.4511201008731263
  Basis Set: (AUG-CC-PVTZ AUX)
	 Singles Energy            =      -0.0000000000000000 [Eh]
	 Same-Spin Energy          =      -0.0820608319214443 [Eh]
	 Opposite-Spin Energy      =      -0.2302405304656099 [Eh]
	 Correlation Energy        =      -0.3123013623870542 [Eh]
	 Total Energy              =     -99.7634214632601868 [Eh]
	 SCS Total Energy          =     -99.7547623480723331 [Eh]
                               Psi4 1.9 release
    Molecular point group: c1

    Geometry (in Bohr), charge = -1, multiplicity = 1:

       Center              X                  Y                   Z               Mass
    ------------   -----------------  -----------------  -----------------  -----------------
         F            0.000000000000     0.000000000000     0.000000000000    18.998403162730
         O            1.029186421899     3.679563217650    -3.649049809902    15.994914619570
         H           -0.573907934575     4.556885578929    -3.225579192722     1.007825032230
         H            1.142728726421     2.216416308849    -2.462991553151     1.007825032230
         O           -4.022219697075     0.735211177192     3.270420503953    15.994914619570
         H           -2.607621742163     0.363509607219     2.218300365796     1.007825032230
         H           -3.627246149867     0.127034949058     4.936159281487     1.007825032230
         O           -0.161626385784    -5.111418151540    -2.850264466397    15.994914619570
         H           -1.240962359601    -6.437828257356    -2.077254987244     1.007825032230
         H           -0.504883798117    -3.706631654671    -1.776599560683     1.007825032230
         O            2.928724005400     3.319075282505     2.740380671654    15.994914619570
         H            1.977585162209     1.989581143653     2.029936245062     1.007825032230
         H            2.829600311216     4.606538132875     1.512548129173     1.007825032230
         O           -4.110328177674    -0.349750511300    -2.708578470689    15.994914619570
         H           -4.951885582303     1.235612544940    -3.317268704330     1.007825032230
         H           -2.518026047102     0.087722976470    -1.919098138626     1.007825032230

  Charge       = -1
  Multiplicity = 1
  Basis Set: AUG-CC-PVTZ
    Blend: AUG-CC-PVTZ
  Basis Set: (AUG-CC-PVTZ AUX)
    Blend: AUG-CC-PVTZ-JKFIT

    Orbital Energies [Eh]
    ---------------------

    Doubly Occupied:

       1A    -25.997250     2A    -20.415989     3A    -20.413372
       4A    -20.398263     5A    -20.394545     6A    -20.390962
       7A     -1.267304     8A     -1.194984     9A     -1.193798
      10A     -1.187102    11A     -1.178739    12A     -1.163273
      13A     -0.565633    14A     -0.563256    15A     -0.552839
      16A     -0.548688    17A     -0.540445    18A     -0.441306
      19A     -0.436137    20A     -0.432707    21A     -0.423104
      22A     -0.406116    23A     -0.360221    24A     -0.358172
      25A     -0.353629    26A     -0.352333    27A     -0.347018
      28A     -0.345607    29A     -0.342410    30A     -0.329400

  @DF-RHF Final Energy:  -479.85405965006669

   => Energetics <=

    Nuclear Repulsion Energy =            265.9972967135751105
    One-Electron Energy =               -1205.9135005870380155
    Two-Electron Energy =                 460.0621442233962171
    Total Energy =                       -479.8540596500666879
 Dipole X            :         44.6479024          -44.7647301           -0.1168277
 Dipole Y            :        -23.3823909           23.2202894           -0.1621015
 Dipole Z            :         30.5466127          -29.6585807            0.8880320
 Magnitude           :                                                    0.9102342
  Basis Set: (AUG-CC-PVTZ AUX)
    Blend: AUG-CC-PVTZ-RI
	 Reference Energy          =    -479.8540596500666879 [Eh]
	 Singles Energy            =      -0.0000000000000000 [Eh]
	 Same-Spin Energy          =      -0.4330957617615255 [Eh]
	 Opposite-Spin Energy      =      -1.3165037726509476 [Eh]
	 Correlation Energy        =      -1.7495995344124733 [Eh]
	 Total Energy              =    -481.6036591844791701 [Eh]

	 ================> DF-SCS-MP2 Energies <==================
	-----------------------------------------------------------
	 SCS Same-Spin Scale       =       0.3333333333333333 [-]
	 SCS Opposite-Spin Scale   =       1.2000000000000000 [-]
	 SCS Same-Spin Energy      =      -0.1443652539205085 [Eh]
	 SCS Opposite-Spin Energy  =      -1.5798045271811372 [Eh]
	 SCS Correlation Energy    =      -1.7241697811016456 [Eh]
	 SCS Total Energy          =    -481.5782294311683245 [Eh]
	-----------------------------------------------------------

*** Psi4 exiting successfully. Buy a developer a beer!
