                               Psi4 1.8.2 release

  ==> Input File <==

--------------------------------------------------------------------------
MEMORY 60 GB

molecule dimer {
-1 1
F          0.000000     0.000000     0.000000
Gh(O)      2.677680    -0.431683     0.982344
Gh(H)      2.933162     0.317043     0.487951
Gh(H)      1.708005    -0.404595     0.837210
Gh(O)      1.576856    -0.040462    -2.621091
Gh(H)      2.404113    -0.374615    -2.443570
Gh(H)      1.025387    -0.010348    -1.815928
Gh(O)     -2.450615     0.572312     1.271496
Gh(H)     -1.576686     0.559397     0.900868
Gh(H)     -2.799350     1.506271     1.234932
Gh(O)      0.318935     2.917871     0.285605
Gh(H)      0.929765     3.196369     1.002172
Gh(H)      0.243820     1.921280     0.350783
Gh(O)     -1.632182    -0.210996    -2.315884
Gh(H)     -1.059865    -0.204007    -1.547666
Gh(H)     -1.569097     0.672687    -2.721168
Gh(O)     -0.849068    -2.951308     0.210019
Gh(H)     -0.770250    -1.966145     0.116227
Gh(H)     -0.630310    -3.256642    -0.643333

units ang
no_reorient
no_com
symmetry c1
}

set {
basis        aug-cc-pVTZ
scf_type     df
}

energy("mp2")
--------------------------------------------------------------------------

    Molecular point group: c1

    Geometry (in Angstrom), charge = -1, multiplicity = 1:

       Center              X                  Y                   Z               Mass
    ------------   -----------------  -----------------  -----------------  -----------------
         F            0.000000000000     0.000000000000     0.000000000000    18.998403162730
      Gh(O)           2.677680000000    -0.431683000000     0.982344000000    15.994914619570
      Gh(H)           2.933162000000     0.317043000000     0.487951000000     1.007825032230
      Gh(H)           1.708005000000    -0.404595000000     0.837210000000     1.007825032230
      Gh(O)           1.576856000000    -0.040462000000    -2.621091000000    15.994914619570
      Gh(H)           2.404113000000    -0.374615000000    -2.443570000000     1.007825032230
      Gh(H)           1.025387000000    -0.010348000000    -1.815928000000     1.007825032230
      Gh(O)          -2.450615000000     0.572312000000     1.271496000000    15.994914619570
      Gh(H)          -1.576686000000     0.559397000000     0.900868000000     1.007825032230
      Gh(H)          -2.799350000000     1.506271000000     1.234932000000     1.007825032230
      Gh(O)           0.318935000000     2.917871000000     0.285605000000    15.994914619570
      Gh(H)           0.929765000000     3.196369000000     1.002172000000     1.007825032230
      Gh(H)           0.243820000000     1.921280000000     0.350783000000     1.007825032230
      Gh(O)          -1.632182000000    -0.210996000000    -2.315884000000    15.994914619570
      Gh(H)          -1.059865000000    -0.204007000000    -1.547666000000     1.007825032230
      Gh(H)          -1.569097000000     0.672687000000    -2.721168000000     1.007825032230
      Gh(O)          -0.849068000000    -2.951308000000     0.210019000000    15.994914619570
      Gh(H)          -0.770250000000    -1.966145000000     0.116227000000     1.007825032230
      Gh(H)          -0.630310000000    -3.256642000000    -0.643333000000     1.007825032230

  Charge       = -1
  Multiplicity = 1
  Basis Set: AUG-CC-PVTZ
    Blend: AUG-CC-PVTZ
  Basis Set: (AUG-CC-PVTZ AUX)
    Blend: AUG-CC-PVTZ-JKFIT

    Orbital Energies [Eh]
    ---------------------

    Doubly Occupied:

       1A    -25.833509     2A     -1.075870     3A     -0.180910
       4A     -0.180899     5A     -0.180877

  @DF-RHF Final Energy:   -99.45113803156806

   => Energetics <=

    Nuclear Repulsion Energy =              0.0000000000000000
    One-Electron Energy =                -143.9981389201306001
    Two-Electron Energy =                  44.5470008885625290
    Total Energy =                        -99.4511380315680640
 Dipole X            :         -0.0000024            0.0000000           -0.0000024
 Dipole Y            :          0.0000615            0.0000000            0.0000615
 Dipole Z            :         -0.0000957            0.0000000           -0.0000957
 Magnitude           :                                                    0.0001138
  Basis Set: (AUG-CC-PVTZ AUX)
    Blend: AUG-CC-PVTZ-RI
	 Reference Energy          =     -99.4511380315680640 [Eh]
	 Singles Energy            =      -0.0000000000000000 [Eh]
	 Same-Spin Energy          =      -0.0820468729427098 [Eh]
	 Opposite-Spin Energy      =      -0.2299556527779042 [Eh]
	 Correlation Energy        =      -0.3120025257206140 [Eh]
	 Total Energy              =     -99.7631405572886791 [Eh]

	 ================> DF-SCS-MP2 Energies <==================
	-----------------------------------------------------------
	 SCS Same-Spin Scale       =       0.3333333333333333 [-]
	 SCS Opposite-Spin Scale   =       1.2000000000000000 [-]
	 SCS Same-Spin Energy      =      -0.0273489576475699 [Eh]
	 SCS Opposite-Spin Energy  =      -0.2759467833334850 [Eh]
	 SCS Correlation Energy    =      -0.3032957409810549 [Eh]
	 SCS Total Energy          =     -99.7544337725491204 [Eh]
	-----------------------------------------------------------

*** Psi4 exiting successfully. Buy a developer a beer!
