                               Psi4 1.9 release

  ==> Input File <==

--------------------------------------------------------------------------
MEMORY 60 GB

molecule dimer {
-1 1
F      0.000000     0.000000     0.000000
--
0 1
O      2.385569     0.742591     1.674951
H      1.619624     0.724586     1.100121
H      2.424688    -0.125409     2.056396
O     -0.239041    -2.096331    -1.876795
H      0.025958    -2.893733    -1.489325
H     -0.471491    -1.429774    -1.203876
O      0.205984    -2.249977     1.611546
H     -0.314760    -2.967836     1.148222
H      0.191515    -1.386093     1.171929
O     -1.908189     0.748542     1.890951
H     -1.585089     1.599532     2.357873
H     -1.246971     0.562129     1.226859
O     -0.543220     2.567600    -0.603874
H     -0.100372     1.702524    -0.500902
H     -1.436617     2.597652    -0.284137
O      2.601881     0.224157    -1.352015
H      1.685409     0.167066    -1.062671
H      2.612419     0.812342    -2.122170

units ang
no_reorient
no_com
symmetry c1
}

set {
basis        aug-cc-pVTZ
scf_type     df
}

energy("mp2", bsse_type="cp")
--------------------------------------------------------------------------

                               Psi4 1.9 release
    Molecular point group: c1
  Charge       = 0
  Multiplicity = 1
  Basis Set: AUG-CC-PVTZ
    Blend: AUG-CC-PVTZ
  Basis Set: (AUG-CC-PVTZ AUX)
    Blend: AUG-CC-PVTZ-JKFIT
  @DF-RHF Final Energy:  -456.32162709053966
    Total Energy =                       -456.3216270905396641
 Dipole X            :        -45.2560782           44.2728533           -0.9832249
 Dipole Y            :          1.7795380           -2.1625232           -0.3829853
 Dipole Z            :        -25.0029612           24.8620514           -0.1409098
 Magnitude           :                                                    1.0645490
  Basis Set: (AUG-CC-PVTZ AUX)
    Blend: AUG-CC-PVTZ-RI
	 Reference Energy          =    -456.3216270905396641 [Eh]
	 Singles Energy            =      -0.0000000000000000 [Eh]
	 Same-Spin Energy          =      -0.4150322120570992 [Eh]
	 Opposite-Spin Energy      =      -1.3040477328635391 [Eh]
	 Correlation Energy        =      -1.7190799449206384 [Eh]
	 Total Energy              =    -458.0407070354602865 [Eh]
	 SCS Total Energy          =    -458.0248284406616222 [Eh]
                               Psi4 1.9 release
    Molecular point group: c1
  Multiplicity = 1
  Basis Set: AUG-CC-PVTZ
    Blend: AUG-CC-PVTZ
  Basis Set: (AUG-CC-PVTZ AUX)
    Blend: AUG-CC-PVTZ-JKFIT
  @DF-RHF Final Energy:   -99.45115387231836
    Total Energy =                        -99.4511538723183435
  Basis Set: (AUG-CC-PVTZ AUX)
	 Singles Energy            =      -0.0000000000000000 [Eh]
	 Same-Spin Energy          =      -0.0820841331302071 [Eh]
	 Opposite-Spin Energy      =      -0.2303290167603674 [Eh]
	 Correlation Energy        =      -0.3124131498905745 [Eh]
	 Total Energy              =     -99.7635670222089317 [Eh]
	 SCS Total Energy          =     -99.7549100701408662 [Eh]
                               Psi4 1.9 release
    Molecular point group: c1

    Geometry (in Bohr), charge = -1, multiplicity = 1:

       Center              X                  Y                   Z               Mass
    ------------   -----------------  -----------------  -----------------  -----------------
         F            0.000000000000     0.000000000000     0.000000000000    18.998403162730
         O            4.508072063382     1.403293613230     3.165198663562    15.994914619570
         H            3.060645786219     1.369269094341     2.078927394865     1.007825032230
         H            4.581996259684    -0.236988663668     3.886025245487     1.007825032230
         O           -0.451722022756    -3.961491458307    -3.546628543629    15.994914619570
         H            0.049053510765    -5.468362850199    -2.814416361797     1.007825032230
         H           -0.890988860618    -2.701881281300    -2.274995929012     1.007825032230
         O            0.389253346226    -4.251840318579     3.045380578577    15.994914619570
         H           -0.594810195249    -5.608397225274     2.169825111225     1.007825032230
         H            0.361910898917    -2.619336154414     2.214624848482     1.007825032230
         O           -3.605954605611     1.414539373402     3.573379506661    15.994914619570
         H           -2.995384094476     3.022677408906     4.455734208612     1.007825032230
         H           -2.356433676388     1.062269857177     2.318427504553     1.007825032230
         O           -1.026537025871     4.852060799726    -1.141156474285    15.994914619570
         H           -0.189675590664     3.217304082019    -0.946567595694     1.007825032230
         H           -2.714812677177     4.908850849248    -0.536941112109     1.007825032230
         O            4.916842501032     0.423595339104    -2.554938067511    15.994914619570
         H            3.184961419382     0.315708984876    -2.008157151466     1.007825032230
         H            4.936756434942     1.535103900207    -4.010320091663     1.007825032230

  Charge       = -1
  Multiplicity = 1
  Basis Set: AUG-CC-PVTZ
    Blend: AUG-CC-PVTZ
  Basis Set: (AUG-CC-PVTZ AUX)
    Blend: AUG-CC-PVTZ-JKFIT

    Orbital Energies [Eh]
    ---------------------

    Doubly Occupied:

       1A    -26.019153     2A    -20.419211     3A    -20.415662
       4A    -20.412590     5A    -20.409445     6A    -20.405538
       7A    -20.402553     8A     -1.288690     9A     -1.206353
      10A     -1.198104    11A     -1.191788    12A     -1.189605
      13A     -1.187248    14A     -1.185502    15A     -0.591854
      16A     -0.584831    17A     -0.576158    18A     -0.570756
      19A     -0.560511    20A     -0.555664    21A     -0.447878
      22A     -0.437736    23A     -0.435013    24A     -0.429328
      25A     -0.423566    26A     -0.413511    27A     -0.377808
      28A     -0.377297    29A     -0.366105    30A     -0.362013
      31A     -0.360303    32A     -0.356975    33A     -0.355273
      34A     -0.349528    35A     -0.344134

  @DF-RHF Final Energy:  -555.92140323246292

   => Energetics <=

    Nuclear Repulsion Energy =            355.6803433434863564
    One-Electron Energy =               -1490.7881152539637242
    Two-Electron Energy =                 579.1863686780144462
    Total Energy =                       -555.9214032324629216
 Dipole X            :        -45.4089540           44.2728533           -1.1361008
 Dipole Y            :          1.7577573           -2.1625232           -0.4047659
 Dipole Z            :        -25.2046429           24.8620514           -0.3425915
 Magnitude           :                                                    1.2537660
  Basis Set: (AUG-CC-PVTZ AUX)
    Blend: AUG-CC-PVTZ-RI
	 Reference Energy          =    -555.9214032324629216 [Eh]
	 Singles Energy            =      -0.0000000000000000 [Eh]
	 Same-Spin Energy          =      -0.5026170207135744 [Eh]
	 Opposite-Spin Energy      =      -1.5328957909188201 [Eh]
	 Correlation Energy        =      -2.0355128116323944 [Eh]
	 Total Energy              =    -557.9569160440953510 [Eh]

	 ================> DF-SCS-MP2 Energies <==================
	-----------------------------------------------------------
	 SCS Same-Spin Scale       =       0.3333333333333333 [-]
	 SCS Opposite-Spin Scale   =       1.2000000000000000 [-]
	 SCS Same-Spin Energy      =      -0.1675390069045248 [Eh]
	 SCS Opposite-Spin Energy  =      -1.8394749491025841 [Eh]
	 SCS Correlation Energy    =      -2.0070139560071087 [Eh]
	 SCS Total Energy          =    -557.9284171884700072 [Eh]
	-----------------------------------------------------------

*** Psi4 exiting successfully. Buy a developer a beer!
