                               Psi4 1.9 release

  ==> Input File <==

--------------------------------------------------------------------------
MEMORY 60 GB

molecule dimer {
-1 1
F      0.000000     0.000000     0.000000
--
0 1
O     -2.647376     0.914762    -0.251552
H     -2.724907     1.246258     0.668792
H     -1.768244     0.552287    -0.448575
O      2.344109     1.471480    -1.315863
H      1.702060     0.829127    -1.080552
H      2.928848     0.990581    -1.983538
O      1.924891     0.054648     2.110672
H      1.521140     0.173109     1.252029
H      2.506830     0.824676     2.291779
O     -0.223065     2.710378     0.273811
H     -0.031508     3.416476     0.904629
H     -0.086383     1.892438     0.681794
O     -1.121683    -0.546957     2.492271
H     -1.661749     0.254121     2.719544
H     -0.707769    -0.349569     1.681775
O     -0.451478    -2.737344    -0.648176
H     -0.144278    -1.898170    -0.285256
H     -0.265446    -3.396720     0.044521

units ang
no_reorient
no_com
symmetry c1
}

set {
basis        aug-cc-pVTZ
scf_type     df
}

energy("mp2", bsse_type="cp")
--------------------------------------------------------------------------

                               Psi4 1.9 release
    Molecular point group: c1
  Charge       = 0
  Multiplicity = 1
  Basis Set: AUG-CC-PVTZ
    Blend: AUG-CC-PVTZ
  Basis Set: (AUG-CC-PVTZ AUX)
    Blend: AUG-CC-PVTZ-JKFIT
  @DF-RHF Final Energy:  -456.32616662978353
    Total Energy =                       -456.3261666297835291
 Dipole X            :          1.3489525           -0.2423045            1.1066481
 Dipole Y            :        -36.1986030           36.7936291            0.5950261
 Dipole Z            :        -51.6304683           52.4139087            0.7834404
 Magnitude           :                                                    1.4807109
  Basis Set: (AUG-CC-PVTZ AUX)
    Blend: AUG-CC-PVTZ-RI
	 Reference Energy          =    -456.3261666297835291 [Eh]
	 Singles Energy            =      -0.0000000000000000 [Eh]
	 Same-Spin Energy          =      -0.4147869455959164 [Eh]
	 Opposite-Spin Energy      =      -1.3030438254026153 [Eh]
	 Correlation Energy        =      -1.7178307709985319 [Eh]
	 Total Energy              =    -458.0439974007820751 [Eh]
	 SCS Total Energy          =    -458.0280815354653328 [Eh]
                               Psi4 1.9 release
    Molecular point group: c1
  Multiplicity = 1
  Basis Set: AUG-CC-PVTZ
    Blend: AUG-CC-PVTZ
  Basis Set: (AUG-CC-PVTZ AUX)
    Blend: AUG-CC-PVTZ-JKFIT
  @DF-RHF Final Energy:   -99.45114247368861
    Total Energy =                        -99.4511424736886056
  Basis Set: (AUG-CC-PVTZ AUX)
	 Singles Energy            =      -0.0000000000000000 [Eh]
	 Same-Spin Energy          =      -0.0820555025447505 [Eh]
	 Opposite-Spin Energy      =      -0.2300242528257850 [Eh]
	 Correlation Energy        =      -0.3120797553705356 [Eh]
	 Total Energy              =     -99.7632222290591386 [Eh]
	 SCS Total Energy          =     -99.7545234112611325 [Eh]
                               Psi4 1.9 release
    Molecular point group: c1

    Geometry (in Bohr), charge = -1, multiplicity = 1:

       Center              X                  Y                   Z               Mass
    ------------   -----------------  -----------------  -----------------  -----------------
         F            0.000000000000     0.000000000000     0.000000000000    18.998403162730
         O           -5.002815591110     1.728649649976    -0.475364386311    15.994914619570
         H           -5.149327947343     2.355086301661     1.263833714897     1.007825032230
         H           -3.341496882984     1.043671172651    -0.847683896727     1.007825032230
         O            4.429724018221     2.780694199089    -2.486620688623    15.994914619570
         H            3.216427249097     1.566822953222    -2.041947344316     1.007825032230
         H            5.534720583095     1.871926795082    -3.748343579438     1.007825032230
         O            3.637516811359     0.103269753304     3.988592020672    15.994914619570
         H            2.874537998479     0.327128599852     2.365991911131     1.007825032230
         H            4.737222143081     1.558411782238     4.330834650076     1.007825032230
         O           -0.421531758175     5.121872116466     0.517427800138    15.994914619570
         H           -0.059541490761     6.456203954200     1.709501055147     1.007825032230
         H           -0.163240211895     3.576189529409     1.288403933980     1.007825032230
         O           -2.119673669582    -1.033598932402     4.709709620421    15.994914619570
         H           -3.140250499253     0.480219092727     5.139193346132     1.007825032230
         H           -1.337489570089    -0.660589671950     3.178094154642     1.007825032230
         O           -0.853169771669    -5.172830471165    -1.224875121095    15.994914619570
         H           -0.272645905929    -3.587021439560    -0.539055715644     1.007825032230
         H           -0.501620241098    -6.418870524865     0.084132496832     1.007825032230

  Charge       = -1
  Multiplicity = 1
  Basis Set: AUG-CC-PVTZ
    Blend: AUG-CC-PVTZ
  Basis Set: (AUG-CC-PVTZ AUX)
    Blend: AUG-CC-PVTZ-JKFIT

    Orbital Energies [Eh]
    ---------------------

    Doubly Occupied:

       1A    -25.989601     2A    -20.427571     3A    -20.415085
       4A    -20.410126     5A    -20.403717     6A    -20.400964
       7A    -20.387571     8A     -1.255978     9A     -1.206005
      10A     -1.204469    11A     -1.195274    12A     -1.187639
      13A     -1.183893    14A     -1.163294    15A     -0.586159
      16A     -0.573997    17A     -0.566974    18A     -0.557467
      19A     -0.551440    20A     -0.549433    21A     -0.444298
      22A     -0.433787    23A     -0.428759    24A     -0.425603
      25A     -0.424650    26A     -0.401663    27A     -0.369745
      28A     -0.365437    29A     -0.361116    30A     -0.353062
      31A     -0.346149    32A     -0.345588    33A     -0.342391
      34A     -0.339746    35A     -0.327433

  @DF-RHF Final Energy:  -555.90483981451371

   => Energetics <=

    Nuclear Repulsion Energy =            355.3914349910335773
    One-Electron Energy =               -1490.7403785772519313
    Two-Electron Energy =                 579.4441037717047038
    Total Energy =                       -555.9048398145137071
 Dipole X            :          1.4383874           -0.2423045            1.1960829
 Dipole Y            :        -36.3647549           36.7936291            0.4288742
 Dipole Z            :        -52.0951476           52.4139087            0.3187610
 Magnitude           :                                                    1.3100214
  Basis Set: (AUG-CC-PVTZ AUX)
    Blend: AUG-CC-PVTZ-RI
	 Reference Energy          =    -555.9048398145137071 [Eh]
	 Singles Energy            =      -0.0000000000000000 [Eh]
	 Same-Spin Energy          =      -0.5022311714658751 [Eh]
	 Opposite-Spin Energy      =      -1.5334449381010644 [Eh]
	 Correlation Energy        =      -2.0356761095669396 [Eh]
	 Total Energy              =    -557.9405159240806142 [Eh]

	 ================> DF-SCS-MP2 Energies <==================
	-----------------------------------------------------------
	 SCS Same-Spin Scale       =       0.3333333333333333 [-]
	 SCS Opposite-Spin Scale   =       1.2000000000000000 [-]
	 SCS Same-Spin Energy      =      -0.1674103904886250 [Eh]
	 SCS Opposite-Spin Energy  =      -1.8401339257212772 [Eh]
	 SCS Correlation Energy    =      -2.0075443162099020 [Eh]
	 SCS Total Energy          =    -557.9123841307235807 [Eh]
	-----------------------------------------------------------

*** Psi4 exiting successfully. Buy a developer a beer!
