                               Psi4 1.8.2 release

  ==> Input File <==

--------------------------------------------------------------------------
MEMORY 60 GB

molecule dimer {
0 1
Gh(F)      0.000000     0.000000     0.000000
O         -1.091558    -1.809519     1.863944
H         -1.964939    -2.052092     1.500602
H         -0.591849    -1.199205     1.314271
Gh(O)      0.258123    -2.349417    -1.373394
Gh(H)      0.547624    -1.593259    -0.773108
Gh(H)     -0.646190    -2.478934    -1.244225
Gh(O)     -0.214660     2.146157     2.063174
Gh(H)     -0.165088     1.390555     1.502524
Gh(H)     -0.077747     1.856844     2.975158
Gh(O)     -2.197647     0.913173    -1.713640
Gh(H)     -2.446327     0.152611    -2.322329
Gh(H)     -2.435783     1.766268    -2.074757
Gh(O)      2.616092    -0.020543     0.476284
Gh(H)      1.590067     0.041365     0.327444
Gh(H)      2.682891    -0.935497     0.868501
Gh(O)     -2.727641     0.971623     1.032331
Gh(H)     -2.177883     0.803632     0.264595
Gh(H)     -2.164027     1.556644     1.587096
Gh(O)      0.756321     1.995676    -1.708341
Gh(H)      0.223582     2.645031    -1.239711
Gh(H)      0.300779     1.186526    -1.574937

units ang
no_reorient
no_com
symmetry c1
}

set {
basis        aug-cc-pVTZ
scf_type     df
}

energy("mp2")
--------------------------------------------------------------------------

    Molecular point group: c1

    Geometry (in Angstrom), charge = 0, multiplicity = 1:

       Center              X                  Y                   Z               Mass
    ------------   -----------------  -----------------  -----------------  -----------------
      Gh(F)           0.000000000000     0.000000000000     0.000000000000    18.998403162730
         O           -1.091558000000    -1.809519000000     1.863944000000    15.994914619570
         H           -1.964939000000    -2.052092000000     1.500602000000     1.007825032230
         H           -0.591849000000    -1.199205000000     1.314271000000     1.007825032230
      Gh(O)           0.258123000000    -2.349417000000    -1.373394000000    15.994914619570
      Gh(H)           0.547624000000    -1.593259000000    -0.773108000000     1.007825032230
      Gh(H)          -0.646190000000    -2.478934000000    -1.244225000000     1.007825032230
      Gh(O)          -0.214660000000     2.146157000000     2.063174000000    15.994914619570
      Gh(H)          -0.165088000000     1.390555000000     1.502524000000     1.007825032230
      Gh(H)          -0.077747000000     1.856844000000     2.975158000000     1.007825032230
      Gh(O)          -2.197647000000     0.913173000000    -1.713640000000    15.994914619570
      Gh(H)          -2.446327000000     0.152611000000    -2.322329000000     1.007825032230
      Gh(H)          -2.435783000000     1.766268000000    -2.074757000000     1.007825032230
      Gh(O)           2.616092000000    -0.020543000000     0.476284000000    15.994914619570
      Gh(H)           1.590067000000     0.041365000000     0.327444000000     1.007825032230
      Gh(H)           2.682891000000    -0.935497000000     0.868501000000     1.007825032230
      Gh(O)          -2.727641000000     0.971623000000     1.032331000000    15.994914619570
      Gh(H)          -2.177883000000     0.803632000000     0.264595000000     1.007825032230
      Gh(H)          -2.164027000000     1.556644000000     1.587096000000     1.007825032230
      Gh(O)           0.756321000000     1.995676000000    -1.708341000000    15.994914619570
      Gh(H)           0.223582000000     2.645031000000    -1.239711000000     1.007825032230
      Gh(H)           0.300779000000     1.186526000000    -1.574937000000     1.007825032230

  Charge       = 0
  Multiplicity = 1
  Basis Set: AUG-CC-PVTZ
    Blend: AUG-CC-PVTZ
  Basis Set: (AUG-CC-PVTZ AUX)
    Blend: AUG-CC-PVTZ-JKFIT

    Orbital Energies [Eh]
    ---------------------

    Doubly Occupied:

       1A    -20.564462     2A     -1.341014     3A     -0.728457
       4A     -0.564034     5A     -0.506320

  @DF-RHF Final Energy:   -76.05766893558551

   => Energetics <=

    Nuclear Repulsion Energy =              9.0635776107305492
    One-Electron Energy =                -122.8339174782979200
    Two-Electron Energy =                  37.7126709319818545
    Total Energy =                        -76.0576689355855251
 Dipole X            :         21.0812089          -21.3335944           -0.2523855
 Dipole Y            :         33.7513834          -33.5000235            0.2513599
 Dipole Z            :        -34.1199385           33.4980884           -0.6218501
 Magnitude           :                                                    0.7166434
  Basis Set: (AUG-CC-PVTZ AUX)
    Blend: AUG-CC-PVTZ-RI
	 Reference Energy          =     -76.0576689355855109 [Eh]
	 Singles Energy            =      -0.0000000000000000 [Eh]
	 Same-Spin Energy          =      -0.0685500391131300 [Eh]
	 Opposite-Spin Energy      =      -0.2166637390050145 [Eh]
	 Correlation Energy        =      -0.2852137781181446 [Eh]
	 Total Energy              =     -76.3428827137036592 [Eh]

	 ================> DF-SCS-MP2 Energies <==================
	-----------------------------------------------------------
	 SCS Same-Spin Scale       =       0.3333333333333333 [-]
	 SCS Opposite-Spin Scale   =       1.2000000000000000 [-]
	 SCS Same-Spin Energy      =      -0.0228500130377100 [Eh]
	 SCS Opposite-Spin Energy  =      -0.2599964868060174 [Eh]
	 SCS Correlation Energy    =      -0.2828464998437275 [Eh]
	 SCS Total Energy          =     -76.3405154354292392 [Eh]
	-----------------------------------------------------------

*** Psi4 exiting successfully. Buy a developer a beer!
