                               Psi4 1.8.2 release

  ==> Input File <==

--------------------------------------------------------------------------
MEMORY 60 GB

molecule dimer {
0 1
Gh(F)      0.000000     0.000000     0.000000
Gh(O)     -1.099415     0.509468    -2.395867
Gh(H)     -0.823277     0.145981    -1.541676
Gh(H)     -1.890375     0.027373    -2.614284
Gh(O)      0.238498     2.462715     1.298490
Gh(H)      0.012979     3.164109     0.695784
Gh(H)      0.008055     1.642894     0.840179
O          0.322958    -1.372463     2.497652
H         -0.493733    -1.781919     2.917983
H          0.095175    -0.785721     1.771503
Gh(O)     -2.636381    -0.435403     0.978292
Gh(H)     -1.761899    -0.148892     0.629044
Gh(H)     -3.224729     0.257191     0.655683
Gh(O)      2.875216     1.167609    -0.219419
Gh(H)      2.072560     0.692871    -0.290350
Gh(H)      3.166030     1.069334     0.690007

units ang
no_reorient
no_com
symmetry c1
}

set {
basis        aug-cc-pVTZ
scf_type     df
}

energy("mp2")
--------------------------------------------------------------------------

    Molecular point group: c1

    Geometry (in Angstrom), charge = 0, multiplicity = 1:

       Center              X                  Y                   Z               Mass
    ------------   -----------------  -----------------  -----------------  -----------------
      Gh(F)           0.000000000000     0.000000000000     0.000000000000    18.998403162730
      Gh(O)          -1.099415000000     0.509468000000    -2.395867000000    15.994914619570
      Gh(H)          -0.823277000000     0.145981000000    -1.541676000000     1.007825032230
      Gh(H)          -1.890375000000     0.027373000000    -2.614284000000     1.007825032230
      Gh(O)           0.238498000000     2.462715000000     1.298490000000    15.994914619570
      Gh(H)           0.012979000000     3.164109000000     0.695784000000     1.007825032230
      Gh(H)           0.008055000000     1.642894000000     0.840179000000     1.007825032230
         O            0.322958000000    -1.372463000000     2.497652000000    15.994914619570
         H           -0.493733000000    -1.781919000000     2.917983000000     1.007825032230
         H            0.095175000000    -0.785721000000     1.771503000000     1.007825032230
      Gh(O)          -2.636381000000    -0.435403000000     0.978292000000    15.994914619570
      Gh(H)          -1.761899000000    -0.148892000000     0.629044000000     1.007825032230
      Gh(H)          -3.224729000000     0.257191000000     0.655683000000     1.007825032230
      Gh(O)           2.875216000000     1.167609000000    -0.219419000000    15.994914619570
      Gh(H)           2.072560000000     0.692871000000    -0.290350000000     1.007825032230
      Gh(H)           3.166030000000     1.069334000000     0.690007000000     1.007825032230

  Charge       = 0
  Multiplicity = 1
  Basis Set: AUG-CC-PVTZ
    Blend: AUG-CC-PVTZ
  Basis Set: (AUG-CC-PVTZ AUX)
    Blend: AUG-CC-PVTZ-JKFIT

    Orbital Energies [Eh]
    ---------------------

    Doubly Occupied:

       1A    -20.567991     2A     -1.336073     3A     -0.716640
       4A     -0.565764     5A     -0.505938

  @DF-RHF Final Energy:   -76.05565445882789

   => Energetics <=

    Nuclear Repulsion Energy =              8.9399190563906128
    One-Electron Energy =                -122.6063311143744272
    Two-Electron Energy =                  37.6107575991559315
    Total Energy =                        -76.0556544588278882
 Dipole X            :         -4.8267737            4.1292519           -0.6975218
 Dipole Y            :         25.7234259          -25.6007699            0.1226560
 Dipole Z            :        -46.8300757           46.6208701           -0.2092056
 Magnitude           :                                                    0.7384769
  Basis Set: (AUG-CC-PVTZ AUX)
    Blend: AUG-CC-PVTZ-RI
	 Reference Energy          =     -76.0556544588278882 [Eh]
	 Singles Energy            =      -0.0000000000000000 [Eh]
	 Same-Spin Energy          =      -0.0687649162392682 [Eh]
	 Opposite-Spin Energy      =      -0.2170880319146454 [Eh]
	 Correlation Energy        =      -0.2858529481539136 [Eh]
	 Total Energy              =     -76.3415074069818047 [Eh]

	 ================> DF-SCS-MP2 Energies <==================
	-----------------------------------------------------------
	 SCS Same-Spin Scale       =       0.3333333333333333 [-]
	 SCS Opposite-Spin Scale   =       1.2000000000000000 [-]
	 SCS Same-Spin Energy      =      -0.0229216387464227 [Eh]
	 SCS Opposite-Spin Energy  =      -0.2605056382975745 [Eh]
	 SCS Correlation Energy    =      -0.2834272770439972 [Eh]
	 SCS Total Energy          =     -76.3390817358718863 [Eh]
	-----------------------------------------------------------

*** Psi4 exiting successfully. Buy a developer a beer!
