                               Psi4 1.8.2 release

  ==> Input File <==

--------------------------------------------------------------------------
MEMORY 60 GB

molecule dimer {
-1 1
F          0.000000     0.000000     0.000000
O         -1.040126     1.780657     2.166816
H         -0.541147     1.178286     1.649910
H         -1.724440     1.333132     2.698770
O         -0.523250    -1.125202    -2.408440
H         -0.564996    -0.798878    -1.494910
H         -0.402714    -0.362971    -3.050029
O          2.079503    -1.735904    -1.231855
H          2.655438    -2.096123    -0.576863
H          1.401799    -1.195079    -0.875190
O          1.091125     2.218432    -1.098981
H          0.562088     1.505052    -0.640283
H          0.885587     2.085152    -2.049570
O         -0.959463    -2.533583     0.907767
H         -1.720276    -2.363137     1.512543
H         -0.469011    -1.671916     0.866917
O         -2.444628     1.453668    -0.702895
H         -1.752241     0.854757    -0.578124
H         -2.784304     1.603587     0.183625

units ang
no_reorient
no_com
symmetry c1
}

set {
basis        aug-cc-pVTZ
scf_type     df
}

energy("mp2")
--------------------------------------------------------------------------

    Molecular point group: c1

    Geometry (in Angstrom), charge = -1, multiplicity = 1:

       Center              X                  Y                   Z               Mass
    ------------   -----------------  -----------------  -----------------  -----------------
         F            0.000000000000     0.000000000000     0.000000000000    18.998403162730
         O           -1.040126000000     1.780657000000     2.166816000000    15.994914619570
         H           -0.541147000000     1.178286000000     1.649910000000     1.007825032230
         H           -1.724440000000     1.333132000000     2.698770000000     1.007825032230
         O           -0.523250000000    -1.125202000000    -2.408440000000    15.994914619570
         H           -0.564996000000    -0.798878000000    -1.494910000000     1.007825032230
         H           -0.402714000000    -0.362971000000    -3.050029000000     1.007825032230
         O            2.079503000000    -1.735904000000    -1.231855000000    15.994914619570
         H            2.655438000000    -2.096123000000    -0.576863000000     1.007825032230
         H            1.401799000000    -1.195079000000    -0.875190000000     1.007825032230
         O            1.091125000000     2.218432000000    -1.098981000000    15.994914619570
         H            0.562088000000     1.505052000000    -0.640283000000     1.007825032230
         H            0.885587000000     2.085152000000    -2.049570000000     1.007825032230
         O           -0.959463000000    -2.533583000000     0.907767000000    15.994914619570
         H           -1.720276000000    -2.363137000000     1.512543000000     1.007825032230
         H           -0.469011000000    -1.671916000000     0.866917000000     1.007825032230
         O           -2.444628000000     1.453668000000    -0.702895000000    15.994914619570
         H           -1.752241000000     0.854757000000    -0.578124000000     1.007825032230
         H           -2.784304000000     1.603587000000     0.183625000000     1.007825032230

  Charge       = -1
  Multiplicity = 1
  Basis Set: AUG-CC-PVTZ
    Blend: AUG-CC-PVTZ
  Basis Set: (AUG-CC-PVTZ AUX)
    Blend: AUG-CC-PVTZ-JKFIT

    Orbital Energies [Eh]
    ---------------------

    Doubly Occupied:

       1A    -26.012783     2A    -20.436179     3A    -20.425597
       4A    -20.410753     5A    -20.395307     6A    -20.395217
       7A    -20.395201     8A     -1.281066     9A     -1.223729
      10A     -1.210427    11A     -1.193497    12A     -1.193206
      13A     -1.165910    14A     -1.165084    15A     -0.608306
      16A     -0.584851    17A     -0.577429    18A     -0.561627
      19A     -0.547573    20A     -0.533251    21A     -0.451057
      22A     -0.445468    23A     -0.441046    24A     -0.423985
      25A     -0.416580    26A     -0.409492    27A     -0.384763
      28A     -0.371933    29A     -0.368256    30A     -0.361785
      31A     -0.358895    32A     -0.356138    33A     -0.347429
      34A     -0.334265    35A     -0.333004

  @DF-RHF Final Energy:  -555.91283842675614

   => Energetics <=

    Nuclear Repulsion Energy =            355.6552264781567487
    One-Electron Energy =               -1490.8939390103907954
    Two-Electron Energy =                 579.3258741054779648
    Total Energy =                       -555.9128384267561387
 Dipole X            :         35.2110167          -35.5815190           -0.3705023
 Dipole Y            :         -1.1202306            1.0136604           -0.1065702
 Dipole Z            :         42.1403344          -40.2396543            1.9006801
 Magnitude           :                                                    1.9393850
  Basis Set: (AUG-CC-PVTZ AUX)
    Blend: AUG-CC-PVTZ-RI
	 Reference Energy          =    -555.9128384267561387 [Eh]
	 Singles Energy            =      -0.0000000000000000 [Eh]
	 Same-Spin Energy          =      -0.5028648779050670 [Eh]
	 Opposite-Spin Energy      =      -1.5338698212067849 [Eh]
	 Correlation Energy        =      -2.0367346991118520 [Eh]
	 Total Energy              =    -557.9495731258680280 [Eh]

	 ================> DF-SCS-MP2 Energies <==================
	-----------------------------------------------------------
	 SCS Same-Spin Scale       =       0.3333333333333333 [-]
	 SCS Opposite-Spin Scale   =       1.2000000000000000 [-]
	 SCS Same-Spin Energy      =      -0.1676216259683556 [Eh]
	 SCS Opposite-Spin Energy  =      -1.8406437854481419 [Eh]
	 SCS Correlation Energy    =      -2.0082654114164975 [Eh]
	 SCS Total Energy          =    -557.9211038381725984 [Eh]
	-----------------------------------------------------------

*** Psi4 exiting successfully. Buy a developer a beer!
