                               Psi4 1.8.2 release

  ==> Input File <==

--------------------------------------------------------------------------
MEMORY 60 GB

molecule dimer {
0 1
Gh(F)      0.000000     0.000000     0.000000
Gh(O)     -2.498532    -0.881431    -0.464596
Gh(H)     -3.244844    -0.373050    -0.742977
Gh(H)     -1.787443    -0.231783    -0.439473
O          0.821961    -0.941013    -2.487806
H          0.553219    -0.751966    -1.546993
H          0.984333    -1.880222    -2.681248
Gh(O)      2.741876     1.268113     0.623068
Gh(H)      1.805546     0.967787     0.731277
Gh(H)      2.912001     1.778305     1.404663
Gh(O)      0.039880    -2.040644     1.862439
Gh(H)     -0.844297    -2.487575     1.683009
Gh(H)      0.092425    -1.237739     1.280131
Gh(O)     -0.422554     1.200836     2.437095
Gh(H)     -0.724798     2.111332     2.489843
Gh(H)     -0.282246     0.936943     1.519701

units ang
no_reorient
no_com
symmetry c1
}

set {
basis        aug-cc-pVTZ
scf_type     df
}

energy("mp2")
--------------------------------------------------------------------------

    Molecular point group: c1

    Geometry (in Angstrom), charge = 0, multiplicity = 1:

       Center              X                  Y                   Z               Mass
    ------------   -----------------  -----------------  -----------------  -----------------
      Gh(F)           0.000000000000     0.000000000000     0.000000000000    18.998403162730
      Gh(O)          -2.498532000000    -0.881431000000    -0.464596000000    15.994914619570
      Gh(H)          -3.244844000000    -0.373050000000    -0.742977000000     1.007825032230
      Gh(H)          -1.787443000000    -0.231783000000    -0.439473000000     1.007825032230
         O            0.821961000000    -0.941013000000    -2.487806000000    15.994914619570
         H            0.553219000000    -0.751966000000    -1.546993000000     1.007825032230
         H            0.984333000000    -1.880222000000    -2.681248000000     1.007825032230
      Gh(O)           2.741876000000     1.268113000000     0.623068000000    15.994914619570
      Gh(H)           1.805546000000     0.967787000000     0.731277000000     1.007825032230
      Gh(H)           2.912001000000     1.778305000000     1.404663000000     1.007825032230
      Gh(O)           0.039880000000    -2.040644000000     1.862439000000    15.994914619570
      Gh(H)          -0.844297000000    -2.487575000000     1.683009000000     1.007825032230
      Gh(H)           0.092425000000    -1.237739000000     1.280131000000     1.007825032230
      Gh(O)          -0.422554000000     1.200836000000     2.437095000000    15.994914619570
      Gh(H)          -0.724798000000     2.111332000000     2.489843000000     1.007825032230
      Gh(H)          -0.282246000000     0.936943000000     1.519701000000     1.007825032230

  Charge       = 0
  Multiplicity = 1
  Basis Set: AUG-CC-PVTZ
    Blend: AUG-CC-PVTZ
  Basis Set: (AUG-CC-PVTZ AUX)
    Blend: AUG-CC-PVTZ-JKFIT

    Orbital Energies [Eh]
    ---------------------

    Doubly Occupied:

       1A    -20.566839     2A     -1.333402     3A     -0.720253
       4A     -0.560489     5A     -0.504889

  @DF-RHF Final Energy:   -76.05491174705770

   => Energetics <=

    Nuclear Repulsion Energy =              8.9202982853200936
    One-Electron Energy =                -122.5786696544910228
    Two-Electron Energy =                  37.6034596221132347
    Total Energy =                        -76.0549117470577016
 Dipole X            :        -15.4028515           15.3318016           -0.0710500
 Dipole Y            :         18.6917575          -19.2001692           -0.5084118
 Dipole Z            :         46.1036178          -45.6003934            0.5032244
 Magnitude           :                                                    0.7188640
  Basis Set: (AUG-CC-PVTZ AUX)
    Blend: AUG-CC-PVTZ-RI
	 Reference Energy          =     -76.0549117470577016 [Eh]
	 Singles Energy            =      -0.0000000000000000 [Eh]
	 Same-Spin Energy          =      -0.0687866042306177 [Eh]
	 Opposite-Spin Energy      =      -0.2170057660607616 [Eh]
	 Correlation Energy        =      -0.2857923702913793 [Eh]
	 Total Energy              =     -76.3407041173490768 [Eh]

	 ================> DF-SCS-MP2 Energies <==================
	-----------------------------------------------------------
	 SCS Same-Spin Scale       =       0.3333333333333333 [-]
	 SCS Opposite-Spin Scale   =       1.2000000000000000 [-]
	 SCS Same-Spin Energy      =      -0.0229288680768726 [Eh]
	 SCS Opposite-Spin Energy  =      -0.2604069192729139 [Eh]
	 SCS Correlation Energy    =      -0.2833357873497864 [Eh]
	 SCS Total Energy          =     -76.3382475344074862 [Eh]
	-----------------------------------------------------------

*** Psi4 exiting successfully. Buy a developer a beer!
