                               Psi4 1.8.2 release

  ==> Input File <==

--------------------------------------------------------------------------
MEMORY 60 GB

molecule dimer {
0 1
Gh(F)      0.000000     0.000000     0.000000
Gh(O)     -1.204616    -0.136785     2.716651
Gh(H)     -0.764095     0.061585     1.873340
Gh(H)     -0.834247    -0.946190     3.055175
Gh(O)     -2.460796     0.663282    -0.931792
Gh(H)     -1.503367     0.475959    -0.909133
Gh(H)     -2.899102    -0.181671    -1.051267
Gh(O)     -0.180675     2.936706    -0.188779
Gh(H)      0.620744     3.487452    -0.094289
Gh(H)      0.182580     2.104557    -0.393553
Gh(O)     -1.696100    -2.154749    -0.360661
Gh(H)     -0.850512    -1.713972    -0.187306
Gh(H)     -2.184590    -2.113638     0.460314
O          2.323319     0.756460     1.937201
H          2.977037     0.096931     1.837480
H          1.649232     0.600110     1.235624
Gh(O)      2.482985     0.570779    -1.259187
Gh(H)      1.623031     0.282269    -0.820127
Gh(H)      2.415357     1.553745    -1.408463

units ang
no_reorient
no_com
symmetry c1
}

set {
basis        aug-cc-pVTZ
scf_type     df
}

energy("mp2")
--------------------------------------------------------------------------

    Molecular point group: c1

    Geometry (in Angstrom), charge = 0, multiplicity = 1:

       Center              X                  Y                   Z               Mass
    ------------   -----------------  -----------------  -----------------  -----------------
      Gh(F)           0.000000000000     0.000000000000     0.000000000000    18.998403162730
      Gh(O)          -1.204616000000    -0.136785000000     2.716651000000    15.994914619570
      Gh(H)          -0.764095000000     0.061585000000     1.873340000000     1.007825032230
      Gh(H)          -0.834247000000    -0.946190000000     3.055175000000     1.007825032230
      Gh(O)          -2.460796000000     0.663282000000    -0.931792000000    15.994914619570
      Gh(H)          -1.503367000000     0.475959000000    -0.909133000000     1.007825032230
      Gh(H)          -2.899102000000    -0.181671000000    -1.051267000000     1.007825032230
      Gh(O)          -0.180675000000     2.936706000000    -0.188779000000    15.994914619570
      Gh(H)           0.620744000000     3.487452000000    -0.094289000000     1.007825032230
      Gh(H)           0.182580000000     2.104557000000    -0.393553000000     1.007825032230
      Gh(O)          -1.696100000000    -2.154749000000    -0.360661000000    15.994914619570
      Gh(H)          -0.850512000000    -1.713972000000    -0.187306000000     1.007825032230
      Gh(H)          -2.184590000000    -2.113638000000     0.460314000000     1.007825032230
         O            2.323319000000     0.756460000000     1.937201000000    15.994914619570
         H            2.977037000000     0.096931000000     1.837480000000     1.007825032230
         H            1.649232000000     0.600110000000     1.235624000000     1.007825032230
      Gh(O)           2.482985000000     0.570779000000    -1.259187000000    15.994914619570
      Gh(H)           1.623031000000     0.282269000000    -0.820127000000     1.007825032230
      Gh(H)           2.415357000000     1.553745000000    -1.408463000000     1.007825032230

  Charge       = 0
  Multiplicity = 1
  Basis Set: AUG-CC-PVTZ
    Blend: AUG-CC-PVTZ
  Basis Set: (AUG-CC-PVTZ AUX)
    Blend: AUG-CC-PVTZ-JKFIT

    Orbital Energies [Eh]
    ---------------------

    Doubly Occupied:

       1A    -20.566282     2A     -1.351182     3A     -0.721147
       4A     -0.579510     5A     -0.509469

  @DF-RHF Final Energy:   -76.05921734169404

   => Energetics <=

    Nuclear Repulsion Energy =              9.1719766460455752
    One-Electron Energy =                -123.0072031848972784
    Two-Electron Energy =                  37.7760091971576557
    Total Energy =                        -76.0592173416940511
 Dipole X            :        -43.8726248           43.8658743           -0.0067505
 Dipole Y            :        -13.3017638           12.7532344           -0.5485294
 Dipole Z            :        -35.6267760           35.0935596           -0.5332164
 Magnitude           :                                                    0.7650162
  Basis Set: (AUG-CC-PVTZ AUX)
    Blend: AUG-CC-PVTZ-RI
	 Reference Energy          =     -76.0592173416940369 [Eh]
	 Singles Energy            =      -0.0000000000000000 [Eh]
	 Same-Spin Energy          =      -0.0684067622246346 [Eh]
	 Opposite-Spin Energy      =      -0.2161123605271053 [Eh]
	 Correlation Energy        =      -0.2845191227517399 [Eh]
	 Total Energy              =     -76.3437364644457830 [Eh]

	 ================> DF-SCS-MP2 Energies <==================
	-----------------------------------------------------------
	 SCS Same-Spin Scale       =       0.3333333333333333 [-]
	 SCS Opposite-Spin Scale   =       1.2000000000000000 [-]
	 SCS Same-Spin Energy      =      -0.0228022540748782 [Eh]
	 SCS Opposite-Spin Energy  =      -0.2593348326325264 [Eh]
	 SCS Correlation Energy    =      -0.2821370867074046 [Eh]
	 SCS Total Energy          =     -76.3413544284014449 [Eh]
	-----------------------------------------------------------

*** Psi4 exiting successfully. Buy a developer a beer!
