                               Psi4 1.8.2 release

  ==> Input File <==

--------------------------------------------------------------------------
MEMORY 60 GB

molecule dimer {
0 1
Gh(F)      0.000000     0.000000     0.000000
O         -1.040126     1.780657     2.166816
H         -0.541147     1.178286     1.649910
H         -1.724440     1.333132     2.698770
Gh(O)     -0.523250    -1.125202    -2.408440
Gh(H)     -0.564996    -0.798878    -1.494910
Gh(H)     -0.402714    -0.362971    -3.050029
Gh(O)      2.079503    -1.735904    -1.231855
Gh(H)      2.655438    -2.096123    -0.576863
Gh(H)      1.401799    -1.195079    -0.875190
Gh(O)      1.091125     2.218432    -1.098981
Gh(H)      0.562088     1.505052    -0.640283
Gh(H)      0.885587     2.085152    -2.049570
Gh(O)     -0.959463    -2.533583     0.907767
Gh(H)     -1.720276    -2.363137     1.512543
Gh(H)     -0.469011    -1.671916     0.866917
Gh(O)     -2.444628     1.453668    -0.702895
Gh(H)     -1.752241     0.854757    -0.578124
Gh(H)     -2.784304     1.603587     0.183625

units ang
no_reorient
no_com
symmetry c1
}

set {
basis        aug-cc-pVTZ
scf_type     df
}

energy("mp2")
--------------------------------------------------------------------------

    Molecular point group: c1

    Geometry (in Angstrom), charge = 0, multiplicity = 1:

       Center              X                  Y                   Z               Mass
    ------------   -----------------  -----------------  -----------------  -----------------
      Gh(F)           0.000000000000     0.000000000000     0.000000000000    18.998403162730
         O           -1.040126000000     1.780657000000     2.166816000000    15.994914619570
         H           -0.541147000000     1.178286000000     1.649910000000     1.007825032230
         H           -1.724440000000     1.333132000000     2.698770000000     1.007825032230
      Gh(O)          -0.523250000000    -1.125202000000    -2.408440000000    15.994914619570
      Gh(H)          -0.564996000000    -0.798878000000    -1.494910000000     1.007825032230
      Gh(H)          -0.402714000000    -0.362971000000    -3.050029000000     1.007825032230
      Gh(O)           2.079503000000    -1.735904000000    -1.231855000000    15.994914619570
      Gh(H)           2.655438000000    -2.096123000000    -0.576863000000     1.007825032230
      Gh(H)           1.401799000000    -1.195079000000    -0.875190000000     1.007825032230
      Gh(O)           1.091125000000     2.218432000000    -1.098981000000    15.994914619570
      Gh(H)           0.562088000000     1.505052000000    -0.640283000000     1.007825032230
      Gh(H)           0.885587000000     2.085152000000    -2.049570000000     1.007825032230
      Gh(O)          -0.959463000000    -2.533583000000     0.907767000000    15.994914619570
      Gh(H)          -1.720276000000    -2.363137000000     1.512543000000     1.007825032230
      Gh(H)          -0.469011000000    -1.671916000000     0.866917000000     1.007825032230
      Gh(O)          -2.444628000000     1.453668000000    -0.702895000000    15.994914619570
      Gh(H)          -1.752241000000     0.854757000000    -0.578124000000     1.007825032230
      Gh(H)          -2.784304000000     1.603587000000     0.183625000000     1.007825032230

  Charge       = 0
  Multiplicity = 1
  Basis Set: AUG-CC-PVTZ
    Blend: AUG-CC-PVTZ
  Basis Set: (AUG-CC-PVTZ AUX)
    Blend: AUG-CC-PVTZ-JKFIT

    Orbital Energies [Eh]
    ---------------------

    Doubly Occupied:

       1A    -20.563258     2A     -1.348814     3A     -0.732548
       4A     -0.569848     5A     -0.508075

  @DF-RHF Final Energy:   -76.05900057101671

   => Energetics <=

    Nuclear Repulsion Energy =              9.1882951785056779
    One-Electron Energy =                -123.0495000351093751
    Two-Electron Energy =                  37.8022042855869884
    Total Energy =                        -76.0590005710166963
 Dipole X            :         19.8834865          -20.0057652           -0.1222787
 Dipole Y            :        -32.3823370           31.6655246           -0.7168124
 Dipole Z            :        -40.9682493           40.9753246            0.0070753
 Magnitude           :                                                    0.7272016
  Basis Set: (AUG-CC-PVTZ AUX)
    Blend: AUG-CC-PVTZ-RI
	 Reference Energy          =     -76.0590005710167105 [Eh]
	 Singles Energy            =      -0.0000000000000000 [Eh]
	 Same-Spin Energy          =      -0.0683187302841886 [Eh]
	 Opposite-Spin Energy      =      -0.2156794145465564 [Eh]
	 Correlation Energy        =      -0.2839981448307450 [Eh]
	 Total Energy              =     -76.3429987158474574 [Eh]

	 ================> DF-SCS-MP2 Energies <==================
	-----------------------------------------------------------
	 SCS Same-Spin Scale       =       0.3333333333333333 [-]
	 SCS Opposite-Spin Scale   =       1.2000000000000000 [-]
	 SCS Same-Spin Energy      =      -0.0227729100947295 [Eh]
	 SCS Opposite-Spin Energy  =      -0.2588152974558676 [Eh]
	 SCS Correlation Energy    =      -0.2815882075505972 [Eh]
	 SCS Total Energy          =     -76.3405887785673087 [Eh]
	-----------------------------------------------------------

*** Psi4 exiting successfully. Buy a developer a beer!
