                               Psi4 1.8.2 release

  ==> Input File <==

--------------------------------------------------------------------------
MEMORY 60 GB

molecule dimer {
-1 1
F          0.000000     0.000000     0.000000
O          0.544622     1.947141    -1.930994
H         -0.303699     2.411400    -1.706903
H          0.604706     1.172877    -1.303359
O         -2.128467     0.389057     1.730632
H         -1.379894     0.192361     1.173874
H         -1.919456     0.067224     2.612103
O         -0.085529    -2.704846    -1.508295
H         -0.656689    -3.406752    -1.099236
H         -0.267173    -1.961465    -0.940136
O          1.549814     1.756379     1.450147
H          1.046493     1.052841     1.074196
H          1.497360     2.437675     0.800406
O         -2.175092    -0.185080    -1.433318
H         -2.620425     0.653858    -1.755423
H         -1.332482     0.046421    -1.015543

units ang
no_reorient
no_com
symmetry c1
}

set {
basis        aug-cc-pVTZ
scf_type     df
}

energy("mp2")
--------------------------------------------------------------------------

    Molecular point group: c1

    Geometry (in Angstrom), charge = -1, multiplicity = 1:

       Center              X                  Y                   Z               Mass
    ------------   -----------------  -----------------  -----------------  -----------------
         F            0.000000000000     0.000000000000     0.000000000000    18.998403162730
         O            0.544622000000     1.947141000000    -1.930994000000    15.994914619570
         H           -0.303699000000     2.411400000000    -1.706903000000     1.007825032230
         H            0.604706000000     1.172877000000    -1.303359000000     1.007825032230
         O           -2.128467000000     0.389057000000     1.730632000000    15.994914619570
         H           -1.379894000000     0.192361000000     1.173874000000     1.007825032230
         H           -1.919456000000     0.067224000000     2.612103000000     1.007825032230
         O           -0.085529000000    -2.704846000000    -1.508295000000    15.994914619570
         H           -0.656689000000    -3.406752000000    -1.099236000000     1.007825032230
         H           -0.267173000000    -1.961465000000    -0.940136000000     1.007825032230
         O            1.549814000000     1.756379000000     1.450147000000    15.994914619570
         H            1.046493000000     1.052841000000     1.074196000000     1.007825032230
         H            1.497360000000     2.437675000000     0.800406000000     1.007825032230
         O           -2.175092000000    -0.185080000000    -1.433318000000    15.994914619570
         H           -2.620425000000     0.653858000000    -1.755423000000     1.007825032230
         H           -1.332482000000     0.046421000000    -1.015543000000     1.007825032230

  Charge       = -1
  Multiplicity = 1
  Basis Set: AUG-CC-PVTZ
    Blend: AUG-CC-PVTZ
  Basis Set: (AUG-CC-PVTZ AUX)
    Blend: AUG-CC-PVTZ-JKFIT

    Orbital Energies [Eh]
    ---------------------

    Doubly Occupied:

       1A    -25.997250     2A    -20.415989     3A    -20.413372
       4A    -20.398263     5A    -20.394545     6A    -20.390962
       7A     -1.267304     8A     -1.194984     9A     -1.193798
      10A     -1.187102    11A     -1.178739    12A     -1.163273
      13A     -0.565633    14A     -0.563256    15A     -0.552839
      16A     -0.548688    17A     -0.540445    18A     -0.441306
      19A     -0.436137    20A     -0.432707    21A     -0.423104
      22A     -0.406116    23A     -0.360221    24A     -0.358172
      25A     -0.353629    26A     -0.352333    27A     -0.347018
      28A     -0.345607    29A     -0.342410    30A     -0.329400

  @DF-RHF Final Energy:  -479.85405964976150

   => Energetics <=

    Nuclear Repulsion Energy =            265.9972967135751105
    One-Electron Energy =               -1205.9135005869361521
    Two-Electron Energy =                 460.0621442235995460
    Total Energy =                       -479.8540596497614956
 Dipole X            :         44.6479024          -44.7647301           -0.1168277
 Dipole Y            :        -23.3823909           23.2202894           -0.1621015
 Dipole Z            :         30.5466127          -29.6585807            0.8880320
 Magnitude           :                                                    0.9102342
  Basis Set: (AUG-CC-PVTZ AUX)
    Blend: AUG-CC-PVTZ-RI
	 Reference Energy          =    -479.8540596497614956 [Eh]
	 Singles Energy            =      -0.0000000000000000 [Eh]
	 Same-Spin Energy          =      -0.4330957617616671 [Eh]
	 Opposite-Spin Energy      =      -1.3165037726509148 [Eh]
	 Correlation Energy        =      -1.7495995344125819 [Eh]
	 Total Energy              =    -481.6036591841740915 [Eh]

	 ================> DF-SCS-MP2 Energies <==================
	-----------------------------------------------------------
	 SCS Same-Spin Scale       =       0.3333333333333333 [-]
	 SCS Opposite-Spin Scale   =       1.2000000000000000 [-]
	 SCS Same-Spin Energy      =      -0.1443652539205557 [Eh]
	 SCS Opposite-Spin Energy  =      -1.5798045271810977 [Eh]
	 SCS Correlation Energy    =      -1.7241697811016534 [Eh]
	 SCS Total Energy          =    -481.5782294308631322 [Eh]
	-----------------------------------------------------------

*** Psi4 exiting successfully. Buy a developer a beer!
