                               Psi4 1.8.2 release

  ==> Input File <==

--------------------------------------------------------------------------
MEMORY 60 GB

molecule dimer {
0 1
Gh(F)      0.000000     0.000000     0.000000
Gh(O)      1.817114     1.946444    -0.723175
Gh(H)      1.018768     1.381289    -1.036039
Gh(H)      2.133974     1.611845     0.184788
Gh(O)     -1.618648     2.227966     0.983095
Gh(H)     -1.190650     1.430225     0.637791
Gh(H)     -1.783720     2.118152     1.906642
Gh(O)     -0.955691     1.698319    -2.105695
Gh(H)     -0.402285     1.876495    -2.895468
Gh(H)     -1.255684     0.819664    -2.003767
Gh(O)      1.688096    -0.251298     2.069765
Gh(H)      2.518079     0.189713     1.984541
Gh(H)      1.298638    -0.141263     1.240993
Gh(O)      1.074017    -0.791253    -2.569566
Gh(H)      1.889382    -0.271590    -2.714166
Gh(H)      0.775089    -0.600320    -1.647716
O         -1.131261    -2.325104     0.575167
H         -0.809361    -1.464786     0.417327
H         -2.086261    -2.127325     0.545425

units ang
no_reorient
no_com
symmetry c1
}

set {
basis        aug-cc-pVTZ
scf_type     df
}

energy("mp2")
--------------------------------------------------------------------------

    Molecular point group: c1

    Geometry (in Angstrom), charge = 0, multiplicity = 1:

       Center              X                  Y                   Z               Mass
    ------------   -----------------  -----------------  -----------------  -----------------
      Gh(F)           0.000000000000     0.000000000000     0.000000000000    18.998403162730
      Gh(O)           1.817114000000     1.946444000000    -0.723175000000    15.994914619570
      Gh(H)           1.018768000000     1.381289000000    -1.036039000000     1.007825032230
      Gh(H)           2.133974000000     1.611845000000     0.184788000000     1.007825032230
      Gh(O)          -1.618648000000     2.227966000000     0.983095000000    15.994914619570
      Gh(H)          -1.190650000000     1.430225000000     0.637791000000     1.007825032230
      Gh(H)          -1.783720000000     2.118152000000     1.906642000000     1.007825032230
      Gh(O)          -0.955691000000     1.698319000000    -2.105695000000    15.994914619570
      Gh(H)          -0.402285000000     1.876495000000    -2.895468000000     1.007825032230
      Gh(H)          -1.255684000000     0.819664000000    -2.003767000000     1.007825032230
      Gh(O)           1.688096000000    -0.251298000000     2.069765000000    15.994914619570
      Gh(H)           2.518079000000     0.189713000000     1.984541000000     1.007825032230
      Gh(H)           1.298638000000    -0.141263000000     1.240993000000     1.007825032230
      Gh(O)           1.074017000000    -0.791253000000    -2.569566000000    15.994914619570
      Gh(H)           1.889382000000    -0.271590000000    -2.714166000000     1.007825032230
      Gh(H)           0.775089000000    -0.600320000000    -1.647716000000     1.007825032230
         O           -1.131261000000    -2.325104000000     0.575167000000    15.994914619570
         H           -0.809361000000    -1.464786000000     0.417327000000     1.007825032230
         H           -2.086261000000    -2.127325000000     0.545425000000     1.007825032230

  Charge       = 0
  Multiplicity = 1
  Basis Set: AUG-CC-PVTZ
    Blend: AUG-CC-PVTZ
  Basis Set: (AUG-CC-PVTZ AUX)
    Blend: AUG-CC-PVTZ-JKFIT

    Orbital Energies [Eh]
    ---------------------

    Doubly Occupied:

       1A    -20.568930     2A     -1.360353     3A     -0.707315
       4A     -0.597451     5A     -0.512388

  @DF-RHF Final Energy:   -76.05846275776958

   => Energetics <=

    Nuclear Repulsion Energy =              9.2473217834201815
    One-Electron Energy =                -123.1186929435089752
    Two-Electron Energy =                  37.8129084023192306
    Total Energy =                        -76.0584627577695755
 Dipole X            :         22.1673180          -22.5741203           -0.4068022
 Dipole Y            :         42.6363997          -41.9385842            0.6978156
 Dipole Z            :        -10.6383867           10.5146025           -0.1237842
 Magnitude           :                                                    0.8171641
  Basis Set: (AUG-CC-PVTZ AUX)
    Blend: AUG-CC-PVTZ-RI
	 Reference Energy          =     -76.0584627577695755 [Eh]
	 Singles Energy            =      -0.0000000000000000 [Eh]
	 Same-Spin Energy          =      -0.0685128726959802 [Eh]
	 Opposite-Spin Energy      =      -0.2165147273339343 [Eh]
	 Correlation Energy        =      -0.2850276000299145 [Eh]
	 Total Energy              =     -76.3434903577994959 [Eh]

	 ================> DF-SCS-MP2 Energies <==================
	-----------------------------------------------------------
	 SCS Same-Spin Scale       =       0.3333333333333333 [-]
	 SCS Opposite-Spin Scale   =       1.2000000000000000 [-]
	 SCS Same-Spin Energy      =      -0.0228376242319934 [Eh]
	 SCS Opposite-Spin Energy  =      -0.2598176728007211 [Eh]
	 SCS Correlation Energy    =      -0.2826552970327145 [Eh]
	 SCS Total Energy          =     -76.3411180548022941 [Eh]
	-----------------------------------------------------------

*** Psi4 exiting successfully. Buy a developer a beer!
