                               Psi4 1.8.2 release

  ==> Input File <==

--------------------------------------------------------------------------
MEMORY 60 GB

molecule dimer {
0 1
Gh(F)      0.000000     0.000000     0.000000
Gh(O)      1.549726    -0.592173    -2.469497
Gh(H)      2.491955    -0.304027    -2.354979
Gh(H)      1.059966    -0.129118    -1.739114
Gh(O)     -2.109158     0.552064     1.527417
Gh(H)     -1.303685     0.262813     1.105559
Gh(H)     -2.150940     1.467686     1.236099
Gh(O)     -0.658953     2.609487    -0.786580
Gh(H)     -0.277803     1.841298    -0.414688
Gh(H)     -1.429545     2.816178    -0.200283
O          1.311910    -1.653315     1.534469
H          0.833433    -0.988070     1.037024
H          0.695205    -2.456602     1.463667
Gh(O)     -1.617297    -0.996617    -2.102888
Gh(H)     -1.802101    -0.062886    -2.375282
Gh(H)     -1.153428    -0.952167    -1.276978

units ang
no_reorient
no_com
symmetry c1
}

set {
basis        aug-cc-pVTZ
scf_type     df
}

energy("mp2")
--------------------------------------------------------------------------

    Molecular point group: c1

    Geometry (in Angstrom), charge = 0, multiplicity = 1:

       Center              X                  Y                   Z               Mass
    ------------   -----------------  -----------------  -----------------  -----------------
      Gh(F)           0.000000000000     0.000000000000     0.000000000000    18.998403162730
      Gh(O)           1.549726000000    -0.592173000000    -2.469497000000    15.994914619570
      Gh(H)           2.491955000000    -0.304027000000    -2.354979000000     1.007825032230
      Gh(H)           1.059966000000    -0.129118000000    -1.739114000000     1.007825032230
      Gh(O)          -2.109158000000     0.552064000000     1.527417000000    15.994914619570
      Gh(H)          -1.303685000000     0.262813000000     1.105559000000     1.007825032230
      Gh(H)          -2.150940000000     1.467686000000     1.236099000000     1.007825032230
      Gh(O)          -0.658953000000     2.609487000000    -0.786580000000    15.994914619570
      Gh(H)          -0.277803000000     1.841298000000    -0.414688000000     1.007825032230
      Gh(H)          -1.429545000000     2.816178000000    -0.200283000000     1.007825032230
         O            1.311910000000    -1.653315000000     1.534469000000    15.994914619570
         H            0.833433000000    -0.988070000000     1.037024000000     1.007825032230
         H            0.695205000000    -2.456602000000     1.463667000000     1.007825032230
      Gh(O)          -1.617297000000    -0.996617000000    -2.102888000000    15.994914619570
      Gh(H)          -1.802101000000    -0.062886000000    -2.375282000000     1.007825032230
      Gh(H)          -1.153428000000    -0.952167000000    -1.276978000000     1.007825032230

  Charge       = 0
  Multiplicity = 1
  Basis Set: AUG-CC-PVTZ
    Blend: AUG-CC-PVTZ
  Basis Set: (AUG-CC-PVTZ AUX)
    Blend: AUG-CC-PVTZ-JKFIT

    Orbital Energies [Eh]
    ---------------------

    Doubly Occupied:

       1A    -20.573158     2A     -1.341084     3A     -0.697677
       4A     -0.583488     5A     -0.508772

  @DF-RHF Final Energy:   -76.05567054991283

   => Energetics <=

    Nuclear Repulsion Energy =              8.9308929961684882
    One-Electron Energy =                -122.5647629888354118
    Two-Electron Energy =                  37.5781994427540766
    Total Energy =                        -76.0556705499128327
 Dipole X            :        -23.4316371           22.7219120           -0.7097251
 Dipole Y            :         31.4249593          -31.5039871           -0.0790277
 Dipole Z            :        -28.2950984           27.9234304           -0.3716680
 Magnitude           :                                                    0.8050418
  Basis Set: (AUG-CC-PVTZ AUX)
    Blend: AUG-CC-PVTZ-RI
	 Reference Energy          =     -76.0556705499128327 [Eh]
	 Singles Energy            =      -0.0000000000000000 [Eh]
	 Same-Spin Energy          =      -0.0689768887089021 [Eh]
	 Opposite-Spin Energy      =      -0.2180436924013912 [Eh]
	 Correlation Energy        =      -0.2870205811102933 [Eh]
	 Total Energy              =     -76.3426911310231304 [Eh]

	 ================> DF-SCS-MP2 Energies <==================
	-----------------------------------------------------------
	 SCS Same-Spin Scale       =       0.3333333333333333 [-]
	 SCS Opposite-Spin Scale   =       1.2000000000000000 [-]
	 SCS Same-Spin Energy      =      -0.0229922962363007 [Eh]
	 SCS Opposite-Spin Energy  =      -0.2616524308816695 [Eh]
	 SCS Correlation Energy    =      -0.2846447271179702 [Eh]
	 SCS Total Energy          =     -76.3403152770307969 [Eh]
	-----------------------------------------------------------

*** Psi4 exiting successfully. Buy a developer a beer!
