                               Psi4 1.8.2 release

  ==> Input File <==

--------------------------------------------------------------------------
MEMORY 60 GB

molecule dimer {
-1 1
F          0.000000     0.000000     0.000000
Gh(O)      1.451835    -1.452535     2.052395
Gh(H)      1.469584    -0.899906     1.315952
Gh(H)      1.373633    -0.980960     2.860466
Gh(O)     -0.559359    -2.672142    -0.866309
Gh(H)      0.288354    -3.135902    -0.865194
Gh(H)     -0.225876    -1.778096    -0.742343
Gh(O)      1.611940     2.034987     1.608686
Gh(H)      1.025985     2.541931     2.212233
Gh(H)      0.965893     1.555115     0.966858
Gh(O)     -1.608533    -0.904734     2.300778
Gh(H)     -1.271895    -0.716260     1.375122
Gh(H)     -0.910123    -1.497503     2.647384
Gh(O)     -2.280907     1.332090     0.163613
Gh(H)     -1.494680     0.704833    -0.100659
Gh(H)     -1.895508     2.117946     0.620702
Gh(O)      0.450456     0.337148    -2.757854
Gh(H)      1.193771     0.963211    -3.022596
Gh(H)      0.495681     0.289983    -1.818199

units ang
no_reorient
no_com
symmetry c1
}

set {
basis        aug-cc-pVTZ
scf_type     df
}

energy("mp2")
--------------------------------------------------------------------------

    Molecular point group: c1

    Geometry (in Angstrom), charge = -1, multiplicity = 1:

       Center              X                  Y                   Z               Mass
    ------------   -----------------  -----------------  -----------------  -----------------
         F            0.000000000000     0.000000000000     0.000000000000    18.998403162730
      Gh(O)           1.451835000000    -1.452535000000     2.052395000000    15.994914619570
      Gh(H)           1.469584000000    -0.899906000000     1.315952000000     1.007825032230
      Gh(H)           1.373633000000    -0.980960000000     2.860466000000     1.007825032230
      Gh(O)          -0.559359000000    -2.672142000000    -0.866309000000    15.994914619570
      Gh(H)           0.288354000000    -3.135902000000    -0.865194000000     1.007825032230
      Gh(H)          -0.225876000000    -1.778096000000    -0.742343000000     1.007825032230
      Gh(O)           1.611940000000     2.034987000000     1.608686000000    15.994914619570
      Gh(H)           1.025985000000     2.541931000000     2.212233000000     1.007825032230
      Gh(H)           0.965893000000     1.555115000000     0.966858000000     1.007825032230
      Gh(O)          -1.608533000000    -0.904734000000     2.300778000000    15.994914619570
      Gh(H)          -1.271895000000    -0.716260000000     1.375122000000     1.007825032230
      Gh(H)          -0.910123000000    -1.497503000000     2.647384000000     1.007825032230
      Gh(O)          -2.280907000000     1.332090000000     0.163613000000    15.994914619570
      Gh(H)          -1.494680000000     0.704833000000    -0.100659000000     1.007825032230
      Gh(H)          -1.895508000000     2.117946000000     0.620702000000     1.007825032230
      Gh(O)           0.450456000000     0.337148000000    -2.757854000000    15.994914619570
      Gh(H)           1.193771000000     0.963211000000    -3.022596000000     1.007825032230
      Gh(H)           0.495681000000     0.289983000000    -1.818199000000     1.007825032230

  Charge       = -1
  Multiplicity = 1
  Basis Set: AUG-CC-PVTZ
    Blend: AUG-CC-PVTZ
  Basis Set: (AUG-CC-PVTZ AUX)
    Blend: AUG-CC-PVTZ-JKFIT

    Orbital Energies [Eh]
    ---------------------

    Doubly Occupied:

       1A    -25.833527     2A     -1.075865     3A     -0.180901
       4A     -0.180891     5A     -0.180886

  @DF-RHF Final Energy:   -99.45115311488236

   => Energetics <=

    Nuclear Repulsion Energy =              0.0000000000000000
    One-Electron Energy =                -143.9981600957499097
    Two-Electron Energy =                  44.5470069808675575
    Total Energy =                        -99.4511531148823451
 Dipole X            :         -0.0000734            0.0000000           -0.0000734
 Dipole Y            :         -0.0000244            0.0000000           -0.0000244
 Dipole Z            :          0.0000111            0.0000000            0.0000111
 Magnitude           :                                                    0.0000782
  Basis Set: (AUG-CC-PVTZ AUX)
    Blend: AUG-CC-PVTZ-RI
	 Reference Energy          =     -99.4511531148823593 [Eh]
	 Singles Energy            =      -0.0000000000000000 [Eh]
	 Same-Spin Energy          =      -0.0820618049013432 [Eh]
	 Opposite-Spin Energy      =      -0.2301989545644011 [Eh]
	 Correlation Energy        =      -0.3122607594657443 [Eh]
	 Total Energy              =     -99.7634138743481031 [Eh]

	 ================> DF-SCS-MP2 Energies <==================
	-----------------------------------------------------------
	 SCS Same-Spin Scale       =       0.3333333333333333 [-]
	 SCS Opposite-Spin Scale   =       1.2000000000000000 [-]
	 SCS Same-Spin Energy      =      -0.0273539349671144 [Eh]
	 SCS Opposite-Spin Energy  =      -0.2762387454772813 [Eh]
	 SCS Correlation Energy    =      -0.3035926804443957 [Eh]
	 SCS Total Energy          =     -99.7547457953267553 [Eh]
	-----------------------------------------------------------

*** Psi4 exiting successfully. Buy a developer a beer!
