                               Psi4 1.8.2 release

  ==> Input File <==

--------------------------------------------------------------------------
MEMORY 60 GB

molecule dimer {
-1 1
F          0.000000     0.000000     0.000000
O          0.316579     2.487371    -1.033870
H         -0.299784     2.958747    -1.698141
H          0.068567     1.636716    -0.609642
O         -2.966622    -0.324922    -0.279360
H         -1.997157    -0.168453    -0.193960
H         -3.039299    -1.203601    -0.674475
O          2.620493     0.082477    -0.913598
H          3.090818    -0.144429    -0.074903
H          1.665367     0.173836    -0.709739
O         -1.016627     1.008044     2.356890
H         -0.498021     0.696455     1.582640
H         -1.005983     0.224406     2.964702
O         -0.584061    -0.002881    -2.710546
H          0.203428     0.427802    -3.052160
H         -0.399019    -0.109730    -1.768497

units ang
no_reorient
no_com
symmetry c1
}

set {
basis        aug-cc-pVTZ
scf_type     df
}

energy("mp2")
--------------------------------------------------------------------------

    Molecular point group: c1

    Geometry (in Angstrom), charge = -1, multiplicity = 1:

       Center              X                  Y                   Z               Mass
    ------------   -----------------  -----------------  -----------------  -----------------
         F            0.000000000000     0.000000000000     0.000000000000    18.998403162730
         O            0.316579000000     2.487371000000    -1.033870000000    15.994914619570
         H           -0.299784000000     2.958747000000    -1.698141000000     1.007825032230
         H            0.068567000000     1.636716000000    -0.609642000000     1.007825032230
         O           -2.966622000000    -0.324922000000    -0.279360000000    15.994914619570
         H           -1.997157000000    -0.168453000000    -0.193960000000     1.007825032230
         H           -3.039299000000    -1.203601000000    -0.674475000000     1.007825032230
         O            2.620493000000     0.082477000000    -0.913598000000    15.994914619570
         H            3.090818000000    -0.144429000000    -0.074903000000     1.007825032230
         H            1.665367000000     0.173836000000    -0.709739000000     1.007825032230
         O           -1.016627000000     1.008044000000     2.356890000000    15.994914619570
         H           -0.498021000000     0.696455000000     1.582640000000     1.007825032230
         H           -1.005983000000     0.224406000000     2.964702000000     1.007825032230
         O           -0.584061000000    -0.002881000000    -2.710546000000    15.994914619570
         H            0.203428000000     0.427802000000    -3.052160000000     1.007825032230
         H           -0.399019000000    -0.109730000000    -1.768497000000     1.007825032230

  Charge       = -1
  Multiplicity = 1
  Basis Set: AUG-CC-PVTZ
    Blend: AUG-CC-PVTZ
  Basis Set: (AUG-CC-PVTZ AUX)
    Blend: AUG-CC-PVTZ-JKFIT

    Orbital Energies [Eh]
    ---------------------

    Doubly Occupied:

       1A    -26.006290     2A    -20.407165     3A    -20.402392
       4A    -20.401431     5A    -20.396028     6A    -20.392281
       7A     -1.275234     8A     -1.184638     9A     -1.183120
      10A     -1.173620    11A     -1.172411    12A     -1.152976
      13A     -0.564519    14A     -0.555659    15A     -0.551021
      16A     -0.545185    17A     -0.535380    18A     -0.435009
      19A     -0.430564    20A     -0.421880    21A     -0.417661
      22A     -0.392467    23A     -0.359342    24A     -0.358280
      25A     -0.355224    26A     -0.349406    27A     -0.346892
      28A     -0.340740    29A     -0.338809    30A     -0.327872

  @DF-RHF Final Energy:  -479.84489487376601

   => Energetics <=

    Nuclear Repulsion Energy =            269.3509983364475602
    One-Electron Energy =               -1212.8447854221014950
    Two-Electron Energy =                 463.6488922118879259
    Total Energy =                       -479.8448948737660089
 Dipole X            :         29.5679695          -28.8239680            0.7440014
 Dipole Y            :        -59.2859776           57.6224002           -1.6635774
 Dipole Z            :         47.8956278          -47.0126954            0.8829324
 Magnitude           :                                                    2.0249932
  Basis Set: (AUG-CC-PVTZ AUX)
    Blend: AUG-CC-PVTZ-RI
	 Reference Energy          =    -479.8448948737660089 [Eh]
	 Singles Energy            =      -0.0000000000000000 [Eh]
	 Same-Spin Energy          =      -0.4347613057419739 [Eh]
	 Opposite-Spin Energy      =      -1.3200163229925095 [Eh]
	 Correlation Energy        =      -1.7547776287344834 [Eh]
	 Total Energy              =    -481.5996725025004821 [Eh]

	 ================> DF-SCS-MP2 Energies <==================
	-----------------------------------------------------------
	 SCS Same-Spin Scale       =       0.3333333333333333 [-]
	 SCS Opposite-Spin Scale   =       1.2000000000000000 [-]
	 SCS Same-Spin Energy      =      -0.1449204352473246 [Eh]
	 SCS Opposite-Spin Energy  =      -1.5840195875910112 [Eh]
	 SCS Correlation Energy    =      -1.7289400228383358 [Eh]
	 SCS Total Energy          =    -481.5738348966043532 [Eh]
	-----------------------------------------------------------

*** Psi4 exiting successfully. Buy a developer a beer!
