                               Psi4 1.8.2 release

  ==> Input File <==

--------------------------------------------------------------------------
MEMORY 60 GB

molecule dimer {
-1 1
F          0.000000     0.000000     0.000000
Gh(O)     -1.040126     1.780657     2.166816
Gh(H)     -0.541147     1.178286     1.649910
Gh(H)     -1.724440     1.333132     2.698770
Gh(O)     -0.523250    -1.125202    -2.408440
Gh(H)     -0.564996    -0.798878    -1.494910
Gh(H)     -0.402714    -0.362971    -3.050029
Gh(O)      2.079503    -1.735904    -1.231855
Gh(H)      2.655438    -2.096123    -0.576863
Gh(H)      1.401799    -1.195079    -0.875190
Gh(O)      1.091125     2.218432    -1.098981
Gh(H)      0.562088     1.505052    -0.640283
Gh(H)      0.885587     2.085152    -2.049570
Gh(O)     -0.959463    -2.533583     0.907767
Gh(H)     -1.720276    -2.363137     1.512543
Gh(H)     -0.469011    -1.671916     0.866917
Gh(O)     -2.444628     1.453668    -0.702895
Gh(H)     -1.752241     0.854757    -0.578124
Gh(H)     -2.784304     1.603587     0.183625

units ang
no_reorient
no_com
symmetry c1
}

set {
basis        aug-cc-pVTZ
scf_type     df
}

energy("mp2")
--------------------------------------------------------------------------

    Molecular point group: c1

    Geometry (in Angstrom), charge = -1, multiplicity = 1:

       Center              X                  Y                   Z               Mass
    ------------   -----------------  -----------------  -----------------  -----------------
         F            0.000000000000     0.000000000000     0.000000000000    18.998403162730
      Gh(O)          -1.040126000000     1.780657000000     2.166816000000    15.994914619570
      Gh(H)          -0.541147000000     1.178286000000     1.649910000000     1.007825032230
      Gh(H)          -1.724440000000     1.333132000000     2.698770000000     1.007825032230
      Gh(O)          -0.523250000000    -1.125202000000    -2.408440000000    15.994914619570
      Gh(H)          -0.564996000000    -0.798878000000    -1.494910000000     1.007825032230
      Gh(H)          -0.402714000000    -0.362971000000    -3.050029000000     1.007825032230
      Gh(O)           2.079503000000    -1.735904000000    -1.231855000000    15.994914619570
      Gh(H)           2.655438000000    -2.096123000000    -0.576863000000     1.007825032230
      Gh(H)           1.401799000000    -1.195079000000    -0.875190000000     1.007825032230
      Gh(O)           1.091125000000     2.218432000000    -1.098981000000    15.994914619570
      Gh(H)           0.562088000000     1.505052000000    -0.640283000000     1.007825032230
      Gh(H)           0.885587000000     2.085152000000    -2.049570000000     1.007825032230
      Gh(O)          -0.959463000000    -2.533583000000     0.907767000000    15.994914619570
      Gh(H)          -1.720276000000    -2.363137000000     1.512543000000     1.007825032230
      Gh(H)          -0.469011000000    -1.671916000000     0.866917000000     1.007825032230
      Gh(O)          -2.444628000000     1.453668000000    -0.702895000000    15.994914619570
      Gh(H)          -1.752241000000     0.854757000000    -0.578124000000     1.007825032230
      Gh(H)          -2.784304000000     1.603587000000     0.183625000000     1.007825032230

  Charge       = -1
  Multiplicity = 1
  Basis Set: AUG-CC-PVTZ
    Blend: AUG-CC-PVTZ
  Basis Set: (AUG-CC-PVTZ AUX)
    Blend: AUG-CC-PVTZ-JKFIT

    Orbital Energies [Eh]
    ---------------------

    Doubly Occupied:

       1A    -25.833523     2A     -1.075862     3A     -0.180917
       4A     -0.180884     5A     -0.180871

  @DF-RHF Final Energy:   -99.45115388184998

   => Energetics <=

    Nuclear Repulsion Energy =              0.0000000000000000
    One-Electron Energy =                -143.9981878102814505
    Two-Electron Energy =                  44.5470339284314676
    Total Energy =                        -99.4511538818499901
 Dipole X            :         -0.0001349            0.0000000           -0.0001349
 Dipole Y            :          0.0000689            0.0000000            0.0000689
 Dipole Z            :         -0.0001698            0.0000000           -0.0001698
 Magnitude           :                                                    0.0002276
  Basis Set: (AUG-CC-PVTZ AUX)
    Blend: AUG-CC-PVTZ-RI
	 Reference Energy          =     -99.4511538818499758 [Eh]
	 Singles Energy            =      -0.0000000000000000 [Eh]
	 Same-Spin Energy          =      -0.0820697543162252 [Eh]
	 Opposite-Spin Energy      =      -0.2302223489792980 [Eh]
	 Correlation Energy        =      -0.3122921032955231 [Eh]
	 Total Energy              =     -99.7634459851454949 [Eh]

	 ================> DF-SCS-MP2 Energies <==================
	-----------------------------------------------------------
	 SCS Same-Spin Scale       =       0.3333333333333333 [-]
	 SCS Opposite-Spin Scale   =       1.2000000000000000 [-]
	 SCS Same-Spin Energy      =      -0.0273565847720751 [Eh]
	 SCS Opposite-Spin Energy  =      -0.2762668187751576 [Eh]
	 SCS Correlation Energy    =      -0.3036234035472327 [Eh]
	 SCS Total Energy          =     -99.7547772853972106 [Eh]
	-----------------------------------------------------------

*** Psi4 exiting successfully. Buy a developer a beer!
