                               Psi4 1.8.2 release

  ==> Input File <==

--------------------------------------------------------------------------
MEMORY 60 GB

molecule dimer {
-1 1
F          0.000000     0.000000     0.000000
O         -2.059057     0.556806    -1.512511
H         -1.631697     0.750314    -2.355200
H         -1.337052     0.357530    -0.924989
O         -1.092632     0.531104     2.514755
H         -0.595685     0.472327     1.701018
H         -0.807881     1.360419     2.908593
O          1.853987     2.045109    -0.296217
H          1.205149     1.477398     0.090440
H          1.333577     2.420067    -1.019413

units ang
no_reorient
no_com
symmetry c1
}

set {
basis        aug-cc-pVTZ
scf_type     df
}

energy("mp2")
--------------------------------------------------------------------------

    Molecular point group: c1

    Geometry (in Angstrom), charge = -1, multiplicity = 1:

       Center              X                  Y                   Z               Mass
    ------------   -----------------  -----------------  -----------------  -----------------
         F            0.000000000000     0.000000000000     0.000000000000    18.998403162730
         O           -2.059057000000     0.556806000000    -1.512511000000    15.994914619570
         H           -1.631697000000     0.750314000000    -2.355200000000     1.007825032230
         H           -1.337052000000     0.357530000000    -0.924989000000     1.007825032230
         O           -1.092632000000     0.531104000000     2.514755000000    15.994914619570
         H           -0.595685000000     0.472327000000     1.701018000000     1.007825032230
         H           -0.807881000000     1.360419000000     2.908593000000     1.007825032230
         O            1.853987000000     2.045109000000    -0.296217000000    15.994914619570
         H            1.205149000000     1.477398000000     0.090440000000     1.007825032230
         H            1.333577000000     2.420067000000    -1.019413000000     1.007825032230

  Charge       = -1
  Multiplicity = 1
  Basis Set: AUG-CC-PVTZ
    Blend: AUG-CC-PVTZ
  Basis Set: (AUG-CC-PVTZ AUX)
    Blend: AUG-CC-PVTZ-JKFIT

    Orbital Energies [Eh]
    ---------------------

    Doubly Occupied:

       1A    -25.940806     2A    -20.393311     3A    -20.387187
       4A    -20.369576     5A     -1.206777     6A     -1.183655
       7A     -1.174666     8A     -1.157894     9A     -0.541431
      10A     -0.539572    11A     -0.528898    12A     -0.430438
      13A     -0.414355    14A     -0.404457    15A     -0.342957
      16A     -0.335203    17A     -0.321941    18A     -0.296773
      19A     -0.295088    20A     -0.293423

  @DF-RHF Final Energy:  -327.71341667404641

   => Energetics <=

    Nuclear Repulsion Energy =            120.5095161570115039
    One-Electron Energy =                -703.3290469974515418
    Two-Electron Energy =                 255.1061141663936382
    Total Energy =                       -327.7134166740464138
 Dipole X            :         23.8570464          -23.0833920            0.7736544
 Dipole Y            :        -60.4639966           60.2864340           -0.1775625
 Dipole Z            :        -12.0760052           11.4303203           -0.6456849
 Magnitude           :                                                    1.0232197
  Basis Set: (AUG-CC-PVTZ AUX)
    Blend: AUG-CC-PVTZ-RI
	 Reference Energy          =    -327.7134166740464138 [Eh]
	 Singles Energy            =      -0.0000000000000000 [Eh]
	 Same-Spin Energy          =      -0.2912979451466020 [Eh]
	 Opposite-Spin Energy      =      -0.8773231853094531 [Eh]
	 Correlation Energy        =      -1.1686211304560550 [Eh]
	 Total Energy              =    -328.8820378045024881 [Eh]

	 ================> DF-SCS-MP2 Energies <==================
	-----------------------------------------------------------
	 SCS Same-Spin Scale       =       0.3333333333333333 [-]
	 SCS Opposite-Spin Scale   =       1.2000000000000000 [-]
	 SCS Same-Spin Energy      =      -0.0970993150488673 [Eh]
	 SCS Opposite-Spin Energy  =      -1.0527878223713436 [Eh]
	 SCS Correlation Energy    =      -1.1498871374202109 [Eh]
	 SCS Total Energy          =    -328.8633038114666078 [Eh]
	-----------------------------------------------------------

*** Psi4 exiting successfully. Buy a developer a beer!
