                               Psi4 1.8.2 release

  ==> Input File <==

--------------------------------------------------------------------------
MEMORY 60 GB

molecule dimer {
-1 1
F          0.000000     0.000000     0.000000
O          1.549726    -0.592173    -2.469497
H          2.491955    -0.304027    -2.354979
H          1.059966    -0.129118    -1.739114
O         -2.109158     0.552064     1.527417
H         -1.303685     0.262813     1.105559
H         -2.150940     1.467686     1.236099
O         -0.658953     2.609487    -0.786580
H         -0.277803     1.841298    -0.414688
H         -1.429545     2.816178    -0.200283
O          1.311910    -1.653315     1.534469
H          0.833433    -0.988070     1.037024
H          0.695205    -2.456602     1.463667
O         -1.617297    -0.996617    -2.102888
H         -1.802101    -0.062886    -2.375282
H         -1.153428    -0.952167    -1.276978

units ang
no_reorient
no_com
symmetry c1
}

set {
basis        aug-cc-pVTZ
scf_type     df
}

energy("mp2")
--------------------------------------------------------------------------

    Molecular point group: c1

    Geometry (in Angstrom), charge = -1, multiplicity = 1:

       Center              X                  Y                   Z               Mass
    ------------   -----------------  -----------------  -----------------  -----------------
         F            0.000000000000     0.000000000000     0.000000000000    18.998403162730
         O            1.549726000000    -0.592173000000    -2.469497000000    15.994914619570
         H            2.491955000000    -0.304027000000    -2.354979000000     1.007825032230
         H            1.059966000000    -0.129118000000    -1.739114000000     1.007825032230
         O           -2.109158000000     0.552064000000     1.527417000000    15.994914619570
         H           -1.303685000000     0.262813000000     1.105559000000     1.007825032230
         H           -2.150940000000     1.467686000000     1.236099000000     1.007825032230
         O           -0.658953000000     2.609487000000    -0.786580000000    15.994914619570
         H           -0.277803000000     1.841298000000    -0.414688000000     1.007825032230
         H           -1.429545000000     2.816178000000    -0.200283000000     1.007825032230
         O            1.311910000000    -1.653315000000     1.534469000000    15.994914619570
         H            0.833433000000    -0.988070000000     1.037024000000     1.007825032230
         H            0.695205000000    -2.456602000000     1.463667000000     1.007825032230
         O           -1.617297000000    -0.996617000000    -2.102888000000    15.994914619570
         H           -1.802101000000    -0.062886000000    -2.375282000000     1.007825032230
         H           -1.153428000000    -0.952167000000    -1.276978000000     1.007825032230

  Charge       = -1
  Multiplicity = 1
  Basis Set: AUG-CC-PVTZ
    Blend: AUG-CC-PVTZ
  Basis Set: (AUG-CC-PVTZ AUX)
    Blend: AUG-CC-PVTZ-JKFIT

    Orbital Energies [Eh]
    ---------------------

    Doubly Occupied:

       1A    -26.000508     2A    -20.427731     3A    -20.412938
       4A    -20.405205     5A    -20.396212     6A    -20.391567
       7A     -1.272297     8A     -1.213772     9A     -1.196553
      10A     -1.178879    11A     -1.176280    12A     -1.164146
      13A     -0.581970    14A     -0.559072    15A     -0.551282
      16A     -0.540647    17A     -0.531445    18A     -0.463463
      19A     -0.436708    20A     -0.426505    21A     -0.422714
      22A     -0.418570    23A     -0.375204    24A     -0.361776
      25A     -0.359973    26A     -0.351706    27A     -0.349316
      28A     -0.345206    29A     -0.339010    30A     -0.331754

  @DF-RHF Final Energy:  -479.85166830594187

   => Energetics <=

    Nuclear Repulsion Energy =            266.1201257467675418
    One-Electron Energy =               -1205.9787656064274870
    Two-Electron Energy =                 460.0069715537180173
    Total Energy =                       -479.8516683059418710
 Dipole X            :         29.0287036          -28.7750846            0.2536190
 Dipole Y            :         -0.5462982            1.6075390            1.0612408
 Dipole Z            :         42.0842288          -41.3767006            0.7075282
 Magnitude           :                                                    1.3004426
  Basis Set: (AUG-CC-PVTZ AUX)
    Blend: AUG-CC-PVTZ-RI
	 Reference Energy          =    -479.8516683059418710 [Eh]
	 Singles Energy            =      -0.0000000000000000 [Eh]
	 Same-Spin Energy          =      -0.4331359871965229 [Eh]
	 Opposite-Spin Energy      =      -1.3173536497550860 [Eh]
	 Correlation Energy        =      -1.7504896369516088 [Eh]
	 Total Energy              =    -481.6021579428934842 [Eh]

	 ================> DF-SCS-MP2 Energies <==================
	-----------------------------------------------------------
	 SCS Same-Spin Scale       =       0.3333333333333333 [-]
	 SCS Opposite-Spin Scale   =       1.2000000000000000 [-]
	 SCS Same-Spin Energy      =      -0.1443786623988410 [Eh]
	 SCS Opposite-Spin Energy  =      -1.5808243797061030 [Eh]
	 SCS Correlation Energy    =      -1.7252030421049440 [Eh]
	 SCS Total Energy          =    -481.5768713480468364 [Eh]
	-----------------------------------------------------------

*** Psi4 exiting successfully. Buy a developer a beer!
