                               Psi4 1.8.2 release

  ==> Input File <==

--------------------------------------------------------------------------
MEMORY 60 GB

molecule dimer {
-1 1
F          0.000000     0.000000     0.000000
O          1.999981     1.872363    -0.549390
H          1.832241     2.798537    -0.384091
H          1.190518     1.366946    -0.536042
O         -0.732147    -0.508733    -2.638181
H         -0.559848    -0.335039    -1.688412
H         -1.560312    -0.049892    -2.825446
O         -1.396072     2.119528     1.247335
H         -0.668981     2.736259     1.112284
H         -0.986667     1.275496     1.030001
O          0.539337    -2.569316     0.762966
H          0.351918    -1.701170     0.380121
H          0.432027    -3.158462     0.035461
O          2.295897     0.161463     1.842537
H          1.406911     0.065818     2.189690
H          2.212168     0.621719     0.983706
O         -2.515644    -1.246307     0.318199
H         -2.419320    -2.143283    -0.096705
H         -1.667771    -0.781486     0.321701

units ang
no_reorient
no_com
symmetry c1
}

set {
basis        aug-cc-pVTZ
scf_type     df
}

energy("mp2")
--------------------------------------------------------------------------

    Molecular point group: c1

    Geometry (in Angstrom), charge = -1, multiplicity = 1:

       Center              X                  Y                   Z               Mass
    ------------   -----------------  -----------------  -----------------  -----------------
         F            0.000000000000     0.000000000000     0.000000000000    18.998403162730
         O            1.999981000000     1.872363000000    -0.549390000000    15.994914619570
         H            1.832241000000     2.798537000000    -0.384091000000     1.007825032230
         H            1.190518000000     1.366946000000    -0.536042000000     1.007825032230
         O           -0.732147000000    -0.508733000000    -2.638181000000    15.994914619570
         H           -0.559848000000    -0.335039000000    -1.688412000000     1.007825032230
         H           -1.560312000000    -0.049892000000    -2.825446000000     1.007825032230
         O           -1.396072000000     2.119528000000     1.247335000000    15.994914619570
         H           -0.668981000000     2.736259000000     1.112284000000     1.007825032230
         H           -0.986667000000     1.275496000000     1.030001000000     1.007825032230
         O            0.539337000000    -2.569316000000     0.762966000000    15.994914619570
         H            0.351918000000    -1.701170000000     0.380121000000     1.007825032230
         H            0.432027000000    -3.158462000000     0.035461000000     1.007825032230
         O            2.295897000000     0.161463000000     1.842537000000    15.994914619570
         H            1.406911000000     0.065818000000     2.189690000000     1.007825032230
         H            2.212168000000     0.621719000000     0.983706000000     1.007825032230
         O           -2.515644000000    -1.246307000000     0.318199000000    15.994914619570
         H           -2.419320000000    -2.143283000000    -0.096705000000     1.007825032230
         H           -1.667771000000    -0.781486000000     0.321701000000     1.007825032230

  Charge       = -1
  Multiplicity = 1
  Basis Set: AUG-CC-PVTZ
    Blend: AUG-CC-PVTZ
  Basis Set: (AUG-CC-PVTZ AUX)
    Blend: AUG-CC-PVTZ-JKFIT

    Orbital Energies [Eh]
    ---------------------

    Doubly Occupied:

       1A    -26.015953     2A    -20.434965     3A    -20.422043
       4A    -20.412737     5A    -20.409841     6A    -20.399392
       7A    -20.396397     8A     -1.285873     9A     -1.226960
      10A     -1.208303    11A     -1.193218    12A     -1.192395
      13A     -1.183551    14A     -1.178178    15A     -0.611593
      16A     -0.573421    17A     -0.566383    18A     -0.562017
      19A     -0.556433    20A     -0.550601    21A     -0.460050
      22A     -0.449236    23A     -0.441795    24A     -0.436284
      25A     -0.425521    26A     -0.420329    27A     -0.379985
      28A     -0.374255    29A     -0.372373    30A     -0.367345
      31A     -0.363398    32A     -0.360094    33A     -0.352796
      34A     -0.344530    35A     -0.337745

  @DF-RHF Final Energy:  -555.93168457859713

   => Energetics <=

    Nuclear Repulsion Energy =            357.0642659863975723
    One-Electron Energy =               -1493.4599183256748347
    Two-Electron Energy =                 580.4639677606800205
    Total Energy =                       -555.9316845785971282
 Dipole X            :         -2.4738552            2.0667935           -0.4070617
 Dipole Y            :          2.0774233           -1.2709788            0.8064446
 Dipole Z            :        -16.8702883           15.8547946           -1.0154936
 Magnitude           :                                                    1.3591466
  Basis Set: (AUG-CC-PVTZ AUX)
    Blend: AUG-CC-PVTZ-RI
	 Reference Energy          =    -555.9316845785971282 [Eh]
	 Singles Energy            =      -0.0000000000000000 [Eh]
	 Same-Spin Energy          =      -0.5033123254866851 [Eh]
	 Opposite-Spin Energy      =      -1.5336308428125065 [Eh]
	 Correlation Energy        =      -2.0369431682991914 [Eh]
	 Total Energy              =    -557.9686277468963453 [Eh]

	 ================> DF-SCS-MP2 Energies <==================
	-----------------------------------------------------------
	 SCS Same-Spin Scale       =       0.3333333333333333 [-]
	 SCS Opposite-Spin Scale   =       1.2000000000000000 [-]
	 SCS Same-Spin Energy      =      -0.1677707751622284 [Eh]
	 SCS Opposite-Spin Energy  =      -1.8403570113750076 [Eh]
	 SCS Correlation Energy    =      -2.0081277865372362 [Eh]
	 SCS Total Energy          =    -557.9398123651343440 [Eh]
	-----------------------------------------------------------

*** Psi4 exiting successfully. Buy a developer a beer!
