                               Psi4 1.8.2 release

  ==> Input File <==

--------------------------------------------------------------------------
MEMORY 60 GB

molecule dimer {
-1 1
F          0.000000     0.000000     0.000000
O         -1.321441     0.970764    -2.225812
H         -0.992916     0.400039    -2.920581
H         -0.802183     0.568251    -1.489213
O          2.432565     0.546593    -1.243689
H          1.612306     0.359837    -0.841379
H          3.048573     0.013676    -0.665711
O          1.240147    -0.379821     2.518952
H          0.671240    -0.081223     1.806606
H          1.223288     0.336111     3.147064
O         -2.197900     1.504597     0.957569
H         -1.493668     1.001179     0.522195
H         -2.471022     2.300322     0.431031
O          0.087719    -2.460204    -1.250966
H          0.036346    -1.654206    -0.668350
H          0.899697    -2.835357    -1.025072

units ang
no_reorient
no_com
symmetry c1
}

set {
basis        aug-cc-pVTZ
scf_type     df
}

energy("mp2")
--------------------------------------------------------------------------

    Molecular point group: c1

    Geometry (in Angstrom), charge = -1, multiplicity = 1:

       Center              X                  Y                   Z               Mass
    ------------   -----------------  -----------------  -----------------  -----------------
         F            0.000000000000     0.000000000000     0.000000000000    18.998403162730
         O           -1.321441000000     0.970764000000    -2.225812000000    15.994914619570
         H           -0.992916000000     0.400039000000    -2.920581000000     1.007825032230
         H           -0.802183000000     0.568251000000    -1.489213000000     1.007825032230
         O            2.432565000000     0.546593000000    -1.243689000000    15.994914619570
         H            1.612306000000     0.359837000000    -0.841379000000     1.007825032230
         H            3.048573000000     0.013676000000    -0.665711000000     1.007825032230
         O            1.240147000000    -0.379821000000     2.518952000000    15.994914619570
         H            0.671240000000    -0.081223000000     1.806606000000     1.007825032230
         H            1.223288000000     0.336111000000     3.147064000000     1.007825032230
         O           -2.197900000000     1.504597000000     0.957569000000    15.994914619570
         H           -1.493668000000     1.001179000000     0.522195000000     1.007825032230
         H           -2.471022000000     2.300322000000     0.431031000000     1.007825032230
         O            0.087719000000    -2.460204000000    -1.250966000000    15.994914619570
         H            0.036346000000    -1.654206000000    -0.668350000000     1.007825032230
         H            0.899697000000    -2.835357000000    -1.025072000000     1.007825032230

  Charge       = -1
  Multiplicity = 1
  Basis Set: AUG-CC-PVTZ
    Blend: AUG-CC-PVTZ
  Basis Set: (AUG-CC-PVTZ AUX)
    Blend: AUG-CC-PVTZ-JKFIT

    Orbital Energies [Eh]
    ---------------------

    Doubly Occupied:

       1A    -26.001212     2A    -20.414060     3A    -20.406827
       4A    -20.400565     5A    -20.398793     6A    -20.397936
       7A     -1.269834     8A     -1.203816     9A     -1.192167
      10A     -1.190902    11A     -1.182059    12A     -1.172598
      13A     -0.570333    14A     -0.561463    15A     -0.554586
      16A     -0.549812    17A     -0.530904    18A     -0.443706
      19A     -0.440248    20A     -0.436586    21A     -0.432908
      22A     -0.408747    23A     -0.365535    24A     -0.360245
      25A     -0.358178    26A     -0.352725    27A     -0.350321
      28A     -0.344999    29A     -0.342355    30A     -0.339729

  @DF-RHF Final Energy:  -479.86382630513589

   => Energetics <=

    Nuclear Repulsion Energy =            261.8761876019625561
    One-Electron Energy =               -1197.5317200744902948
    Two-Electron Energy =                 455.7917061673918511
    Total Energy =                       -479.8638263051358877
 Dipole X            :         -6.1618262            6.9171176            0.7552914
 Dipole Y            :         -3.4688665            3.5225648            0.0536983
 Dipole Z            :         22.7279194          -22.0247164            0.7032030
 Magnitude           :                                                    1.0333650
  Basis Set: (AUG-CC-PVTZ AUX)
    Blend: AUG-CC-PVTZ-RI
	 Reference Energy          =    -479.8638263051358877 [Eh]
	 Singles Energy            =      -0.0000000000000000 [Eh]
	 Same-Spin Energy          =      -0.4323801436724420 [Eh]
	 Opposite-Spin Energy      =      -1.3149463640497381 [Eh]
	 Correlation Energy        =      -1.7473265077221800 [Eh]
	 Total Energy              =    -481.6111528128580517 [Eh]

	 ================> DF-SCS-MP2 Energies <==================
	-----------------------------------------------------------
	 SCS Same-Spin Scale       =       0.3333333333333333 [-]
	 SCS Opposite-Spin Scale   =       1.2000000000000000 [-]
	 SCS Same-Spin Energy      =      -0.1441267145574807 [Eh]
	 SCS Opposite-Spin Energy  =      -1.5779356368596857 [Eh]
	 SCS Correlation Energy    =      -1.7220623514171665 [Eh]
	 SCS Total Energy          =    -481.5858886565530383 [Eh]
	-----------------------------------------------------------

*** Psi4 exiting successfully. Buy a developer a beer!
