                               Psi4 1.8.2 release

  ==> Input File <==

--------------------------------------------------------------------------
MEMORY 60 GB

molecule dimer {
-1 1
F          0.000000     0.000000     0.000000
O         -1.634092    -2.280820    -0.139745
H         -2.469094    -2.598153    -0.454292
H         -1.459954    -1.358967    -0.387524
O          2.308208    -1.014352     1.406738
H          2.138362    -1.947872     1.369305
H          1.553052    -0.587244     0.905967
O         -0.221383     0.329741     2.737359
H         -0.415990     0.182845     1.824673
H          0.050573     1.283931     2.640379
O          1.357013    -0.222007    -2.440875
H          1.051868    -0.181679    -1.581215
H          0.660440    -0.731668    -2.801612
O         -1.883257     1.778764    -0.837831
H         -1.474462     2.655647    -0.726004
H         -1.106142     1.188873    -0.668005

units ang
no_reorient
no_com
symmetry c1
}

set {
basis        aug-cc-pVTZ
scf_type     df
}

energy("mp2")
--------------------------------------------------------------------------

    Molecular point group: c1

    Geometry (in Angstrom), charge = -1, multiplicity = 1:

       Center              X                  Y                   Z               Mass
    ------------   -----------------  -----------------  -----------------  -----------------
         F            0.000000000000     0.000000000000     0.000000000000    18.998403162730
         O           -1.634092000000    -2.280820000000    -0.139745000000    15.994914619570
         H           -2.469094000000    -2.598153000000    -0.454292000000     1.007825032230
         H           -1.459954000000    -1.358967000000    -0.387524000000     1.007825032230
         O            2.308208000000    -1.014352000000     1.406738000000    15.994914619570
         H            2.138362000000    -1.947872000000     1.369305000000     1.007825032230
         H            1.553052000000    -0.587244000000     0.905967000000     1.007825032230
         O           -0.221383000000     0.329741000000     2.737359000000    15.994914619570
         H           -0.415990000000     0.182845000000     1.824673000000     1.007825032230
         H            0.050573000000     1.283931000000     2.640379000000     1.007825032230
         O            1.357013000000    -0.222007000000    -2.440875000000    15.994914619570
         H            1.051868000000    -0.181679000000    -1.581215000000     1.007825032230
         H            0.660440000000    -0.731668000000    -2.801612000000     1.007825032230
         O           -1.883257000000     1.778764000000    -0.837831000000    15.994914619570
         H           -1.474462000000     2.655647000000    -0.726004000000     1.007825032230
         H           -1.106142000000     1.188873000000    -0.668005000000     1.007825032230

  Charge       = -1
  Multiplicity = 1
  Basis Set: AUG-CC-PVTZ
    Blend: AUG-CC-PVTZ
  Basis Set: (AUG-CC-PVTZ AUX)
    Blend: AUG-CC-PVTZ-JKFIT

    Orbital Energies [Eh]
    ---------------------

    Doubly Occupied:

       1A    -25.991041     2A    -20.415774     3A    -20.407976
       4A    -20.399555     5A    -20.395041     6A    -20.387857
       7A     -1.258520     8A     -1.214327     9A     -1.200550
      10A     -1.183627    11A     -1.178669    12A     -1.166708
      13A     -0.586730    14A     -0.563832    15A     -0.545895
      16A     -0.534888    17A     -0.524334    18A     -0.451937
      19A     -0.438799    20A     -0.432267    21A     -0.424434
      22A     -0.411028    23A     -0.363456    24A     -0.358317
      25A     -0.354028    26A     -0.352283    27A     -0.349306
      28A     -0.339521    29A     -0.337368    30A     -0.323912

  @DF-RHF Final Energy:  -479.85169802701370

   => Energetics <=

    Nuclear Repulsion Energy =            261.4392877150478967
    One-Electron Energy =               -1196.7980016983319729
    Two-Electron Energy =                 455.5070159562704362
    Total Energy =                       -479.8516980270136969
 Dipole X            :          3.0306649           -3.8917681           -0.8611033
 Dipole Y            :         25.7063245          -25.2536933            0.4526311
 Dipole Z            :        -12.0717665           11.2001044           -0.8716621
 Magnitude           :                                                    1.3062039
  Basis Set: (AUG-CC-PVTZ AUX)
    Blend: AUG-CC-PVTZ-RI
	 Reference Energy          =    -479.8516980270136969 [Eh]
	 Singles Energy            =      -0.0000000000000000 [Eh]
	 Same-Spin Energy          =      -0.4316947465333401 [Eh]
	 Opposite-Spin Energy      =      -1.3136980296135368 [Eh]
	 Correlation Energy        =      -1.7453927761468768 [Eh]
	 Total Energy              =    -481.5970908031605973 [Eh]

	 ================> DF-SCS-MP2 Energies <==================
	-----------------------------------------------------------
	 SCS Same-Spin Scale       =       0.3333333333333333 [-]
	 SCS Opposite-Spin Scale   =       1.2000000000000000 [-]
	 SCS Same-Spin Energy      =      -0.1438982488444467 [Eh]
	 SCS Opposite-Spin Energy  =      -1.5764376355362442 [Eh]
	 SCS Correlation Energy    =      -1.7203358843806908 [Eh]
	 SCS Total Energy          =    -481.5720339113943851 [Eh]
	-----------------------------------------------------------

*** Psi4 exiting successfully. Buy a developer a beer!
