                               Psi4 1.8.2 release

  ==> Input File <==

--------------------------------------------------------------------------
MEMORY 60 GB

molecule dimer {
0 1
Gh(F)      0.000000     0.000000     0.000000
Gh(O)      1.599440     1.216847     1.915026
Gh(H)      1.076424     0.939159     1.131161
Gh(H)      2.405637     0.730202     1.630886
Gh(O)     -1.950120     1.489343     1.254761
Gh(H)     -2.210763     2.196777     0.595546
Gh(H)     -1.188356     1.080520     0.800691
Gh(O)      2.106700    -1.786745     0.194161
Gh(H)      1.282870    -1.276896     0.082122
Gh(H)      2.847852    -1.236742     0.198292
O         -1.971584    -2.024256    -0.027666
H         -2.186941    -2.154435     0.910808
H         -1.329755    -1.251018    -0.064590
Gh(O)      0.901895     0.402744    -2.703264
Gh(H)      0.603349     0.310057    -1.796013
Gh(H)      1.403576     1.255826    -2.725926

units ang
no_reorient
no_com
symmetry c1
}

set {
basis        aug-cc-pVTZ
scf_type     df
}

energy("mp2")
--------------------------------------------------------------------------

    Molecular point group: c1

    Geometry (in Angstrom), charge = 0, multiplicity = 1:

       Center              X                  Y                   Z               Mass
    ------------   -----------------  -----------------  -----------------  -----------------
      Gh(F)           0.000000000000     0.000000000000     0.000000000000    18.998403162730
      Gh(O)           1.599440000000     1.216847000000     1.915026000000    15.994914619570
      Gh(H)           1.076424000000     0.939159000000     1.131161000000     1.007825032230
      Gh(H)           2.405637000000     0.730202000000     1.630886000000     1.007825032230
      Gh(O)          -1.950120000000     1.489343000000     1.254761000000    15.994914619570
      Gh(H)          -2.210763000000     2.196777000000     0.595546000000     1.007825032230
      Gh(H)          -1.188356000000     1.080520000000     0.800691000000     1.007825032230
      Gh(O)           2.106700000000    -1.786745000000     0.194161000000    15.994914619570
      Gh(H)           1.282870000000    -1.276896000000     0.082122000000     1.007825032230
      Gh(H)           2.847852000000    -1.236742000000     0.198292000000     1.007825032230
         O           -1.971584000000    -2.024256000000    -0.027666000000    15.994914619570
         H           -2.186941000000    -2.154435000000     0.910808000000     1.007825032230
         H           -1.329755000000    -1.251018000000    -0.064590000000     1.007825032230
      Gh(O)           0.901895000000     0.402744000000    -2.703264000000    15.994914619570
      Gh(H)           0.603349000000     0.310057000000    -1.796013000000     1.007825032230
      Gh(H)           1.403576000000     1.255826000000    -2.725926000000     1.007825032230

  Charge       = 0
  Multiplicity = 1
  Basis Set: AUG-CC-PVTZ
    Blend: AUG-CC-PVTZ
  Basis Set: (AUG-CC-PVTZ AUX)
    Blend: AUG-CC-PVTZ-JKFIT

    Orbital Energies [Eh]
    ---------------------

    Doubly Occupied:

       1A    -20.571653     2A     -1.336998     3A     -0.704153
       4A     -0.575395     5A     -0.507318

  @DF-RHF Final Energy:   -76.05629487650891

   => Energetics <=

    Nuclear Repulsion Energy =              8.9014636885741378
    One-Electron Energy =                -122.5244790731071021
    Two-Electron Energy =                  37.5667205080240336
    Total Energy =                        -76.0562948765089288
 Dipole X            :         36.7283981          -36.4516227            0.2767754
 Dipole Y            :         37.4567279          -37.0376891            0.4190389
 Dipole Z            :         -0.5864159            1.1808710            0.5944551
 Magnitude           :                                                    0.7781870
  Basis Set: (AUG-CC-PVTZ AUX)
    Blend: AUG-CC-PVTZ-RI
	 Reference Energy          =     -76.0562948765089146 [Eh]
	 Singles Energy            =      -0.0000000000000000 [Eh]
	 Same-Spin Energy          =      -0.0689130990839689 [Eh]
	 Opposite-Spin Energy      =      -0.2176501428995984 [Eh]
	 Correlation Energy        =      -0.2865632419835674 [Eh]
	 Total Energy              =     -76.3428581184924866 [Eh]

	 ================> DF-SCS-MP2 Energies <==================
	-----------------------------------------------------------
	 SCS Same-Spin Scale       =       0.3333333333333333 [-]
	 SCS Opposite-Spin Scale   =       1.2000000000000000 [-]
	 SCS Same-Spin Energy      =      -0.0229710330279896 [Eh]
	 SCS Opposite-Spin Energy  =      -0.2611801714795181 [Eh]
	 SCS Correlation Energy    =      -0.2841512045075077 [Eh]
	 SCS Total Energy          =     -76.3404460810164238 [Eh]
	-----------------------------------------------------------

*** Psi4 exiting successfully. Buy a developer a beer!
