                               Psi4 1.8.2 release

  ==> Input File <==

--------------------------------------------------------------------------
MEMORY 60 GB

molecule dimer {
-1 1
F          0.000000     0.000000     0.000000
O         -0.952365     1.069811     2.420031
H         -1.809142     1.433385     2.206942
H         -0.677213     0.589182     1.599917
O         -2.646160    -0.758425    -0.155469
H         -1.673478    -0.567133     0.114755
H         -2.882933    -1.589745     0.287001
O         -0.629425     1.382429    -2.327001
H         -0.579909     1.003938    -1.422959
H         -1.177112     2.140621    -2.269006
O          2.229730     1.512680     0.749307
H          1.907904     1.873311     1.582375
H          1.496351     0.913088     0.515515
O          0.351042    -2.383392     1.594232
H         -0.034028    -1.661486     0.966528
H          1.180438    -2.089714     1.976787

units ang
no_reorient
no_com
symmetry c1
}

set {
basis        aug-cc-pVTZ
scf_type     df
}

energy("mp2")
--------------------------------------------------------------------------

    Molecular point group: c1

    Geometry (in Angstrom), charge = -1, multiplicity = 1:

       Center              X                  Y                   Z               Mass
    ------------   -----------------  -----------------  -----------------  -----------------
         F            0.000000000000     0.000000000000     0.000000000000    18.998403162730
         O           -0.952365000000     1.069811000000     2.420031000000    15.994914619570
         H           -1.809142000000     1.433385000000     2.206942000000     1.007825032230
         H           -0.677213000000     0.589182000000     1.599917000000     1.007825032230
         O           -2.646160000000    -0.758425000000    -0.155469000000    15.994914619570
         H           -1.673478000000    -0.567133000000     0.114755000000     1.007825032230
         H           -2.882933000000    -1.589745000000     0.287001000000     1.007825032230
         O           -0.629425000000     1.382429000000    -2.327001000000    15.994914619570
         H           -0.579909000000     1.003938000000    -1.422959000000     1.007825032230
         H           -1.177112000000     2.140621000000    -2.269006000000     1.007825032230
         O            2.229730000000     1.512680000000     0.749307000000    15.994914619570
         H            1.907904000000     1.873311000000     1.582375000000     1.007825032230
         H            1.496351000000     0.913088000000     0.515515000000     1.007825032230
         O            0.351042000000    -2.383392000000     1.594232000000    15.994914619570
         H           -0.034028000000    -1.661486000000     0.966528000000     1.007825032230
         H            1.180438000000    -2.089714000000     1.976787000000     1.007825032230

  Charge       = -1
  Multiplicity = 1
  Basis Set: AUG-CC-PVTZ
    Blend: AUG-CC-PVTZ
  Basis Set: (AUG-CC-PVTZ AUX)
    Blend: AUG-CC-PVTZ-JKFIT

    Orbital Energies [Eh]
    ---------------------

    Doubly Occupied:

       1A    -26.009152     2A    -20.415159     3A    -20.414266
       4A    -20.413511     5A    -20.399633     6A    -20.395287
       7A     -1.276924     8A     -1.196485     9A     -1.184070
      10A     -1.182888    11A     -1.179543    12A     -1.179013
      13A     -0.567770    14A     -0.560034    15A     -0.558012
      16A     -0.549481    17A     -0.538678    18A     -0.444268
      19A     -0.437420    20A     -0.430940    21A     -0.424270
      22A     -0.416772    23A     -0.366311    24A     -0.362760
      25A     -0.359626    26A     -0.358078    27A     -0.351996
      28A     -0.348659    29A     -0.343295    30A     -0.341175

  @DF-RHF Final Energy:  -479.85577711335674

   => Energetics <=

    Nuclear Repulsion Energy =            263.8506937295015859
    One-Electron Energy =               -1201.4019877433922829
    Two-Electron Energy =                 457.6955169005339599
    Total Energy =                       -479.8557771133567371
 Dipole X            :         32.5632445          -32.9313993           -0.3681547
 Dipole Y            :        -16.1829263           16.3088486            0.1259222
 Dipole Z            :        -44.6889144           44.9880579            0.2991436
 Magnitude           :                                                    0.4907965
  Basis Set: (AUG-CC-PVTZ AUX)
    Blend: AUG-CC-PVTZ-RI
	 Reference Energy          =    -479.8557771133567371 [Eh]
	 Singles Energy            =      -0.0000000000000000 [Eh]
	 Same-Spin Energy          =      -0.4342267552488428 [Eh]
	 Opposite-Spin Energy      =      -1.3184762300649548 [Eh]
	 Correlation Energy        =      -1.7527029853137976 [Eh]
	 Total Energy              =    -481.6084800986705545 [Eh]

	 ================> DF-SCS-MP2 Energies <==================
	-----------------------------------------------------------
	 SCS Same-Spin Scale       =       0.3333333333333333 [-]
	 SCS Opposite-Spin Scale   =       1.2000000000000000 [-]
	 SCS Same-Spin Energy      =      -0.1447422517496142 [Eh]
	 SCS Opposite-Spin Energy  =      -1.5821714760779457 [Eh]
	 SCS Correlation Energy    =      -1.7269137278275599 [Eh]
	 SCS Total Energy          =    -481.5826908411842737 [Eh]
	-----------------------------------------------------------

*** Psi4 exiting successfully. Buy a developer a beer!
