                               Psi4 1.8.2 release

  ==> Input File <==

--------------------------------------------------------------------------
MEMORY 60 GB

molecule dimer {
-1 1
F          0.000000     0.000000     0.000000
Gh(O)     -1.006216    -0.656294    -2.699179
Gh(H)     -1.494548     0.181956    -2.928445
Gh(H)     -0.539619    -0.569324    -1.861169
Gh(O)      1.610323     1.707632    -1.491867
Gh(H)      1.013163     2.482512    -1.512988
Gh(H)      1.164599     1.015320    -1.082122
Gh(O)     -1.681240    -2.035223     1.447043
Gh(H)     -1.235665    -1.300377     0.974924
Gh(H)     -2.630026    -1.906729     1.111423
Gh(O)      2.021760    -1.325611     0.977475
Gh(H)      1.199443    -1.017688     0.585508
Gh(H)      2.376563    -1.912348     0.315540

units ang
no_reorient
no_com
symmetry c1
}

set {
basis        aug-cc-pVTZ
scf_type     df
}

energy("mp2")
--------------------------------------------------------------------------

    Molecular point group: c1

    Geometry (in Angstrom), charge = -1, multiplicity = 1:

       Center              X                  Y                   Z               Mass
    ------------   -----------------  -----------------  -----------------  -----------------
         F            0.000000000000     0.000000000000     0.000000000000    18.998403162730
      Gh(O)          -1.006216000000    -0.656294000000    -2.699179000000    15.994914619570
      Gh(H)          -1.494548000000     0.181956000000    -2.928445000000     1.007825032230
      Gh(H)          -0.539619000000    -0.569324000000    -1.861169000000     1.007825032230
      Gh(O)           1.610323000000     1.707632000000    -1.491867000000    15.994914619570
      Gh(H)           1.013163000000     2.482512000000    -1.512988000000     1.007825032230
      Gh(H)           1.164599000000     1.015320000000    -1.082122000000     1.007825032230
      Gh(O)          -1.681240000000    -2.035223000000     1.447043000000    15.994914619570
      Gh(H)          -1.235665000000    -1.300377000000     0.974924000000     1.007825032230
      Gh(H)          -2.630026000000    -1.906729000000     1.111423000000     1.007825032230
      Gh(O)           2.021760000000    -1.325611000000     0.977475000000    15.994914619570
      Gh(H)           1.199443000000    -1.017688000000     0.585508000000     1.007825032230
      Gh(H)           2.376563000000    -1.912348000000     0.315540000000     1.007825032230

  Charge       = -1
  Multiplicity = 1
  Basis Set: AUG-CC-PVTZ
    Blend: AUG-CC-PVTZ
  Basis Set: (AUG-CC-PVTZ AUX)
    Blend: AUG-CC-PVTZ-JKFIT

    Orbital Energies [Eh]
    ---------------------

    Doubly Occupied:

       1A    -25.833641     2A     -1.075933     3A     -0.180959
       4A     -0.180934     5A     -0.180900

  @DF-RHF Final Energy:   -99.45105412084067

   => Energetics <=

    Nuclear Repulsion Energy =              0.0000000000000000
    One-Electron Energy =                -143.9973729796944042
    Two-Electron Energy =                  44.5463188588537307
    Total Energy =                        -99.4510541208406664
 Dipole X            :          0.0002825            0.0000000            0.0002825
 Dipole Y            :         -0.0002276            0.0000000           -0.0002276
 Dipole Z            :         -0.0001606            0.0000000           -0.0001606
 Magnitude           :                                                    0.0003967
  Basis Set: (AUG-CC-PVTZ AUX)
    Blend: AUG-CC-PVTZ-RI
	 Reference Energy          =     -99.4510541208406664 [Eh]
	 Singles Energy            =      -0.0000000000000000 [Eh]
	 Same-Spin Energy          =      -0.0819707879584108 [Eh]
	 Opposite-Spin Energy      =      -0.2294329195375290 [Eh]
	 Correlation Energy        =      -0.3114037074959398 [Eh]
	 Total Energy              =     -99.7624578283366077 [Eh]

	 ================> DF-SCS-MP2 Energies <==================
	-----------------------------------------------------------
	 SCS Same-Spin Scale       =       0.3333333333333333 [-]
	 SCS Opposite-Spin Scale   =       1.2000000000000000 [-]
	 SCS Same-Spin Energy      =      -0.0273235959861369 [Eh]
	 SCS Opposite-Spin Energy  =      -0.2753195034450348 [Eh]
	 SCS Correlation Energy    =      -0.3026430994311717 [Eh]
	 SCS Total Energy          =     -99.7536972202718317 [Eh]
	-----------------------------------------------------------

*** Psi4 exiting successfully. Buy a developer a beer!
