                               Psi4 1.8.2 release

  ==> Input File <==

--------------------------------------------------------------------------
MEMORY 60 GB

molecule dimer {
0 1
Gh(F)      0.000000     0.000000     0.000000
Gh(O)      1.943180    -1.481226    -1.533782
Gh(H)      1.492731    -0.983818    -0.762784
Gh(H)      2.895702    -1.591579    -1.366159
Gh(O)     -0.762415     1.620087    -2.169231
Gh(H)     -0.422253     1.106304    -1.431278
Gh(H)     -0.462493     2.531093    -2.014487
O         -2.519270    -0.464213     1.233913
H         -1.590893    -0.214604     1.060676
H         -2.543855    -0.853043     2.077102
Gh(O)      0.060032     2.294594     1.777243
Gh(H)      1.059937     2.316459     1.901961
Gh(H)     -0.003335     1.560682     1.110421
Gh(O)      0.992398    -1.552165     2.215795
Gh(H)      0.275212    -1.674051     2.882465
Gh(H)      0.602353    -1.005947     1.522455
Gh(O)     -1.286709    -1.923112    -1.483128
Gh(H)     -0.842732    -1.225214    -0.978564
Gh(H)     -0.645524    -2.673708    -1.551089

units ang
no_reorient
no_com
symmetry c1
}

set {
basis        aug-cc-pVTZ
scf_type     df
}

energy("mp2")
--------------------------------------------------------------------------

    Molecular point group: c1

    Geometry (in Angstrom), charge = 0, multiplicity = 1:

       Center              X                  Y                   Z               Mass
    ------------   -----------------  -----------------  -----------------  -----------------
      Gh(F)           0.000000000000     0.000000000000     0.000000000000    18.998403162730
      Gh(O)           1.943180000000    -1.481226000000    -1.533782000000    15.994914619570
      Gh(H)           1.492731000000    -0.983818000000    -0.762784000000     1.007825032230
      Gh(H)           2.895702000000    -1.591579000000    -1.366159000000     1.007825032230
      Gh(O)          -0.762415000000     1.620087000000    -2.169231000000    15.994914619570
      Gh(H)          -0.422253000000     1.106304000000    -1.431278000000     1.007825032230
      Gh(H)          -0.462493000000     2.531093000000    -2.014487000000     1.007825032230
         O           -2.519270000000    -0.464213000000     1.233913000000    15.994914619570
         H           -1.590893000000    -0.214604000000     1.060676000000     1.007825032230
         H           -2.543855000000    -0.853043000000     2.077102000000     1.007825032230
      Gh(O)           0.060032000000     2.294594000000     1.777243000000    15.994914619570
      Gh(H)           1.059937000000     2.316459000000     1.901961000000     1.007825032230
      Gh(H)          -0.003335000000     1.560682000000     1.110421000000     1.007825032230
      Gh(O)           0.992398000000    -1.552165000000     2.215795000000    15.994914619570
      Gh(H)           0.275212000000    -1.674051000000     2.882465000000     1.007825032230
      Gh(H)           0.602353000000    -1.005947000000     1.522455000000     1.007825032230
      Gh(O)          -1.286709000000    -1.923112000000    -1.483128000000    15.994914619570
      Gh(H)          -0.842732000000    -1.225214000000    -0.978564000000     1.007825032230
      Gh(H)          -0.645524000000    -2.673708000000    -1.551089000000     1.007825032230

  Charge       = 0
  Multiplicity = 1
  Basis Set: AUG-CC-PVTZ
    Blend: AUG-CC-PVTZ
  Basis Set: (AUG-CC-PVTZ AUX)
    Blend: AUG-CC-PVTZ-JKFIT

    Orbital Energies [Eh]
    ---------------------

    Doubly Occupied:

       1A    -20.565051     2A     -1.354551     3A     -0.725229
       4A     -0.580572     5A     -0.510004

  @DF-RHF Final Energy:   -76.05977459423640

   => Energetics <=

    Nuclear Repulsion Energy =              9.2368088236988815
    One-Electron Energy =                -123.1223494649649268
    Two-Electron Energy =                  37.8257660470296315
    Total Energy =                        -76.0597745942364156
 Dipole X            :         46.5027228          -45.8993840            0.6033388
 Dipole Y            :          8.9389040           -9.0354439           -0.0965398
 Dipole Z            :        -24.1278977           24.5836021            0.4557044
 Magnitude           :                                                    0.7622363
  Basis Set: (AUG-CC-PVTZ AUX)
    Blend: AUG-CC-PVTZ-RI
	 Reference Energy          =     -76.0597745942364014 [Eh]
	 Singles Energy            =      -0.0000000000000000 [Eh]
	 Same-Spin Energy          =      -0.0682963128597504 [Eh]
	 Opposite-Spin Energy      =      -0.2156766592503329 [Eh]
	 Correlation Energy        =      -0.2839729721100833 [Eh]
	 Total Energy              =     -76.3437475663464795 [Eh]

	 ================> DF-SCS-MP2 Energies <==================
	-----------------------------------------------------------
	 SCS Same-Spin Scale       =       0.3333333333333333 [-]
	 SCS Opposite-Spin Scale   =       1.2000000000000000 [-]
	 SCS Same-Spin Energy      =      -0.0227654376199168 [Eh]
	 SCS Opposite-Spin Energy  =      -0.2588119911003994 [Eh]
	 SCS Correlation Energy    =      -0.2815774287203162 [Eh]
	 SCS Total Energy          =     -76.3413520229567126 [Eh]
	-----------------------------------------------------------

*** Psi4 exiting successfully. Buy a developer a beer!
