                               Psi4 1.8.2 release

  ==> Input File <==

--------------------------------------------------------------------------
MEMORY 60 GB

molecule dimer {
-1 1
F          0.000000     0.000000     0.000000
O          1.599440     1.216847     1.915026
H          1.076424     0.939159     1.131161
H          2.405637     0.730202     1.630886
O         -1.950120     1.489343     1.254761
H         -2.210763     2.196777     0.595546
H         -1.188356     1.080520     0.800691
O          2.106700    -1.786745     0.194161
H          1.282870    -1.276896     0.082122
H          2.847852    -1.236742     0.198292
O         -1.971584    -2.024256    -0.027666
H         -2.186941    -2.154435     0.910808
H         -1.329755    -1.251018    -0.064590
O          0.901895     0.402744    -2.703264
H          0.603349     0.310057    -1.796013
H          1.403576     1.255826    -2.725926

units ang
no_reorient
no_com
symmetry c1
}

set {
basis        aug-cc-pVTZ
scf_type     df
}

energy("mp2")
--------------------------------------------------------------------------

    Molecular point group: c1

    Geometry (in Angstrom), charge = -1, multiplicity = 1:

       Center              X                  Y                   Z               Mass
    ------------   -----------------  -----------------  -----------------  -----------------
         F            0.000000000000     0.000000000000     0.000000000000    18.998403162730
         O            1.599440000000     1.216847000000     1.915026000000    15.994914619570
         H            1.076424000000     0.939159000000     1.131161000000     1.007825032230
         H            2.405637000000     0.730202000000     1.630886000000     1.007825032230
         O           -1.950120000000     1.489343000000     1.254761000000    15.994914619570
         H           -2.210763000000     2.196777000000     0.595546000000     1.007825032230
         H           -1.188356000000     1.080520000000     0.800691000000     1.007825032230
         O            2.106700000000    -1.786745000000     0.194161000000    15.994914619570
         H            1.282870000000    -1.276896000000     0.082122000000     1.007825032230
         H            2.847852000000    -1.236742000000     0.198292000000     1.007825032230
         O           -1.971584000000    -2.024256000000    -0.027666000000    15.994914619570
         H           -2.186941000000    -2.154435000000     0.910808000000     1.007825032230
         H           -1.329755000000    -1.251018000000    -0.064590000000     1.007825032230
         O            0.901895000000     0.402744000000    -2.703264000000    15.994914619570
         H            0.603349000000     0.310057000000    -1.796013000000     1.007825032230
         H            1.403576000000     1.255826000000    -2.725926000000     1.007825032230

  Charge       = -1
  Multiplicity = 1
  Basis Set: AUG-CC-PVTZ
    Blend: AUG-CC-PVTZ
  Basis Set: (AUG-CC-PVTZ AUX)
    Blend: AUG-CC-PVTZ-JKFIT

    Orbital Energies [Eh]
    ---------------------

    Doubly Occupied:

       1A    -26.010305     2A    -20.419621     3A    -20.413846
       4A    -20.407943     5A    -20.401049     6A    -20.396712
       7A     -1.278997     8A     -1.196913     9A     -1.196530
      10A     -1.190236    11A     -1.177918    12A     -1.166582
      13A     -0.582651    14A     -0.565149    15A     -0.541582
      16A     -0.539914    17A     -0.526708    18A     -0.456210
      19A     -0.440091    20A     -0.435994    21A     -0.421566
      22A     -0.417058    23A     -0.371077    24A     -0.364610
      25A     -0.360408    26A     -0.358256    27A     -0.352274
      28A     -0.349666    29A     -0.346492    30A     -0.336279

  @DF-RHF Final Energy:  -479.85616784971353

   => Energetics <=

    Nuclear Repulsion Energy =            261.2369182898401618
    One-Electron Energy =               -1196.1408896454224760
    Two-Electron Energy =                 455.0478035058688420
    Total Energy =                       -479.8561678497135290
 Dipole X            :        -14.7951860           15.4854382            0.6902522
 Dipole Y            :         10.8109614           -9.4922568            1.3187045
 Dipole Z            :        -11.4065896           11.0116628           -0.3949268
 Magnitude           :                                                    1.5399341
  Basis Set: (AUG-CC-PVTZ AUX)
    Blend: AUG-CC-PVTZ-RI
	 Reference Energy          =    -479.8561678497135290 [Eh]
	 Singles Energy            =      -0.0000000000000000 [Eh]
	 Same-Spin Energy          =      -0.4336126834639127 [Eh]
	 Opposite-Spin Energy      =      -1.3182421105701514 [Eh]
	 Correlation Energy        =      -1.7518547940340641 [Eh]
	 Total Energy              =    -481.6080226437475744 [Eh]

	 ================> DF-SCS-MP2 Energies <==================
	-----------------------------------------------------------
	 SCS Same-Spin Scale       =       0.3333333333333333 [-]
	 SCS Opposite-Spin Scale   =       1.2000000000000000 [-]
	 SCS Same-Spin Energy      =      -0.1445375611546376 [Eh]
	 SCS Opposite-Spin Energy  =      -1.5818905326841817 [Eh]
	 SCS Correlation Energy    =      -1.7264280938388192 [Eh]
	 SCS Total Energy          =    -481.5825959435523487 [Eh]
	-----------------------------------------------------------

*** Psi4 exiting successfully. Buy a developer a beer!
