                               Psi4 1.8.2 release

  ==> Input File <==

--------------------------------------------------------------------------
MEMORY 60 GB

molecule dimer {
-1 1
F          0.000000     0.000000     0.000000
O          1.971504     0.778934    -2.233992
H          1.421744     0.533620    -1.441250
H          1.572619     1.611941    -2.531674
O         -1.476799    -0.971779     2.173047
H         -0.763475    -0.799020     1.503018
H         -2.272405    -1.219825     1.750427
O          0.333062    -2.976735    -0.174837
H         -0.098199    -2.079413    -0.145803
H          0.476164    -3.295494    -1.075675
O         -1.184434    -0.992125    -2.284703
H         -0.442796    -1.357866    -2.756262
H         -0.749991    -0.519603    -1.515135
O         -1.475690     2.261424    -0.261281
H         -0.726698     1.695967    -0.017738
H         -1.859554     2.591371     0.552832

units ang
no_reorient
no_com
symmetry c1
}

set {
basis        aug-cc-pVTZ
scf_type     df
}

energy("mp2")
--------------------------------------------------------------------------

    Molecular point group: c1

    Geometry (in Angstrom), charge = -1, multiplicity = 1:

       Center              X                  Y                   Z               Mass
    ------------   -----------------  -----------------  -----------------  -----------------
         F            0.000000000000     0.000000000000     0.000000000000    18.998403162730
         O            1.971504000000     0.778934000000    -2.233992000000    15.994914619570
         H            1.421744000000     0.533620000000    -1.441250000000     1.007825032230
         H            1.572619000000     1.611941000000    -2.531674000000     1.007825032230
         O           -1.476799000000    -0.971779000000     2.173047000000    15.994914619570
         H           -0.763475000000    -0.799020000000     1.503018000000     1.007825032230
         H           -2.272405000000    -1.219825000000     1.750427000000     1.007825032230
         O            0.333062000000    -2.976735000000    -0.174837000000    15.994914619570
         H           -0.098199000000    -2.079413000000    -0.145803000000     1.007825032230
         H            0.476164000000    -3.295494000000    -1.075675000000     1.007825032230
         O           -1.184434000000    -0.992125000000    -2.284703000000    15.994914619570
         H           -0.442796000000    -1.357866000000    -2.756262000000     1.007825032230
         H           -0.749991000000    -0.519603000000    -1.515135000000     1.007825032230
         O           -1.475690000000     2.261424000000    -0.261281000000    15.994914619570
         H           -0.726698000000     1.695967000000    -0.017738000000     1.007825032230
         H           -1.859554000000     2.591371000000     0.552832000000     1.007825032230

  Charge       = -1
  Multiplicity = 1
  Basis Set: AUG-CC-PVTZ
    Blend: AUG-CC-PVTZ
  Basis Set: (AUG-CC-PVTZ AUX)
    Blend: AUG-CC-PVTZ-JKFIT

    Orbital Energies [Eh]
    ---------------------

    Doubly Occupied:

       1A    -25.990172     2A    -20.424553     3A    -20.410953
       4A    -20.402033     5A    -20.398045     6A    -20.395378
       7A     -1.254832     8A     -1.196978     9A     -1.186329
      10A     -1.183423    11A     -1.180998    12A     -1.177391
      13A     -0.571481    14A     -0.561930    15A     -0.560858
      16A     -0.557210    17A     -0.541228    18A     -0.444375
      19A     -0.433395    20A     -0.423509    21A     -0.418382
      22A     -0.411594    23A     -0.365664    24A     -0.360167
      25A     -0.353812    26A     -0.346918    27A     -0.346239
      28A     -0.338398    29A     -0.337384    30A     -0.334134

  @DF-RHF Final Energy:  -479.85237873566535

   => Energetics <=

    Nuclear Repulsion Energy =            261.7060804898398487
    One-Electron Energy =               -1197.3013823240005422
    Two-Electron Energy =                 455.7429230984952824
    Total Energy =                       -479.8523787356653543
 Dipole X            :         34.6278013          -34.2067773            0.4210240
 Dipole Y            :         34.9175461          -34.0917364            0.8258096
 Dipole Z            :         53.0159491          -52.7826736            0.2332755
 Magnitude           :                                                    0.9558453
  Basis Set: (AUG-CC-PVTZ AUX)
    Blend: AUG-CC-PVTZ-RI
	 Reference Energy          =    -479.8523787356653543 [Eh]
	 Singles Energy            =      -0.0000000000000000 [Eh]
	 Same-Spin Energy          =      -0.4326692755900868 [Eh]
	 Opposite-Spin Energy      =      -1.3152872777625881 [Eh]
	 Correlation Energy        =      -1.7479565533526751 [Eh]
	 Total Energy              =    -481.6003352890180054 [Eh]

	 ================> DF-SCS-MP2 Energies <==================
	-----------------------------------------------------------
	 SCS Same-Spin Scale       =       0.3333333333333333 [-]
	 SCS Opposite-Spin Scale   =       1.2000000000000000 [-]
	 SCS Same-Spin Energy      =      -0.1442230918633623 [Eh]
	 SCS Opposite-Spin Energy  =      -1.5783447333151057 [Eh]
	 SCS Correlation Energy    =      -1.7225678251784680 [Eh]
	 SCS Total Energy          =    -481.5749465608438413 [Eh]
	-----------------------------------------------------------

*** Psi4 exiting successfully. Buy a developer a beer!
