                               Psi4 1.9 release

  ==> Input File <==

--------------------------------------------------------------------------
MEMORY 60 GB

molecule dimer {
-1 1
F      0.000000     0.000000     0.000000
--
0 1
O     -1.868807    -1.606584    -1.232722
H     -2.648858    -1.210748    -1.674454
H     -1.354970    -0.928574    -0.884703
O      1.561053    -2.342486    -0.324932
H      1.024559    -1.639627    -0.095546
H      2.367186    -2.202968     0.205219
O      2.397997     0.883652    -1.479190
H      2.460236     0.138607    -2.095251
H      1.572467     0.770589    -1.000388
O     -0.938943     1.901674    -1.746159
H     -0.619530     1.193323    -1.188260
H     -0.677226     1.664461    -2.680593
O      1.422331     0.953610     2.122850
H      1.087694     1.659515     2.606883
H      0.843206     0.805126     1.373295

units ang
no_reorient
no_com
symmetry c1
}

set {
basis        aug-cc-pVTZ
scf_type     df
}

energy("mp2", bsse_type="cp")
--------------------------------------------------------------------------

                               Psi4 1.9 release
    Molecular point group: c1
  Charge       = 0
  Multiplicity = 1
  Basis Set: AUG-CC-PVTZ
    Blend: AUG-CC-PVTZ
  Basis Set: (AUG-CC-PVTZ AUX)
    Blend: AUG-CC-PVTZ-JKFIT
  @DF-RHF Final Energy:  -380.28227886052593
    Total Energy =                       -380.2822788605259348
 Dipole X            :        -47.2489437           46.5700554           -0.6788884
 Dipole Y            :          3.1989901           -2.7048935            0.4940966
 Dipole Z            :         50.3768522          -50.4840750           -0.1072228
 Magnitude           :                                                    0.8464736
  Basis Set: (AUG-CC-PVTZ AUX)
    Blend: AUG-CC-PVTZ-RI
	 Reference Energy          =    -380.2822788605259348 [Eh]
	 Singles Energy            =      -0.0000000000000000 [Eh]
	 Same-Spin Energy          =      -0.3438242983030439 [Eh]
	 Opposite-Spin Energy      =      -1.0822919997751899 [Eh]
	 Correlation Energy        =      -1.4261162980782338 [Eh]
	 Total Energy              =    -381.7083951586041621 [Eh]
	 SCS Total Energy          =    -381.6956373596905223 [Eh]
                               Psi4 1.9 release
    Molecular point group: c1
  Multiplicity = 1
  Basis Set: AUG-CC-PVTZ
    Blend: AUG-CC-PVTZ
  Basis Set: (AUG-CC-PVTZ AUX)
    Blend: AUG-CC-PVTZ-JKFIT
  @DF-RHF Final Energy:   -99.45111011084174
    Total Energy =                        -99.4511101108417392
  Basis Set: (AUG-CC-PVTZ AUX)
	 Singles Energy            =      -0.0000000000000000 [Eh]
	 Same-Spin Energy          =      -0.0820547825473032 [Eh]
	 Opposite-Spin Energy      =      -0.2300553460547984 [Eh]
	 Correlation Energy        =      -0.3121101286021016 [Eh]
	 Total Energy              =     -99.7632202394438394 [Eh]
	 SCS Total Energy          =     -99.7545281202899332 [Eh]
                               Psi4 1.9 release
    Molecular point group: c1

    Geometry (in Bohr), charge = -1, multiplicity = 1:

       Center              X                  Y                   Z               Mass
    ------------   -----------------  -----------------  -----------------  -----------------
         F            0.000000000000     0.000000000000     0.000000000000    18.998403162730
         O           -3.531533411338    -3.036003757543    -2.329506968827    15.994914619570
         H           -5.005616165228    -2.287982126946    -3.164259469677     1.007825032230
         H           -2.560522208212    -1.754750547221    -1.671846372371     1.007825032230
         O            2.949962637324    -4.426656992719    -0.614032489397    15.994914619570
         H            1.936135909373    -3.098445977906    -0.180555772383     1.007825032230
         H            4.473333228018    -4.163006183148     0.387807705740     1.007825032230
         O            4.531557579669     1.669860270213    -2.795263987516    15.994914619570
         H            4.649172243992     0.261929269071    -3.959450554092     1.007825032230
         H            2.971531971320     1.456202165290    -1.890459339195     1.007825032230
         O           -1.774345117416     3.593643039904    -3.299762281503    15.994914619570
         H           -1.170742026505     2.255053649210    -2.245485965837     1.007825032230
         H           -1.279771665039     3.145375436506    -5.065586623819     1.007825032230
         O            2.687816049749     1.802061730498     4.011605105428    15.994914619570
         H            2.055443768304     3.136028851089     4.926294911112     1.007825032230
         H            1.593428407343     1.521467636485     2.595151439461     1.007825032230

  Charge       = -1
  Multiplicity = 1
  Basis Set: AUG-CC-PVTZ
    Blend: AUG-CC-PVTZ
  Basis Set: (AUG-CC-PVTZ AUX)
    Blend: AUG-CC-PVTZ-JKFIT

    Orbital Energies [Eh]
    ---------------------

    Doubly Occupied:

       1A    -25.987985     2A    -20.406805     3A    -20.404172
       4A    -20.399894     5A    -20.395947     6A    -20.392757
       7A     -1.255844     8A     -1.195511     9A     -1.194286
      10A     -1.192513    11A     -1.187526    12A     -1.182671
      13A     -0.577065    14A     -0.568247    15A     -0.561640
      16A     -0.559483    17A     -0.551929    18A     -0.432130
      19A     -0.429733    20A     -0.426678    21A     -0.421071
      22A     -0.418188    23A     -0.358099    24A     -0.354617
      25A     -0.350722    26A     -0.348328    27A     -0.345814
      28A     -0.342598    29A     -0.340025    30A     -0.337313

  @DF-RHF Final Energy:  -479.85990795071376

   => Energetics <=

    Nuclear Repulsion Energy =            265.5432771070616127
    One-Electron Energy =               -1204.9671847936169797
    Two-Electron Energy =                 459.5639997358416053
    Total Energy =                       -479.8599079507137617
 Dipole X            :        -47.5292452           46.5700554           -0.9591899
 Dipole Y            :          3.1129766           -2.7048935            0.4080831
 Dipole Z            :         50.7611989          -50.4840750            0.2771238
 Magnitude           :                                                    1.0785985
  Basis Set: (AUG-CC-PVTZ AUX)
    Blend: AUG-CC-PVTZ-RI
	 Reference Energy          =    -479.8599079507137617 [Eh]
	 Singles Energy            =      -0.0000000000000000 [Eh]
	 Same-Spin Energy          =      -0.4308314064925070 [Eh]
	 Opposite-Spin Energy      =      -1.3118623251570911 [Eh]
	 Correlation Energy        =      -1.7426937316495981 [Eh]
	 Total Energy              =    -481.6026016823633427 [Eh]

	 ================> DF-SCS-MP2 Energies <==================
	-----------------------------------------------------------
	 SCS Same-Spin Scale       =       0.3333333333333333 [-]
	 SCS Opposite-Spin Scale   =       1.2000000000000000 [-]
	 SCS Same-Spin Energy      =      -0.1436104688308356 [Eh]
	 SCS Opposite-Spin Energy  =      -1.5742347901885092 [Eh]
	 SCS Correlation Energy    =      -1.7178452590193449 [Eh]
	 SCS Total Energy          =    -481.5777532097330891 [Eh]
	-----------------------------------------------------------

*** Psi4 exiting successfully. Buy a developer a beer!
