                               Psi4 1.8.2 release

  ==> Input File <==

--------------------------------------------------------------------------
MEMORY 60 GB

molecule dimer {
0 1
Gh(F)      0.000000     0.000000     0.000000
Gh(O)      2.087812    -2.235654    -0.550394
Gh(H)      2.423601    -2.899671    -1.150602
Gh(H)      2.190875    -1.369155    -0.929071
Gh(O)      0.415489    -2.119119     2.070246
Gh(H)      0.482112    -2.996680     1.655893
Gh(H)      0.091966    -1.548601     1.375700
Gh(O)     -0.730006     1.647225     1.930793
Gh(H)     -0.321923     1.147844     1.188363
Gh(H)     -1.196312     2.375028     1.563056
Gh(O)      2.361343     1.061093     0.316103
Gh(H)      2.099324     1.707318     0.957043
Gh(H)      1.582739     0.514063     0.417266
Gh(O)      0.150347     2.501610    -1.052386
Gh(H)      0.710848     3.031242    -0.538799
Gh(H)      0.364562     1.585555    -0.826675
O         -1.585915    -0.182921    -2.257821
H         -0.843561    -0.199899    -1.588493
H         -2.094702    -1.043463    -2.099459

units ang
no_reorient
no_com
symmetry c1
}

set {
basis        aug-cc-pVTZ
scf_type     df
}

energy("mp2")
--------------------------------------------------------------------------

    Molecular point group: c1

    Geometry (in Angstrom), charge = 0, multiplicity = 1:

       Center              X                  Y                   Z               Mass
    ------------   -----------------  -----------------  -----------------  -----------------
      Gh(F)           0.000000000000     0.000000000000     0.000000000000    18.998403162730
      Gh(O)           2.087812000000    -2.235654000000    -0.550394000000    15.994914619570
      Gh(H)           2.423601000000    -2.899671000000    -1.150602000000     1.007825032230
      Gh(H)           2.190875000000    -1.369155000000    -0.929071000000     1.007825032230
      Gh(O)           0.415489000000    -2.119119000000     2.070246000000    15.994914619570
      Gh(H)           0.482112000000    -2.996680000000     1.655893000000     1.007825032230
      Gh(H)           0.091966000000    -1.548601000000     1.375700000000     1.007825032230
      Gh(O)          -0.730006000000     1.647225000000     1.930793000000    15.994914619570
      Gh(H)          -0.321923000000     1.147844000000     1.188363000000     1.007825032230
      Gh(H)          -1.196312000000     2.375028000000     1.563056000000     1.007825032230
      Gh(O)           2.361343000000     1.061093000000     0.316103000000    15.994914619570
      Gh(H)           2.099324000000     1.707318000000     0.957043000000     1.007825032230
      Gh(H)           1.582739000000     0.514063000000     0.417266000000     1.007825032230
      Gh(O)           0.150347000000     2.501610000000    -1.052386000000    15.994914619570
      Gh(H)           0.710848000000     3.031242000000    -0.538799000000     1.007825032230
      Gh(H)           0.364562000000     1.585555000000    -0.826675000000     1.007825032230
         O           -1.585915000000    -0.182921000000    -2.257821000000    15.994914619570
         H           -0.843561000000    -0.199899000000    -1.588493000000     1.007825032230
         H           -2.094702000000    -1.043463000000    -2.099459000000     1.007825032230

  Charge       = 0
  Multiplicity = 1
  Basis Set: AUG-CC-PVTZ
    Blend: AUG-CC-PVTZ
  Basis Set: (AUG-CC-PVTZ AUX)
    Blend: AUG-CC-PVTZ-JKFIT

    Orbital Energies [Eh]
    ---------------------

    Doubly Occupied:

       1A    -20.575273     2A     -1.329701     3A     -0.692279
       4A     -0.575087     5A     -0.506510

  @DF-RHF Final Energy:   -76.05325899637813

   => Energetics <=

    Nuclear Repulsion Energy =              8.7494417079782192
    One-Electron Energy =                -122.2476985515425980
    Two-Electron Energy =                  37.4449978471862508
    Total Energy =                        -76.0532589963781334
 Dipole X            :         29.6810078          -29.5280724            0.1529354
 Dipole Y            :          4.5493649           -5.1149784           -0.5656135
 Dipole Z            :         41.6377400          -41.1025259            0.5352141
 Magnitude           :                                                    0.7935754
  Basis Set: (AUG-CC-PVTZ AUX)
    Blend: AUG-CC-PVTZ-RI
	 Reference Energy          =     -76.0532589963781334 [Eh]
	 Singles Energy            =      -0.0000000000000000 [Eh]
	 Same-Spin Energy          =      -0.0692587652188289 [Eh]
	 Opposite-Spin Energy      =      -0.2187044136258859 [Eh]
	 Correlation Energy        =      -0.2879631788447148 [Eh]
	 Total Energy              =     -76.3412221752228533 [Eh]

	 ================> DF-SCS-MP2 Energies <==================
	-----------------------------------------------------------
	 SCS Same-Spin Scale       =       0.3333333333333333 [-]
	 SCS Opposite-Spin Scale   =       1.2000000000000000 [-]
	 SCS Same-Spin Energy      =      -0.0230862550729430 [Eh]
	 SCS Opposite-Spin Energy  =      -0.2624452963510631 [Eh]
	 SCS Correlation Energy    =      -0.2855315514240060 [Eh]
	 SCS Total Energy          =     -76.3387905478021338 [Eh]
	-----------------------------------------------------------

*** Psi4 exiting successfully. Buy a developer a beer!
