                               Psi4 1.8.2 release

  ==> Input File <==

--------------------------------------------------------------------------
MEMORY 60 GB

molecule dimer {
-1 1
F          0.000000     0.000000     0.000000
O          1.051129     1.096357     2.694346
H          0.619287     1.901551     2.882839
H          0.909597     0.954000     1.767452
O          1.736119     1.777929    -1.101982
H          1.243908     1.941691    -1.896130
H          1.299520     1.022179    -0.669957
O         -0.450907    -2.751484    -0.302061
H         -0.441612    -3.080057     0.625078
H         -0.079139    -1.885185    -0.236471
O         -1.073336    -0.475456    -2.416481
H         -1.819131     0.195421    -2.500612
H         -0.639424    -0.295340    -1.571394
O         -1.530930     2.318994    -0.767106
H         -0.855521     1.628887    -0.576701
H         -1.755147     2.231506    -1.684517
O         -1.347398    -0.607075     2.261043
H         -0.798765    -0.276198     1.560294
H         -0.935135    -1.323906     2.841048

units ang
no_reorient
no_com
symmetry c1
}

set {
basis        aug-cc-pVTZ
scf_type     df
}

energy("mp2")
--------------------------------------------------------------------------

    Molecular point group: c1

    Geometry (in Angstrom), charge = -1, multiplicity = 1:

       Center              X                  Y                   Z               Mass
    ------------   -----------------  -----------------  -----------------  -----------------
         F            0.000000000000     0.000000000000     0.000000000000    18.998403162730
         O            1.051129000000     1.096357000000     2.694346000000    15.994914619570
         H            0.619287000000     1.901551000000     2.882839000000     1.007825032230
         H            0.909597000000     0.954000000000     1.767452000000     1.007825032230
         O            1.736119000000     1.777929000000    -1.101982000000    15.994914619570
         H            1.243908000000     1.941691000000    -1.896130000000     1.007825032230
         H            1.299520000000     1.022179000000    -0.669957000000     1.007825032230
         O           -0.450907000000    -2.751484000000    -0.302061000000    15.994914619570
         H           -0.441612000000    -3.080057000000     0.625078000000     1.007825032230
         H           -0.079139000000    -1.885185000000    -0.236471000000     1.007825032230
         O           -1.073336000000    -0.475456000000    -2.416481000000    15.994914619570
         H           -1.819131000000     0.195421000000    -2.500612000000     1.007825032230
         H           -0.639424000000    -0.295340000000    -1.571394000000     1.007825032230
         O           -1.530930000000     2.318994000000    -0.767106000000    15.994914619570
         H           -0.855521000000     1.628887000000    -0.576701000000     1.007825032230
         H           -1.755147000000     2.231506000000    -1.684517000000     1.007825032230
         O           -1.347398000000    -0.607075000000     2.261043000000    15.994914619570
         H           -0.798765000000    -0.276198000000     1.560294000000     1.007825032230
         H           -0.935135000000    -1.323906000000     2.841048000000     1.007825032230

  Charge       = -1
  Multiplicity = 1
  Basis Set: AUG-CC-PVTZ
    Blend: AUG-CC-PVTZ
  Basis Set: (AUG-CC-PVTZ AUX)
    Blend: AUG-CC-PVTZ-JKFIT

    Orbital Energies [Eh]
    ---------------------

    Doubly Occupied:

       1A    -26.022143     2A    -20.423987     3A    -20.420187
       4A    -20.409366     5A    -20.407966     6A    -20.404739
       7A    -20.396621     8A     -1.294646     9A     -1.221202
      10A     -1.208871    11A     -1.196932    12A     -1.189723
      13A     -1.180972    14A     -1.170962    15A     -0.590520
      16A     -0.582164    17A     -0.573263    18A     -0.566503
      19A     -0.561302    20A     -0.546311    21A     -0.460657
      22A     -0.451025    23A     -0.442253    24A     -0.432246
      25A     -0.423626    26A     -0.405798    27A     -0.381177
      28A     -0.379736    29A     -0.374021    30A     -0.370290
      31A     -0.365251    32A     -0.354257    33A     -0.350014
      34A     -0.346506    35A     -0.333523

  @DF-RHF Final Energy:  -555.91545588794258

   => Energetics <=

    Nuclear Repulsion Energy =            360.4544291007573520
    One-Electron Energy =               -1500.2622420447394234
    Two-Electron Energy =                 583.8923570560394865
    Total Energy =                       -555.9154558879425849
 Dipole X            :         30.7482155          -30.5647063            0.1835092
 Dipole Y            :        -26.1749045           26.2457807            0.0708761
 Dipole Z            :         -6.5608305            6.5819180            0.0210875
 Magnitude           :                                                    0.1978478
  Basis Set: (AUG-CC-PVTZ AUX)
    Blend: AUG-CC-PVTZ-RI
	 Reference Energy          =    -555.9154558879425849 [Eh]
	 Singles Energy            =      -0.0000000000000000 [Eh]
	 Same-Spin Energy          =      -0.5037855903796360 [Eh]
	 Opposite-Spin Energy      =      -1.5347209958731129 [Eh]
	 Correlation Energy        =      -2.0385065862527489 [Eh]
	 Total Energy              =    -557.9539624741953503 [Eh]

	 ================> DF-SCS-MP2 Energies <==================
	-----------------------------------------------------------
	 SCS Same-Spin Scale       =       0.3333333333333333 [-]
	 SCS Opposite-Spin Scale   =       1.2000000000000000 [-]
	 SCS Same-Spin Energy      =      -0.1679285301265453 [Eh]
	 SCS Opposite-Spin Energy  =      -1.8416651950477354 [Eh]
	 SCS Correlation Energy    =      -2.0095937251742808 [Eh]
	 SCS Total Energy          =    -557.9250496131168120 [Eh]
	-----------------------------------------------------------

*** Psi4 exiting successfully. Buy a developer a beer!
