                               Psi4 1.9 release

  ==> Input File <==

--------------------------------------------------------------------------
MEMORY 60 GB

molecule dimer {
-1 1
F      0.000000     0.000000     0.000000
--
0 1
O     -1.006216    -0.656294    -2.699179
H     -1.494548     0.181956    -2.928445
H     -0.539619    -0.569324    -1.861169
O      1.610323     1.707632    -1.491867
H      1.013163     2.482512    -1.512988
H      1.164599     1.015320    -1.082122
O     -1.681240    -2.035223     1.447043
H     -1.235665    -1.300377     0.974924
H     -2.630026    -1.906729     1.111423
O      2.021760    -1.325611     0.977475
H      1.199443    -1.017688     0.585508
H      2.376563    -1.912348     0.315540

units ang
no_reorient
no_com
symmetry c1
}

set {
basis        aug-cc-pVTZ
scf_type     df
}

energy("mp2", bsse_type="cp")
--------------------------------------------------------------------------

                               Psi4 1.9 release
    Molecular point group: c1
  Charge       = 0
  Multiplicity = 1
  Basis Set: AUG-CC-PVTZ
    Blend: AUG-CC-PVTZ
  Basis Set: (AUG-CC-PVTZ AUX)
    Blend: AUG-CC-PVTZ-JKFIT
  @DF-RHF Final Energy:  -304.21983129415486
    Total Energy =                       -304.2198312941548579
 Dipole X            :        -15.2944304           14.0046205           -1.2898099
 Dipole Y            :         41.6198670          -40.6341119            0.9857551
 Dipole Z            :         34.4617400          -35.0157804           -0.5540404
 Magnitude           :                                                    1.7153086
  Basis Set: (AUG-CC-PVTZ AUX)
    Blend: AUG-CC-PVTZ-RI
	 Reference Energy          =    -304.2198312941548579 [Eh]
	 Singles Energy            =      -0.0000000000000000 [Eh]
	 Same-Spin Energy          =      -0.2755991926762947 [Eh]
	 Opposite-Spin Energy      =      -0.8683948485630817 [Eh]
	 Correlation Energy        =      -1.1439940412393765 [Eh]
	 Total Energy              =    -305.3638253353942105 [Eh]
	 SCS Total Energy          =    -305.3537715099893148 [Eh]
                               Psi4 1.9 release
    Molecular point group: c1
  Multiplicity = 1
  Basis Set: AUG-CC-PVTZ
    Blend: AUG-CC-PVTZ
  Basis Set: (AUG-CC-PVTZ AUX)
    Blend: AUG-CC-PVTZ-JKFIT
  @DF-RHF Final Energy:   -99.45105412083980
    Total Energy =                        -99.4510541208397996
  Basis Set: (AUG-CC-PVTZ AUX)
	 Singles Energy            =      -0.0000000000000000 [Eh]
	 Same-Spin Energy          =      -0.0819707879584179 [Eh]
	 Opposite-Spin Energy      =      -0.2294329195375105 [Eh]
	 Correlation Energy        =      -0.3114037074959285 [Eh]
	 Total Energy              =     -99.7624578283357266 [Eh]
	 SCS Total Energy          =     -99.7536972202709507 [Eh]
                               Psi4 1.9 release
    Molecular point group: c1

    Geometry (in Bohr), charge = -1, multiplicity = 1:

       Center              X                  Y                   Z               Mass
    ------------   -----------------  -----------------  -----------------  -----------------
         F            0.000000000000     0.000000000000     0.000000000000    18.998403162730
         O           -1.901472663054    -1.240215917781    -5.100709073587    15.994914619570
         H           -2.824286401351     0.343847006884    -5.533959023466     1.007825032230
         H           -1.019732122093    -1.075866436650    -3.517099683192     1.007825032230
         O            3.043069443526     3.226956803068    -2.819220045608    15.994914619570
         H            1.914600590447     4.691267783163    -2.859132951104     1.007825032230
         H            2.200773155982     1.918676729700    -2.044914214333     1.007825032230
         O           -3.177083151165    -3.846014074233     2.734514961761    15.994914619570
         H           -2.335068432814    -2.457356389844     1.842339353136     1.007825032230
         H           -4.970028842833    -3.603195605468     2.100285079535     1.007825032230
         O            3.820572691406    -2.505041738894     1.847160044482    15.994914619570
         H            2.266618773098    -1.923151601165     1.106449764265     1.007825032230
         H            4.491053189896    -3.613813976567     0.596284181627     1.007825032230

  Charge       = -1
  Multiplicity = 1
  Basis Set: AUG-CC-PVTZ
    Blend: AUG-CC-PVTZ
  Basis Set: (AUG-CC-PVTZ AUX)
    Blend: AUG-CC-PVTZ-JKFIT

    Orbital Energies [Eh]
    ---------------------

    Doubly Occupied:

       1A    -25.963613     2A    -20.413963     3A    -20.410051
       4A    -20.391831     5A    -20.370515     6A     -1.227730
       7A     -1.185071     8A     -1.181996     9A     -1.176774
      10A     -1.161302    11A     -0.564918    12A     -0.561159
      13A     -0.532547    14A     -0.527135    15A     -0.431099
      16A     -0.420948    17A     -0.415540    18A     -0.406623
      19A     -0.353944    20A     -0.350373    21A     -0.342779
      22A     -0.327647    23A     -0.319920    24A     -0.316288
      25A     -0.310102

  @DF-RHF Final Energy:  -403.77735903382455

   => Energetics <=

    Nuclear Repulsion Energy =            181.5944190966700660
    One-Electron Energy =                -931.4158077836508483
    Two-Electron Energy =                 346.0440296531562012
    Total Energy =                       -403.7773590338245526
 Dipole X            :        -15.4919213           14.0046205           -1.4873008
 Dipole Y            :         41.9514539          -40.6341119            1.3173420
 Dipole Z            :         34.7123628          -35.0157804           -0.3034176
 Magnitude           :                                                    2.0098547
  Basis Set: (AUG-CC-PVTZ AUX)
    Blend: AUG-CC-PVTZ-RI
	 Reference Energy          =    -403.7773590338245526 [Eh]
	 Singles Energy            =      -0.0000000000000000 [Eh]
	 Same-Spin Energy          =      -0.3614896868025986 [Eh]
	 Opposite-Spin Energy      =      -1.0969657659530530 [Eh]
	 Correlation Energy        =      -1.4584554527556515 [Eh]
	 Total Energy              =    -405.2358144865801819 [Eh]

	 ================> DF-SCS-MP2 Energies <==================
	-----------------------------------------------------------
	 SCS Same-Spin Scale       =       0.3333333333333333 [-]
	 SCS Opposite-Spin Scale   =       1.2000000000000000 [-]
	 SCS Same-Spin Energy      =      -0.1204965622675329 [Eh]
	 SCS Opposite-Spin Energy  =      -1.3163589191436635 [Eh]
	 SCS Correlation Energy    =      -1.4368554814111965 [Eh]
	 SCS Total Energy          =    -405.2142145152357671 [Eh]
	-----------------------------------------------------------

*** Psi4 exiting successfully. Buy a developer a beer!
