                               Psi4 1.8.2 release

  ==> Input File <==

--------------------------------------------------------------------------
MEMORY 60 GB

molecule dimer {
-1 1
F          0.000000     0.000000     0.000000
O          0.588473    -0.884411    -2.532590
H          0.570163    -0.750592    -1.554364
H          0.212599    -1.767260    -2.854982
O          1.249696     2.505029    -0.435608
H          0.855008     1.572903    -0.277964
H          2.124949     2.543701     0.017355
O         -2.575407    -0.483611     0.341632
H         -3.023020    -0.104900    -0.406895
H         -1.638645    -0.352131     0.088858
O          0.581612     0.878877     2.831679
H          0.628358     0.650704     1.918655
H          1.486052     1.034802     3.119274
O         -0.124634    -2.755181     0.993578
H         -0.046177    -1.822951     0.906365
H          0.293841    -3.171635     0.264619

units ang
no_reorient
no_com
symmetry c1
}

set {
basis        aug-cc-pVTZ
scf_type     df
}

energy("mp2")
--------------------------------------------------------------------------

    Molecular point group: c1

    Geometry (in Angstrom), charge = -1, multiplicity = 1:

       Center              X                  Y                   Z               Mass
    ------------   -----------------  -----------------  -----------------  -----------------
         F            0.000000000000     0.000000000000     0.000000000000    18.998403162730
         O            0.588473000000    -0.884411000000    -2.532590000000    15.994914619570
         H            0.570163000000    -0.750592000000    -1.554364000000     1.007825032230
         H            0.212599000000    -1.767260000000    -2.854982000000     1.007825032230
         O            1.249696000000     2.505029000000    -0.435608000000    15.994914619570
         H            0.855008000000     1.572903000000    -0.277964000000     1.007825032230
         H            2.124949000000     2.543701000000     0.017355000000     1.007825032230
         O           -2.575407000000    -0.483611000000     0.341632000000    15.994914619570
         H           -3.023020000000    -0.104900000000    -0.406895000000     1.007825032230
         H           -1.638645000000    -0.352131000000     0.088858000000     1.007825032230
         O            0.581612000000     0.878877000000     2.831679000000    15.994914619570
         H            0.628358000000     0.650704000000     1.918655000000     1.007825032230
         H            1.486052000000     1.034802000000     3.119274000000     1.007825032230
         O           -0.124634000000    -2.755181000000     0.993578000000    15.994914619570
         H           -0.046177000000    -1.822951000000     0.906365000000     1.007825032230
         H            0.293841000000    -3.171635000000     0.264619000000     1.007825032230

  Charge       = -1
  Multiplicity = 1
  Basis Set: AUG-CC-PVTZ
    Blend: AUG-CC-PVTZ
  Basis Set: (AUG-CC-PVTZ AUX)
    Blend: AUG-CC-PVTZ-JKFIT

    Orbital Energies [Eh]
    ---------------------

    Doubly Occupied:

       1A    -25.996542     2A    -20.417799     3A    -20.410026
       4A    -20.406176     5A    -20.404312     6A    -20.379600
       7A     -1.263718     8A     -1.208383     9A     -1.204210
      10A     -1.170314    11A     -1.167593    12A     -1.165345
      13A     -0.584359    14A     -0.578688    15A     -0.560919
      16A     -0.541169    17A     -0.529250    18A     -0.439786
      19A     -0.431830    20A     -0.421535    21A     -0.412511
      22A     -0.408789    23A     -0.365583    24A     -0.360008
      25A     -0.357646    26A     -0.351641    27A     -0.345509
      28A     -0.341331    29A     -0.340186    30A     -0.324701

  @DF-RHF Final Energy:  -479.84757604149866

   => Energetics <=

    Nuclear Repulsion Energy =            258.3207103889413361
    One-Electron Energy =               -1190.5576409095124291
    Two-Electron Energy =                 452.3893544790724945
    Total Energy =                       -479.8475760414986553
 Dipole X            :          2.7931324           -1.4720059            1.3211264
 Dipole Y            :         14.9230137          -15.2722658           -0.3492521
 Dipole Z            :        -21.1474014           20.4287879           -0.7186135
 Magnitude           :                                                    1.5439422
  Basis Set: (AUG-CC-PVTZ AUX)
    Blend: AUG-CC-PVTZ-RI
	 Reference Energy          =    -479.8475760414986553 [Eh]
	 Singles Energy            =      -0.0000000000000000 [Eh]
	 Same-Spin Energy          =      -0.4324418763374924 [Eh]
	 Opposite-Spin Energy      =      -1.3154115905250143 [Eh]
	 Correlation Energy        =      -1.7478534668625068 [Eh]
	 Total Energy              =    -481.5954295083611783 [Eh]

	 ================> DF-SCS-MP2 Energies <==================
	-----------------------------------------------------------
	 SCS Same-Spin Scale       =       0.3333333333333333 [-]
	 SCS Opposite-Spin Scale   =       1.2000000000000000 [-]
	 SCS Same-Spin Energy      =      -0.1441472921124974 [Eh]
	 SCS Opposite-Spin Energy  =      -1.5784939086300172 [Eh]
	 SCS Correlation Energy    =      -1.7226412007425145 [Eh]
	 SCS Total Energy          =    -481.5702172422411422 [Eh]
	-----------------------------------------------------------

*** Psi4 exiting successfully. Buy a developer a beer!
