                               Psi4 1.8.2 release

  ==> Input File <==

--------------------------------------------------------------------------
MEMORY 60 GB

molecule dimer {
0 1
Gh(F)      0.000000     0.000000     0.000000
Gh(O)      0.845562    -0.845142    -2.624376
Gh(H)      0.611386    -0.330636    -3.393450
Gh(H)      0.621838    -0.297746    -1.856041
O         -1.432887    -0.201644     2.286168
H         -0.868654    -0.102721     1.510265
H         -2.122142     0.377979     2.070333
Gh(O)      2.434561    -1.422362     0.673959
Gh(H)      1.818504    -0.731838     0.351774
Gh(H)      2.614628    -2.112905    -0.060771
Gh(O)      1.046966     1.802363     1.828080
Gh(H)      0.810625     1.228982     2.579401
Gh(H)      0.730030     1.314833     1.056170
Gh(O)     -1.110680    -2.734785    -0.820393
Gh(H)     -0.634442    -1.868649    -0.819997
Gh(H)     -1.235246    -2.898655    -1.759953
Gh(O)     -1.419169     2.399701    -0.513219
Gh(H)     -0.863137     1.660037    -0.332687
Gh(H)     -1.453857     2.952655     0.363362

units ang
no_reorient
no_com
symmetry c1
}

set {
basis        aug-cc-pVTZ
scf_type     df
}

energy("mp2")
--------------------------------------------------------------------------

    Molecular point group: c1

    Geometry (in Angstrom), charge = 0, multiplicity = 1:

       Center              X                  Y                   Z               Mass
    ------------   -----------------  -----------------  -----------------  -----------------
      Gh(F)           0.000000000000     0.000000000000     0.000000000000    18.998403162730
      Gh(O)           0.845562000000    -0.845142000000    -2.624376000000    15.994914619570
      Gh(H)           0.611386000000    -0.330636000000    -3.393450000000     1.007825032230
      Gh(H)           0.621838000000    -0.297746000000    -1.856041000000     1.007825032230
         O           -1.432887000000    -0.201644000000     2.286168000000    15.994914619570
         H           -0.868654000000    -0.102721000000     1.510265000000     1.007825032230
         H           -2.122142000000     0.377979000000     2.070333000000     1.007825032230
      Gh(O)           2.434561000000    -1.422362000000     0.673959000000    15.994914619570
      Gh(H)           1.818504000000    -0.731838000000     0.351774000000     1.007825032230
      Gh(H)           2.614628000000    -2.112905000000    -0.060771000000     1.007825032230
      Gh(O)           1.046966000000     1.802363000000     1.828080000000    15.994914619570
      Gh(H)           0.810625000000     1.228982000000     2.579401000000     1.007825032230
      Gh(H)           0.730030000000     1.314833000000     1.056170000000     1.007825032230
      Gh(O)          -1.110680000000    -2.734785000000    -0.820393000000    15.994914619570
      Gh(H)          -0.634442000000    -1.868649000000    -0.819997000000     1.007825032230
      Gh(H)          -1.235246000000    -2.898655000000    -1.759953000000     1.007825032230
      Gh(O)          -1.419169000000     2.399701000000    -0.513219000000    15.994914619570
      Gh(H)          -0.863137000000     1.660037000000    -0.332687000000     1.007825032230
      Gh(H)          -1.453857000000     2.952655000000     0.363362000000     1.007825032230

  Charge       = 0
  Multiplicity = 1
  Basis Set: AUG-CC-PVTZ
    Blend: AUG-CC-PVTZ
  Basis Set: (AUG-CC-PVTZ AUX)
    Blend: AUG-CC-PVTZ-JKFIT

    Orbital Energies [Eh]
    ---------------------

    Doubly Occupied:

       1A    -20.566449     2A     -1.363141     3A     -0.716468
       4A     -0.594795     5A     -0.512472

  @DF-RHF Final Energy:   -76.05964950937151

   => Energetics <=

    Nuclear Repulsion Energy =              9.3245751041612248
    One-Electron Energy =                -123.2617984997302045
    Two-Electron Energy =                  37.8775738861974673
    Total Energy =                        -76.0596495093715106
 Dipole X            :         27.2248947          -27.3138973           -0.0890026
 Dipole Y            :          2.9802002           -2.5282532            0.4519469
 Dipole Z            :        -41.9828163           41.3282008           -0.6546155
 Magnitude           :                                                    0.8004367
  Basis Set: (AUG-CC-PVTZ AUX)
    Blend: AUG-CC-PVTZ-RI
	 Reference Energy          =     -76.0596495093715106 [Eh]
	 Singles Energy            =      -0.0000000000000000 [Eh]
	 Same-Spin Energy          =      -0.0683104191973096 [Eh]
	 Opposite-Spin Energy      =      -0.2160103746338445 [Eh]
	 Correlation Energy        =      -0.2843207938311542 [Eh]
	 Total Energy              =     -76.3439703032026671 [Eh]

	 ================> DF-SCS-MP2 Energies <==================
	-----------------------------------------------------------
	 SCS Same-Spin Scale       =       0.3333333333333333 [-]
	 SCS Opposite-Spin Scale   =       1.2000000000000000 [-]
	 SCS Same-Spin Energy      =      -0.0227701397324365 [Eh]
	 SCS Opposite-Spin Energy  =      -0.2592124495606135 [Eh]
	 SCS Correlation Energy    =      -0.2819825892930500 [Eh]
	 SCS Total Energy          =     -76.3416320986645616 [Eh]
	-----------------------------------------------------------

*** Psi4 exiting successfully. Buy a developer a beer!
