                               Psi4 1.8.2 release

  ==> Input File <==

--------------------------------------------------------------------------
MEMORY 60 GB

molecule dimer {
-1 1
F          0.000000     0.000000     0.000000
O         -0.504269     2.615845     0.858712
H         -0.368841     1.747318     0.502742
H         -0.320597     2.565113     1.799174
O         -1.503618    -1.315665    -1.986342
H         -2.280667    -0.801501    -2.366013
H         -1.171011    -0.825309    -1.270502
O          2.723573    -0.791721     0.593434
H          1.984339    -0.306086     0.872898
H          2.496015    -1.256115    -0.252519
O         -0.166216    -0.566886     2.722248
H         -0.104215    -0.470380     1.811756
H          0.267185    -1.405528     2.999724
O          1.430300     1.446224    -1.905269
H          2.087411     1.977584    -1.375924
H          0.975354     0.908102    -1.325386

units ang
no_reorient
no_com
symmetry c1
}

set {
basis        aug-cc-pVTZ
scf_type     df
}

energy("mp2")
--------------------------------------------------------------------------

    Molecular point group: c1

    Geometry (in Angstrom), charge = -1, multiplicity = 1:

       Center              X                  Y                   Z               Mass
    ------------   -----------------  -----------------  -----------------  -----------------
         F            0.000000000000     0.000000000000     0.000000000000    18.998403162730
         O           -0.504269000000     2.615845000000     0.858712000000    15.994914619570
         H           -0.368841000000     1.747318000000     0.502742000000     1.007825032230
         H           -0.320597000000     2.565113000000     1.799174000000     1.007825032230
         O           -1.503618000000    -1.315665000000    -1.986342000000    15.994914619570
         H           -2.280667000000    -0.801501000000    -2.366013000000     1.007825032230
         H           -1.171011000000    -0.825309000000    -1.270502000000     1.007825032230
         O            2.723573000000    -0.791721000000     0.593434000000    15.994914619570
         H            1.984339000000    -0.306086000000     0.872898000000     1.007825032230
         H            2.496015000000    -1.256115000000    -0.252519000000     1.007825032230
         O           -0.166216000000    -0.566886000000     2.722248000000    15.994914619570
         H           -0.104215000000    -0.470380000000     1.811756000000     1.007825032230
         H            0.267185000000    -1.405528000000     2.999724000000     1.007825032230
         O            1.430300000000     1.446224000000    -1.905269000000    15.994914619570
         H            2.087411000000     1.977584000000    -1.375924000000     1.007825032230
         H            0.975354000000     0.908102000000    -1.325386000000     1.007825032230

  Charge       = -1
  Multiplicity = 1
  Basis Set: AUG-CC-PVTZ
    Blend: AUG-CC-PVTZ
  Basis Set: (AUG-CC-PVTZ AUX)
    Blend: AUG-CC-PVTZ-JKFIT

    Orbital Energies [Eh]
    ---------------------

    Doubly Occupied:

       1A    -25.981026     2A    -20.412319     3A    -20.409701
       4A    -20.405998     5A    -20.394662     6A    -20.393156
       7A     -1.247163     8A     -1.202028     9A     -1.198439
      10A     -1.187510    11A     -1.185282    12A     -1.183929
      13A     -0.584171    14A     -0.574257    15A     -0.562327
      16A     -0.560264    17A     -0.557282    18A     -0.435761
      19A     -0.430441    20A     -0.424093    21A     -0.421032
      22A     -0.416572    23A     -0.362968    24A     -0.358865
      25A     -0.352899    26A     -0.348004    27A     -0.343344
      28A     -0.337191    29A     -0.334951    30A     -0.333424

  @DF-RHF Final Energy:  -479.85577453419205

   => Energetics <=

    Nuclear Repulsion Energy =            261.6288405180691257
    One-Electron Energy =               -1197.0911088408311116
    Two-Electron Energy =                 455.6064937885698782
    Total Energy =                       -479.8557745341920509
 Dipole X            :        -37.0868353           36.6666073           -0.4202280
 Dipole Y            :        -25.6730833           25.0116100           -0.6614733
 Dipole Z            :         -6.4246363            6.9130226            0.4883863
 Magnitude           :                                                    0.9233957
  Basis Set: (AUG-CC-PVTZ AUX)
    Blend: AUG-CC-PVTZ-RI
	 Reference Energy          =    -479.8557745341920509 [Eh]
	 Singles Energy            =      -0.0000000000000000 [Eh]
	 Same-Spin Energy          =      -0.4298376371408992 [Eh]
	 Opposite-Spin Energy      =      -1.3110170008547934 [Eh]
	 Correlation Energy        =      -1.7408546379956926 [Eh]
	 Total Energy              =    -481.5966291721877610 [Eh]

	 ================> DF-SCS-MP2 Energies <==================
	-----------------------------------------------------------
	 SCS Same-Spin Scale       =       0.3333333333333333 [-]
	 SCS Opposite-Spin Scale   =       1.2000000000000000 [-]
	 SCS Same-Spin Energy      =      -0.1432792123802997 [Eh]
	 SCS Opposite-Spin Energy  =      -1.5732204010257520 [Eh]
	 SCS Correlation Energy    =      -1.7164996134060517 [Eh]
	 SCS Total Energy          =    -481.5722741475980797 [Eh]
	-----------------------------------------------------------

*** Psi4 exiting successfully. Buy a developer a beer!
