                               Psi4 1.8.2 release

  ==> Input File <==

--------------------------------------------------------------------------
MEMORY 60 GB

molecule dimer {
-1 1
F          0.000000     0.000000     0.000000
O          0.020616    -2.622130    -0.705666
H          0.176062    -1.700924    -0.426870
H          0.795461    -2.839266    -1.297010
O         -2.870261    -0.000471     0.338715
H         -2.996147     0.666526     1.009785
H         -1.893125    -0.105935     0.214458
O         -0.001472     2.687410     0.723673
H          0.881290     2.822564     0.332212
H         -0.142487     1.752329     0.774552
O          2.136094    -0.056435     1.706865
H          1.433639    -0.096855     0.999761
H          1.859747     0.765500     2.240514
O         -1.199236     1.217659    -2.416045
H         -0.472625     1.733742    -2.621158
H         -0.898635     0.774842    -1.566927

units ang
no_reorient
no_com
symmetry c1
}

set {
basis        aug-cc-pVTZ
scf_type     df
}

energy("mp2")
--------------------------------------------------------------------------

    Molecular point group: c1

    Geometry (in Angstrom), charge = -1, multiplicity = 1:

       Center              X                  Y                   Z               Mass
    ------------   -----------------  -----------------  -----------------  -----------------
         F            0.000000000000     0.000000000000     0.000000000000    18.998403162730
         O            0.020616000000    -2.622130000000    -0.705666000000    15.994914619570
         H            0.176062000000    -1.700924000000    -0.426870000000     1.007825032230
         H            0.795461000000    -2.839266000000    -1.297010000000     1.007825032230
         O           -2.870261000000    -0.000471000000     0.338715000000    15.994914619570
         H           -2.996147000000     0.666526000000     1.009785000000     1.007825032230
         H           -1.893125000000    -0.105935000000     0.214458000000     1.007825032230
         O           -0.001472000000     2.687410000000     0.723673000000    15.994914619570
         H            0.881290000000     2.822564000000     0.332212000000     1.007825032230
         H           -0.142487000000     1.752329000000     0.774552000000     1.007825032230
         O            2.136094000000    -0.056435000000     1.706865000000    15.994914619570
         H            1.433639000000    -0.096855000000     0.999761000000     1.007825032230
         H            1.859747000000     0.765500000000     2.240514000000     1.007825032230
         O           -1.199236000000     1.217659000000    -2.416045000000    15.994914619570
         H           -0.472625000000     1.733742000000    -2.621158000000     1.007825032230
         H           -0.898635000000     0.774842000000    -1.566927000000     1.007825032230

  Charge       = -1
  Multiplicity = 1
  Basis Set: AUG-CC-PVTZ
    Blend: AUG-CC-PVTZ
  Basis Set: (AUG-CC-PVTZ AUX)
    Blend: AUG-CC-PVTZ-JKFIT

    Orbital Energies [Eh]
    ---------------------

    Doubly Occupied:

       1A    -26.006903     2A    -20.420190     3A    -20.412392
       4A    -20.401526     5A    -20.401167     6A    -20.400777
       7A     -1.274903     8A     -1.206358     9A     -1.193770
      10A     -1.180772    11A     -1.171849    12A     -1.170823
      13A     -0.581057    14A     -0.559526    15A     -0.546711
      16A     -0.540950    17A     -0.534176    18A     -0.449188
      19A     -0.439900    20A     -0.427810    21A     -0.422704
      22A     -0.419089    23A     -0.370979    24A     -0.365136
      25A     -0.356974    26A     -0.355487    27A     -0.349079
      28A     -0.347124    29A     -0.342479    30A     -0.339416

  @DF-RHF Final Energy:  -479.85414320103774

   => Energetics <=

    Nuclear Repulsion Energy =            262.1808955732349773
    One-Electron Energy =               -1198.0916435180872668
    Two-Electron Energy =                 456.0566047438146029
    Total Energy =                       -479.8541432010377434
 Dipole X            :         33.0135885          -31.3144475            1.6991409
 Dipole Y            :        -24.9202354           25.6639680            0.7437326
 Dipole Z            :          6.1721556           -5.9721903            0.1999653
 Magnitude           :                                                    1.8655305
  Basis Set: (AUG-CC-PVTZ AUX)
    Blend: AUG-CC-PVTZ-RI
	 Reference Energy          =    -479.8541432010377434 [Eh]
	 Singles Energy            =      -0.0000000000000000 [Eh]
	 Same-Spin Energy          =      -0.4332545887251262 [Eh]
	 Opposite-Spin Energy      =      -1.3174579802399542 [Eh]
	 Correlation Energy        =      -1.7507125689650804 [Eh]
	 Total Energy              =    -481.6048557700028141 [Eh]

	 ================> DF-SCS-MP2 Energies <==================
	-----------------------------------------------------------
	 SCS Same-Spin Scale       =       0.3333333333333333 [-]
	 SCS Opposite-Spin Scale   =       1.2000000000000000 [-]
	 SCS Same-Spin Energy      =      -0.1444181962417087 [Eh]
	 SCS Opposite-Spin Energy  =      -1.5809495762879451 [Eh]
	 SCS Correlation Energy    =      -1.7253677725296539 [Eh]
	 SCS Total Energy          =    -481.5795109735673805 [Eh]
	-----------------------------------------------------------

*** Psi4 exiting successfully. Buy a developer a beer!
