                               Psi4 1.9 release

  ==> Input File <==

--------------------------------------------------------------------------
MEMORY 60 GB

molecule dimer {
-1 1
F      0.000000     0.000000     0.000000
--
0 1
O      2.400550     0.878111     1.258466
H      1.541205     0.949633     0.811432
H      2.699131     1.774987     1.477501
O     -2.134479     1.075150     1.390297
H     -2.935259     0.501464     1.548356
H     -1.522539     0.602603     0.828169
O     -2.058570    -0.966210    -1.758447
H     -1.269903    -0.802439    -1.187441
H     -2.168440    -1.875697    -2.119616
O      2.056294    -1.500050    -1.140092
H      1.522958    -0.799826    -0.738451
H      2.773549    -1.554714    -0.462578
O     -0.008638     2.314735    -1.744331
H     -0.015099     1.517325    -1.142884
H     -0.979067     2.389768    -1.960602
O      0.111329    -1.229377     2.544786
H     -0.031102    -0.875406     1.676046
H      0.128193    -0.452941     3.103989

units ang
no_reorient
no_com
symmetry c1
}

set {
basis        aug-cc-pVTZ
scf_type     df
}

energy("mp2", bsse_type="cp")
--------------------------------------------------------------------------

                               Psi4 1.9 release
    Molecular point group: c1
  Charge       = 0
  Multiplicity = 1
  Basis Set: AUG-CC-PVTZ
    Blend: AUG-CC-PVTZ
  Basis Set: (AUG-CC-PVTZ AUX)
    Blend: AUG-CC-PVTZ-JKFIT
  @DF-RHF Final Energy:  -456.32870707187021
    Total Energy =                       -456.3287070718702125
 Dipole X            :         -5.6715298            5.0559906           -0.6155393
 Dipole Y            :        -11.0614988           11.2507283            0.1892295
 Dipole Z            :        -11.3119418           11.7906684            0.4787266
 Magnitude           :                                                    0.8024185
  Basis Set: (AUG-CC-PVTZ AUX)
    Blend: AUG-CC-PVTZ-RI
	 Reference Energy          =    -456.3287070718702125 [Eh]
	 Singles Energy            =      -0.0000000000000000 [Eh]
	 Same-Spin Energy          =      -0.4154194863512959 [Eh]
	 Opposite-Spin Energy      =      -1.3061826171309112 [Eh]
	 Correlation Energy        =      -1.7216021034822071 [Eh]
	 Total Energy              =    -458.0503091753524245 [Eh]
	 SCS Total Energy          =    -458.0345993745444275 [Eh]
                               Psi4 1.9 release
    Molecular point group: c1
  Multiplicity = 1
  Basis Set: AUG-CC-PVTZ
    Blend: AUG-CC-PVTZ
  Basis Set: (AUG-CC-PVTZ AUX)
    Blend: AUG-CC-PVTZ-JKFIT
  @DF-RHF Final Energy:   -99.45114904752938
    Total Energy =                        -99.4511490475293840
  Basis Set: (AUG-CC-PVTZ AUX)
	 Singles Energy            =      -0.0000000000000000 [Eh]
	 Same-Spin Energy          =      -0.0820936145288253 [Eh]
	 Opposite-Spin Energy      =      -0.2303979538027731 [Eh]
	 Correlation Energy        =      -0.3124915683315984 [Eh]
	 Total Energy              =     -99.7636406158609788 [Eh]
	 SCS Total Energy          =     -99.7549911302689907 [Eh]
                               Psi4 1.9 release
    Molecular point group: c1

    Geometry (in Bohr), charge = -1, multiplicity = 1:

       Center              X                  Y                   Z               Mass
    ------------   -----------------  -----------------  -----------------  -----------------
         F            0.000000000000     0.000000000000     0.000000000000    18.998403162730
         O            4.536382050468     1.659389297752     2.378156078200    15.994914619570
         H            2.912455353186     1.794546289697     1.533384249432     1.007825032230
         H            5.100618366733     3.354239306248     2.792072240090     1.007825032230
         O           -4.033580730541     2.031739043786     2.627280563046    15.994914619570
         H           -5.546835617285     0.947629621777     2.925968784709     1.007825032230
         H           -2.877181725328     1.138754632379     1.565012595594     1.007825032230
         O           -3.890133510084    -1.825872279679    -3.322983236133    15.994914619570
         H           -2.399768875897    -1.516389942386    -2.243938280140     1.007825032230
         H           -4.097757719488    -3.544553624343    -4.005493731138     1.007825032230
         O            3.885832493422    -2.834683674493    -2.154461637825    15.994914619570
         H            2.877973520575    -1.511452088020    -1.395470147070     1.007825032230
         H            5.241248005537    -2.937983663415    -0.874145731662     1.007825032230
         O           -0.016323454272     4.374215203012    -3.296307862146    15.994914619570
         H           -0.028532974768     2.867328693310    -2.159737753168     1.007825032230
         H           -1.850168488474     4.516007023383    -3.705000821025     1.007825032230
         O            0.210381319821    -2.323185834937     4.808948587899    15.994914619570
         H           -0.058774261954    -1.654277588583     3.167267913669     1.007825032230
         H            0.242249661201    -0.855934440991     5.865689106434     1.007825032230

  Charge       = -1
  Multiplicity = 1
  Basis Set: AUG-CC-PVTZ
    Blend: AUG-CC-PVTZ
  Basis Set: (AUG-CC-PVTZ AUX)
    Blend: AUG-CC-PVTZ-JKFIT

    Orbital Energies [Eh]
    ---------------------

    Doubly Occupied:

       1A    -26.014690     2A    -20.424315     3A    -20.416948
       4A    -20.413451     5A    -20.413042     6A    -20.400365
       7A    -20.398131     8A     -1.283046     9A     -1.203345
      10A     -1.191526    11A     -1.188580    12A     -1.185014
      13A     -1.178037    14A     -1.177453    15A     -0.583131
      16A     -0.576156    17A     -0.569151    18A     -0.557186
      19A     -0.534763    20A     -0.531571    21A     -0.441406
      22A     -0.439535    23A     -0.433984    24A     -0.429227
      25A     -0.425028    26A     -0.416383    27A     -0.372295
      28A     -0.371217    29A     -0.368569    30A     -0.366363
      31A     -0.360326    32A     -0.356086    33A     -0.350111
      34A     -0.342908    35A     -0.340732

  @DF-RHF Final Energy:  -555.92545712704350

   => Energetics <=

    Nuclear Repulsion Energy =            351.5315282700086641
    One-Electron Energy =               -1482.8058139561999269
    Two-Electron Energy =                 575.3488285591477052
    Total Energy =                       -555.9254571270435008
 Dipole X            :         -5.6206712            5.0559906           -0.5646806
 Dipole Y            :        -11.1655630           11.2507283            0.0851652
 Dipole Z            :        -11.3776983           11.7906684            0.4129700
 Magnitude           :                                                    0.7047422
  Basis Set: (AUG-CC-PVTZ AUX)
    Blend: AUG-CC-PVTZ-RI
	 Reference Energy          =    -555.9254571270435008 [Eh]
	 Singles Energy            =      -0.0000000000000000 [Eh]
	 Same-Spin Energy          =      -0.5035419351788908 [Eh]
	 Opposite-Spin Energy      =      -1.5361436179838936 [Eh]
	 Correlation Energy        =      -2.0396855531627844 [Eh]
	 Total Energy              =    -557.9651426802063270 [Eh]

	 ================> DF-SCS-MP2 Energies <==================
	-----------------------------------------------------------
	 SCS Same-Spin Scale       =       0.3333333333333333 [-]
	 SCS Opposite-Spin Scale   =       1.2000000000000000 [-]
	 SCS Same-Spin Energy      =      -0.1678473117262969 [Eh]
	 SCS Opposite-Spin Energy  =      -1.8433723415806722 [Eh]
	 SCS Correlation Energy    =      -2.0112196533069691 [Eh]
	 SCS Total Energy          =    -557.9366767803504672 [Eh]
	-----------------------------------------------------------

*** Psi4 exiting successfully. Buy a developer a beer!
