                               Psi4 1.9 release

  ==> Input File <==

--------------------------------------------------------------------------
MEMORY 60 GB

molecule dimer {
-1 1
F      0.000000     0.000000     0.000000
--
0 1
O     -0.331381     0.249282     2.779760
H     -0.320730    -0.003331     1.859362
H      0.462546    -0.102102     3.256506
O     -2.816888     0.081699     0.065921
H     -1.864288    -0.047694     0.059424
H     -3.167471    -0.299167     0.838096
O      0.698056    -1.115714    -2.643289
H      0.021217    -0.824182    -3.293089
H      0.590159    -0.734498    -1.765903
O     -1.216980     2.387973    -1.254426
H     -0.806494     1.629908    -0.785597
H     -0.745204     3.218407    -0.927778
O      1.187241    -2.160570     1.374618
H      1.300436    -2.883562     0.707615
H      0.669894    -1.398415     0.902330

units ang
no_reorient
no_com
symmetry c1
}

set {
basis        aug-cc-pVTZ
scf_type     df
}

energy("mp2", bsse_type="cp")
--------------------------------------------------------------------------

                               Psi4 1.9 release
    Molecular point group: c1
  Charge       = 0
  Multiplicity = 1
  Basis Set: AUG-CC-PVTZ
    Blend: AUG-CC-PVTZ
  Basis Set: (AUG-CC-PVTZ AUX)
    Blend: AUG-CC-PVTZ-JKFIT
  @DF-RHF Final Energy:  -380.26370766940494
    Total Energy =                       -380.2637076694049370
 Dipole X            :         45.4319308          -44.7856607            0.6462701
 Dipole Y            :         10.8995484          -11.1555749           -0.2560265
 Dipole Z            :         -6.2891427            6.4848560            0.1957133
 Magnitude           :                                                    0.7221622
  Basis Set: (AUG-CC-PVTZ AUX)
    Blend: AUG-CC-PVTZ-RI
	 Reference Energy          =    -380.2637076694049370 [Eh]
	 Singles Energy            =      -0.0000000000000000 [Eh]
	 Same-Spin Energy          =      -0.3460502315369055 [Eh]
	 Opposite-Spin Energy      =      -1.0884558724314455 [Eh]
	 Correlation Energy        =      -1.4345061039683509 [Eh]
	 Total Energy              =    -381.6982137733733111 [Eh]
	 SCS Total Energy          =    -381.6852047935016117 [Eh]
                               Psi4 1.9 release
    Molecular point group: c1
  Multiplicity = 1
  Basis Set: AUG-CC-PVTZ
    Blend: AUG-CC-PVTZ
  Basis Set: (AUG-CC-PVTZ AUX)
    Blend: AUG-CC-PVTZ-JKFIT
  @DF-RHF Final Energy:   -99.45109330249777
    Total Energy =                        -99.4510933024977817
  Basis Set: (AUG-CC-PVTZ AUX)
	 Singles Energy            =      -0.0000000000000000 [Eh]
	 Same-Spin Energy          =      -0.0820255345284220 [Eh]
	 Opposite-Spin Energy      =      -0.2298093057611204 [Eh]
	 Correlation Energy        =      -0.3118348402895423 [Eh]
	 Total Energy              =     -99.7629281427873167 [Eh]
	 SCS Total Energy          =     -99.7542063142539206 [Eh]
                               Psi4 1.9 release
    Molecular point group: c1

    Geometry (in Bohr), charge = -1, multiplicity = 1:

       Center              X                  Y                   Z               Mass
    ------------   -----------------  -----------------  -----------------  -----------------
         F            0.000000000000     0.000000000000     0.000000000000    18.998403162730
         O           -0.626219333180     0.471074708006     5.252985094503    15.994914619570
         H           -0.606091860218    -0.006294677724     3.513684948084     1.007825032230
         H            0.874085260426    -0.192944816861     6.153904465910     1.007825032230
         O           -5.323146846089     0.154388734724     0.124572635916    15.994914619570
         H           -3.522993738978    -0.090128597828     0.112295085279     1.007825032230
         H           -5.985652700330    -0.565343695775     1.583771906842     1.007825032230
         O            1.319134660233    -2.108393894339    -4.995092280435    15.994914619570
         H            0.040094319204    -1.557478257532    -6.223036316758     1.007825032230
         H            1.115238880474    -1.388000059697    -3.337073034124     1.007825032230
         O           -2.299758900160     4.512614964988    -2.370521584654    15.994914619570
         H           -1.524052781825     3.080079729693    -1.484563174981     1.007825032230
         H           -1.408231467596     6.081907790256    -1.753246325225     1.007825032230
         O            2.243560334915    -4.082885574880     2.597651547125    15.994914619570
         H            2.457467883686    -5.449142445777     1.337198552266     1.007825032230
         H            1.265916193087    -2.642621359732     1.705156574784     1.007825032230

  Charge       = -1
  Multiplicity = 1
  Basis Set: AUG-CC-PVTZ
    Blend: AUG-CC-PVTZ
  Basis Set: (AUG-CC-PVTZ AUX)
    Blend: AUG-CC-PVTZ-JKFIT

    Orbital Energies [Eh]
    ---------------------

    Doubly Occupied:

       1A    -25.995941     2A    -20.411060     3A    -20.410148
       4A    -20.407897     5A    -20.401236     6A    -20.391512
       7A     -1.259787     8A     -1.189300     9A     -1.186360
      10A     -1.179713    11A     -1.171201    12A     -1.167313
      13A     -0.575819    14A     -0.571455    15A     -0.564696
      16A     -0.541939    17A     -0.536786    18A     -0.426964
      19A     -0.420613    20A     -0.418943    21A     -0.414132
      22A     -0.411641    23A     -0.359605    24A     -0.355386
      25A     -0.354140    26A     -0.347477    27A     -0.345988
      28A     -0.343596    29A     -0.340243    30A     -0.336690

  @DF-RHF Final Energy:  -479.84750132730619

   => Energetics <=

    Nuclear Repulsion Energy =            259.2997739820257834
    One-Electron Energy =               -1192.6193806671467428
    Two-Electron Energy =                 453.4721053578148258
    Total Energy =                       -479.8475013273061904
 Dipole X            :         45.7162565          -44.7856607            0.9305958
 Dipole Y            :         11.1033447          -11.1555749           -0.0522302
 Dipole Z            :         -6.4543851            6.4848560            0.0304709
 Magnitude           :                                                    0.9325583
  Basis Set: (AUG-CC-PVTZ AUX)
    Blend: AUG-CC-PVTZ-RI
	 Reference Energy          =    -479.8475013273061904 [Eh]
	 Singles Energy            =      -0.0000000000000000 [Eh]
	 Same-Spin Energy          =      -0.4330329390340972 [Eh]
	 Opposite-Spin Energy      =      -1.3172504321874414 [Eh]
	 Correlation Energy        =      -1.7502833712215387 [Eh]
	 Total Energy              =    -481.5977846985277324 [Eh]

	 ================> DF-SCS-MP2 Energies <==================
	-----------------------------------------------------------
	 SCS Same-Spin Scale       =       0.3333333333333333 [-]
	 SCS Opposite-Spin Scale   =       1.2000000000000000 [-]
	 SCS Same-Spin Energy      =      -0.1443443130113657 [Eh]
	 SCS Opposite-Spin Energy  =      -1.5807005186249297 [Eh]
	 SCS Correlation Energy    =      -1.7250448316362954 [Eh]
	 SCS Total Energy          =    -481.5725461589424867 [Eh]
	-----------------------------------------------------------

*** Psi4 exiting successfully. Buy a developer a beer!
