                               Psi4 1.8.2 release

  ==> Input File <==

--------------------------------------------------------------------------
MEMORY 60 GB

molecule dimer {
-1 1
F          0.000000     0.000000     0.000000
O         -0.331381     0.249282     2.779760
H         -0.320730    -0.003331     1.859362
H          0.462546    -0.102102     3.256506
O         -2.816888     0.081699     0.065921
H         -1.864288    -0.047694     0.059424
H         -3.167471    -0.299167     0.838096
O          0.698056    -1.115714    -2.643289
H          0.021217    -0.824182    -3.293089
H          0.590159    -0.734498    -1.765903
O         -1.216980     2.387973    -1.254426
H         -0.806494     1.629908    -0.785597
H         -0.745204     3.218407    -0.927778
O          1.187241    -2.160570     1.374618
H          1.300436    -2.883562     0.707615
H          0.669894    -1.398415     0.902330

units ang
no_reorient
no_com
symmetry c1
}

set {
basis        aug-cc-pVTZ
scf_type     df
}

energy("mp2")
--------------------------------------------------------------------------

    Molecular point group: c1

    Geometry (in Angstrom), charge = -1, multiplicity = 1:

       Center              X                  Y                   Z               Mass
    ------------   -----------------  -----------------  -----------------  -----------------
         F            0.000000000000     0.000000000000     0.000000000000    18.998403162730
         O           -0.331381000000     0.249282000000     2.779760000000    15.994914619570
         H           -0.320730000000    -0.003331000000     1.859362000000     1.007825032230
         H            0.462546000000    -0.102102000000     3.256506000000     1.007825032230
         O           -2.816888000000     0.081699000000     0.065921000000    15.994914619570
         H           -1.864288000000    -0.047694000000     0.059424000000     1.007825032230
         H           -3.167471000000    -0.299167000000     0.838096000000     1.007825032230
         O            0.698056000000    -1.115714000000    -2.643289000000    15.994914619570
         H            0.021217000000    -0.824182000000    -3.293089000000     1.007825032230
         H            0.590159000000    -0.734498000000    -1.765903000000     1.007825032230
         O           -1.216980000000     2.387973000000    -1.254426000000    15.994914619570
         H           -0.806494000000     1.629908000000    -0.785597000000     1.007825032230
         H           -0.745204000000     3.218407000000    -0.927778000000     1.007825032230
         O            1.187241000000    -2.160570000000     1.374618000000    15.994914619570
         H            1.300436000000    -2.883562000000     0.707615000000     1.007825032230
         H            0.669894000000    -1.398415000000     0.902330000000     1.007825032230

  Charge       = -1
  Multiplicity = 1
  Basis Set: AUG-CC-PVTZ
    Blend: AUG-CC-PVTZ
  Basis Set: (AUG-CC-PVTZ AUX)
    Blend: AUG-CC-PVTZ-JKFIT

    Orbital Energies [Eh]
    ---------------------

    Doubly Occupied:

       1A    -25.995941     2A    -20.411060     3A    -20.410148
       4A    -20.407897     5A    -20.401236     6A    -20.391512
       7A     -1.259787     8A     -1.189300     9A     -1.186360
      10A     -1.179713    11A     -1.171201    12A     -1.167313
      13A     -0.575819    14A     -0.571455    15A     -0.564696
      16A     -0.541939    17A     -0.536786    18A     -0.426964
      19A     -0.420613    20A     -0.418943    21A     -0.414132
      22A     -0.411641    23A     -0.359605    24A     -0.355386
      25A     -0.354140    26A     -0.347477    27A     -0.345988
      28A     -0.343596    29A     -0.340243    30A     -0.336690

  @DF-RHF Final Energy:  -479.84750132689533

   => Energetics <=

    Nuclear Repulsion Energy =            259.2997739820257834
    One-Electron Energy =               -1192.6193806669825790
    Two-Electron Energy =                 453.4721053580615262
    Total Energy =                       -479.8475013268953262
 Dipole X            :         45.7162565          -44.7856607            0.9305958
 Dipole Y            :         11.1033447          -11.1555749           -0.0522302
 Dipole Z            :         -6.4543851            6.4848560            0.0304709
 Magnitude           :                                                    0.9325583
  Basis Set: (AUG-CC-PVTZ AUX)
    Blend: AUG-CC-PVTZ-RI
	 Reference Energy          =    -479.8475013268953262 [Eh]
	 Singles Energy            =      -0.0000000000000000 [Eh]
	 Same-Spin Energy          =      -0.4330329390339307 [Eh]
	 Opposite-Spin Energy      =      -1.3172504321872816 [Eh]
	 Correlation Energy        =      -1.7502833712212122 [Eh]
	 Total Energy              =    -481.5977846981165271 [Eh]

	 ================> DF-SCS-MP2 Energies <==================
	-----------------------------------------------------------
	 SCS Same-Spin Scale       =       0.3333333333333333 [-]
	 SCS Opposite-Spin Scale   =       1.2000000000000000 [-]
	 SCS Same-Spin Energy      =      -0.1443443130113102 [Eh]
	 SCS Opposite-Spin Energy  =      -1.5807005186247378 [Eh]
	 SCS Correlation Energy    =      -1.7250448316360480 [Eh]
	 SCS Total Energy          =    -481.5725461585313951 [Eh]
	-----------------------------------------------------------

*** Psi4 exiting successfully. Buy a developer a beer!
