                               Psi4 1.8.2 release

  ==> Input File <==

--------------------------------------------------------------------------
MEMORY 60 GB

molecule dimer {
0 1
Gh(F)      0.000000     0.000000     0.000000
O         -1.006216    -0.656294    -2.699179
H         -1.494548     0.181956    -2.928445
H         -0.539619    -0.569324    -1.861169
Gh(O)      1.610323     1.707632    -1.491867
Gh(H)      1.013163     2.482512    -1.512988
Gh(H)      1.164599     1.015320    -1.082122
Gh(O)     -1.681240    -2.035223     1.447043
Gh(H)     -1.235665    -1.300377     0.974924
Gh(H)     -2.630026    -1.906729     1.111423
Gh(O)      2.021760    -1.325611     0.977475
Gh(H)      1.199443    -1.017688     0.585508
Gh(H)      2.376563    -1.912348     0.315540

units ang
no_reorient
no_com
symmetry c1
}

set {
basis        aug-cc-pVTZ
scf_type     df
}

energy("mp2")
--------------------------------------------------------------------------

    Molecular point group: c1

    Geometry (in Angstrom), charge = 0, multiplicity = 1:

       Center              X                  Y                   Z               Mass
    ------------   -----------------  -----------------  -----------------  -----------------
      Gh(F)           0.000000000000     0.000000000000     0.000000000000    18.998403162730
         O           -1.006216000000    -0.656294000000    -2.699179000000    15.994914619570
         H           -1.494548000000     0.181956000000    -2.928445000000     1.007825032230
         H           -0.539619000000    -0.569324000000    -1.861169000000     1.007825032230
      Gh(O)           1.610323000000     1.707632000000    -1.491867000000    15.994914619570
      Gh(H)           1.013163000000     2.482512000000    -1.512988000000     1.007825032230
      Gh(H)           1.164599000000     1.015320000000    -1.082122000000     1.007825032230
      Gh(O)          -1.681240000000    -2.035223000000     1.447043000000    15.994914619570
      Gh(H)          -1.235665000000    -1.300377000000     0.974924000000     1.007825032230
      Gh(H)          -2.630026000000    -1.906729000000     1.111423000000     1.007825032230
      Gh(O)           2.021760000000    -1.325611000000     0.977475000000    15.994914619570
      Gh(H)           1.199443000000    -1.017688000000     0.585508000000     1.007825032230
      Gh(H)           2.376563000000    -1.912348000000     0.315540000000     1.007825032230

  Charge       = 0
  Multiplicity = 1
  Basis Set: AUG-CC-PVTZ
    Blend: AUG-CC-PVTZ
  Basis Set: (AUG-CC-PVTZ AUX)
    Blend: AUG-CC-PVTZ-JKFIT

    Orbital Energies [Eh]
    ---------------------

    Doubly Occupied:

       1A    -20.567833     2A     -1.337908     3A     -0.717387
       4A     -0.567664     5A     -0.506418

  @DF-RHF Final Energy:   -76.05674697192110

   => Energetics <=

    Nuclear Repulsion Energy =              8.9697172346328404
    One-Electron Energy =                -122.6585077612338779
    Two-Electron Energy =                  37.6320435546799388
    Total Energy =                        -76.0567469719211005
 Dipole X            :         19.0442342          -19.0557998           -0.0115657
 Dipole Y            :         11.2711358          -10.6537468            0.6173890
 Dipole Z            :         50.2677577          -49.8567313            0.4110264
 Magnitude           :                                                    0.7417854
  Basis Set: (AUG-CC-PVTZ AUX)
    Blend: AUG-CC-PVTZ-RI
	 Reference Energy          =     -76.0567469719211005 [Eh]
	 Singles Energy            =      -0.0000000000000000 [Eh]
	 Same-Spin Energy          =      -0.0686982884037713 [Eh]
	 Opposite-Spin Energy      =      -0.2168007968426404 [Eh]
	 Correlation Energy        =      -0.2854990852464117 [Eh]
	 Total Energy              =     -76.3422460571675146 [Eh]

	 ================> DF-SCS-MP2 Energies <==================
	-----------------------------------------------------------
	 SCS Same-Spin Scale       =       0.3333333333333333 [-]
	 SCS Opposite-Spin Scale   =       1.2000000000000000 [-]
	 SCS Same-Spin Energy      =      -0.0228994294679238 [Eh]
	 SCS Opposite-Spin Energy  =      -0.2601609562111685 [Eh]
	 SCS Correlation Energy    =      -0.2830603856790923 [Eh]
	 SCS Total Energy          =     -76.3398073576001934 [Eh]
	-----------------------------------------------------------

*** Psi4 exiting successfully. Buy a developer a beer!
