                               Psi4 1.8.2 release

  ==> Input File <==

--------------------------------------------------------------------------
MEMORY 60 GB

molecule dimer {
-1 1
F          0.000000     0.000000     0.000000
O          2.087812    -2.235654    -0.550394
H          2.423601    -2.899671    -1.150602
H          2.190875    -1.369155    -0.929071
O          0.415489    -2.119119     2.070246
H          0.482112    -2.996680     1.655893
H          0.091966    -1.548601     1.375700
O         -0.730006     1.647225     1.930793
H         -0.321923     1.147844     1.188363
H         -1.196312     2.375028     1.563056
O          2.361343     1.061093     0.316103
H          2.099324     1.707318     0.957043
H          1.582739     0.514063     0.417266
O          0.150347     2.501610    -1.052386
H          0.710848     3.031242    -0.538799
H          0.364562     1.585555    -0.826675
O         -1.585915    -0.182921    -2.257821
H         -0.843561    -0.199899    -1.588493
H         -2.094702    -1.043463    -2.099459

units ang
no_reorient
no_com
symmetry c1
}

set {
basis        aug-cc-pVTZ
scf_type     df
}

energy("mp2")
--------------------------------------------------------------------------

    Molecular point group: c1

    Geometry (in Angstrom), charge = -1, multiplicity = 1:

       Center              X                  Y                   Z               Mass
    ------------   -----------------  -----------------  -----------------  -----------------
         F            0.000000000000     0.000000000000     0.000000000000    18.998403162730
         O            2.087812000000    -2.235654000000    -0.550394000000    15.994914619570
         H            2.423601000000    -2.899671000000    -1.150602000000     1.007825032230
         H            2.190875000000    -1.369155000000    -0.929071000000     1.007825032230
         O            0.415489000000    -2.119119000000     2.070246000000    15.994914619570
         H            0.482112000000    -2.996680000000     1.655893000000     1.007825032230
         H            0.091966000000    -1.548601000000     1.375700000000     1.007825032230
         O           -0.730006000000     1.647225000000     1.930793000000    15.994914619570
         H           -0.321923000000     1.147844000000     1.188363000000     1.007825032230
         H           -1.196312000000     2.375028000000     1.563056000000     1.007825032230
         O            2.361343000000     1.061093000000     0.316103000000    15.994914619570
         H            2.099324000000     1.707318000000     0.957043000000     1.007825032230
         H            1.582739000000     0.514063000000     0.417266000000     1.007825032230
         O            0.150347000000     2.501610000000    -1.052386000000    15.994914619570
         H            0.710848000000     3.031242000000    -0.538799000000     1.007825032230
         H            0.364562000000     1.585555000000    -0.826675000000     1.007825032230
         O           -1.585915000000    -0.182921000000    -2.257821000000    15.994914619570
         H           -0.843561000000    -0.199899000000    -1.588493000000     1.007825032230
         H           -2.094702000000    -1.043463000000    -2.099459000000     1.007825032230

  Charge       = -1
  Multiplicity = 1
  Basis Set: AUG-CC-PVTZ
    Blend: AUG-CC-PVTZ
  Basis Set: (AUG-CC-PVTZ AUX)
    Blend: AUG-CC-PVTZ-JKFIT

    Orbital Energies [Eh]
    ---------------------

    Doubly Occupied:

       1A    -25.999485     2A    -20.439211     3A    -20.404215
       4A    -20.402850     5A    -20.401102     6A    -20.391222
       7A    -20.386192     8A     -1.274469     9A     -1.227382
      10A     -1.204732    11A     -1.189885    12A     -1.184820
      13A     -1.175423    14A     -1.162555    15A     -0.606851
      16A     -0.568469    17A     -0.558111    18A     -0.550777
      19A     -0.548281    20A     -0.527758    21A     -0.460032
      22A     -0.454462    23A     -0.431207    24A     -0.422538
      25A     -0.420949    26A     -0.414098    27A     -0.385236
      28A     -0.360991    29A     -0.359571    30A     -0.352635
      31A     -0.347599    32A     -0.344181    33A     -0.339518
      34A     -0.336180    35A     -0.331276

  @DF-RHF Final Energy:  -555.90817586354933

   => Energetics <=

    Nuclear Repulsion Energy =            361.2870713931696969
    One-Electron Energy =               -1502.4619584772922281
    Two-Electron Energy =                 585.2667112205731428
    Total Energy =                       -555.9081758635493316
 Dipole X            :        -51.1809459           51.1777311           -0.0032148
 Dipole Y            :        -11.7738151           10.7363902           -1.0374249
 Dipole Z            :         -7.6482374            6.9476726           -0.7005648
 Magnitude           :                                                    1.2518194
  Basis Set: (AUG-CC-PVTZ AUX)
    Blend: AUG-CC-PVTZ-RI
	 Reference Energy          =    -555.9081758635493316 [Eh]
	 Singles Energy            =      -0.0000000000000000 [Eh]
	 Same-Spin Energy          =      -0.5040995242520625 [Eh]
	 Opposite-Spin Energy      =      -1.5341636680627091 [Eh]
	 Correlation Energy        =      -2.0382631923147718 [Eh]
	 Total Energy              =    -557.9464390558640616 [Eh]

	 ================> DF-SCS-MP2 Energies <==================
	-----------------------------------------------------------
	 SCS Same-Spin Scale       =       0.3333333333333333 [-]
	 SCS Opposite-Spin Scale   =       1.2000000000000000 [-]
	 SCS Same-Spin Energy      =      -0.1680331747506875 [Eh]
	 SCS Opposite-Spin Energy  =      -1.8409964016752509 [Eh]
	 SCS Correlation Energy    =      -2.0090295764259385 [Eh]
	 SCS Total Energy          =    -557.9172054399753051 [Eh]
	-----------------------------------------------------------

*** Psi4 exiting successfully. Buy a developer a beer!
