                               Psi4 1.8.2 release

  ==> Input File <==

--------------------------------------------------------------------------
MEMORY 60 GB

molecule dimer {
-1 1
F          0.000000     0.000000     0.000000
O          2.081703    -1.508701     1.473146
H          1.423928    -1.144779     0.827316
H          1.989185    -0.825890     2.234926
O         -1.611172     1.039781    -2.139406
H         -1.249726     0.761251    -1.244112
H         -1.011081     0.474083    -2.746982
O          0.972873    -2.190476    -1.634802
H          0.624232    -1.381249    -1.276102
H          0.243327    -2.774866    -1.933728
O         -0.433920     2.565224     0.815342
H         -0.264565     1.626146     0.879923
H          0.340327     2.904093     1.318431
O         -2.434501    -1.580169     0.979841
H         -2.571580    -1.692205     1.903886
H         -1.682664    -1.058526     0.812807
O          1.827191     1.758440    -0.803170
H          1.167277     1.082376    -0.802700
H          1.643038     2.278252    -1.564266

units ang
no_reorient
no_com
symmetry c1
}

set {
basis        aug-cc-pVTZ
scf_type     df
}

energy("mp2")
--------------------------------------------------------------------------

    Molecular point group: c1

    Geometry (in Angstrom), charge = -1, multiplicity = 1:

       Center              X                  Y                   Z               Mass
    ------------   -----------------  -----------------  -----------------  -----------------
         F            0.000000000000     0.000000000000     0.000000000000    18.998403162730
         O            2.081703000000    -1.508701000000     1.473146000000    15.994914619570
         H            1.423928000000    -1.144779000000     0.827316000000     1.007825032230
         H            1.989185000000    -0.825890000000     2.234926000000     1.007825032230
         O           -1.611172000000     1.039781000000    -2.139406000000    15.994914619570
         H           -1.249726000000     0.761251000000    -1.244112000000     1.007825032230
         H           -1.011081000000     0.474083000000    -2.746982000000     1.007825032230
         O            0.972873000000    -2.190476000000    -1.634802000000    15.994914619570
         H            0.624232000000    -1.381249000000    -1.276102000000     1.007825032230
         H            0.243327000000    -2.774866000000    -1.933728000000     1.007825032230
         O           -0.433920000000     2.565224000000     0.815342000000    15.994914619570
         H           -0.264565000000     1.626146000000     0.879923000000     1.007825032230
         H            0.340327000000     2.904093000000     1.318431000000     1.007825032230
         O           -2.434501000000    -1.580169000000     0.979841000000    15.994914619570
         H           -2.571580000000    -1.692205000000     1.903886000000     1.007825032230
         H           -1.682664000000    -1.058526000000     0.812807000000     1.007825032230
         O            1.827191000000     1.758440000000    -0.803170000000    15.994914619570
         H            1.167277000000     1.082376000000    -0.802700000000     1.007825032230
         H            1.643038000000     2.278252000000    -1.564266000000     1.007825032230

  Charge       = -1
  Multiplicity = 1
  Basis Set: AUG-CC-PVTZ
    Blend: AUG-CC-PVTZ
  Basis Set: (AUG-CC-PVTZ AUX)
    Blend: AUG-CC-PVTZ-JKFIT

    Orbital Energies [Eh]
    ---------------------

    Doubly Occupied:

       1A    -26.008432     2A    -20.422459     3A    -20.418638
       4A    -20.418036     5A    -20.417388     6A    -20.403066
       7A    -20.393606     8A     -1.276024     9A     -1.223358
      10A     -1.200154    11A     -1.195855    12A     -1.185814
      13A     -1.174063    14A     -1.171353    15A     -0.606644
      16A     -0.582529    17A     -0.568262    18A     -0.543181
      19A     -0.529028    20A     -0.522900    21A     -0.444720
      22A     -0.441796    23A     -0.437223    24A     -0.432193
      25A     -0.429250    26A     -0.426086    27A     -0.375967
      28A     -0.373689    29A     -0.366077    30A     -0.364452
      31A     -0.360079    32A     -0.353972    33A     -0.350724
      34A     -0.349150    35A     -0.329431

  @DF-RHF Final Energy:  -555.91017681109281

   => Energetics <=

    Nuclear Repulsion Energy =            350.8407985506028695
    One-Electron Energy =               -1481.3107405970038144
    Two-Electron Energy =                 574.5597652353081912
    Total Energy =                       -555.9101768110928106
 Dipole X            :         -7.5399126            7.3115205           -0.2283921
 Dipole Y            :         -1.7862427            1.7413411           -0.0449016
 Dipole Z            :         23.6036445          -22.7957530            0.8078914
 Magnitude           :                                                    0.8407542
  Basis Set: (AUG-CC-PVTZ AUX)
    Blend: AUG-CC-PVTZ-RI
	 Reference Energy          =    -555.9101768110928106 [Eh]
	 Singles Energy            =      -0.0000000000000000 [Eh]
	 Same-Spin Energy          =      -0.5030331207159042 [Eh]
	 Opposite-Spin Energy      =      -1.5354097624300778 [Eh]
	 Correlation Energy        =      -2.0384428831459820 [Eh]
	 Total Energy              =    -557.9486196942388005 [Eh]

	 ================> DF-SCS-MP2 Energies <==================
	-----------------------------------------------------------
	 SCS Same-Spin Scale       =       0.3333333333333333 [-]
	 SCS Opposite-Spin Scale   =       1.2000000000000000 [-]
	 SCS Same-Spin Energy      =      -0.1676777069053014 [Eh]
	 SCS Opposite-Spin Energy  =      -1.8424917149160933 [Eh]
	 SCS Correlation Energy    =      -2.0101694218213946 [Eh]
	 SCS Total Energy          =    -557.9203462329141985 [Eh]
	-----------------------------------------------------------

*** Psi4 exiting successfully. Buy a developer a beer!
