                               Psi4 1.8.2 release

  ==> Input File <==

--------------------------------------------------------------------------
MEMORY 60 GB

molecule dimer {
-1 1
F          0.000000     0.000000     0.000000
O         -1.945136    -1.413182     1.367579
H         -1.132921    -0.938922     1.171212
H         -2.651383    -0.875104     0.961083
O         -1.350681    -2.008379    -1.670930
H         -0.985944    -1.268364    -1.181080
H         -1.736380    -2.627030    -1.021029
O          0.862309    -0.601341     2.674102
H          1.741873    -0.563225     3.014842
H          0.976276    -0.526036     1.729429
O         -1.323555     2.376947     0.717854
H         -0.951878     1.552126     0.528634
H         -1.972845     2.155135     1.420980
O          1.514005     2.065652    -0.894712
H          0.997807     1.295821    -0.630673
H          2.370089     1.930574    -0.478737

units ang
no_reorient
no_com
symmetry c1
}

set {
basis        aug-cc-pVTZ
scf_type     df
}

energy("mp2")
--------------------------------------------------------------------------

    Molecular point group: c1

    Geometry (in Angstrom), charge = -1, multiplicity = 1:

       Center              X                  Y                   Z               Mass
    ------------   -----------------  -----------------  -----------------  -----------------
         F            0.000000000000     0.000000000000     0.000000000000    18.998403162730
         O           -1.945136000000    -1.413182000000     1.367579000000    15.994914619570
         H           -1.132921000000    -0.938922000000     1.171212000000     1.007825032230
         H           -2.651383000000    -0.875104000000     0.961083000000     1.007825032230
         O           -1.350681000000    -2.008379000000    -1.670930000000    15.994914619570
         H           -0.985944000000    -1.268364000000    -1.181080000000     1.007825032230
         H           -1.736380000000    -2.627030000000    -1.021029000000     1.007825032230
         O            0.862309000000    -0.601341000000     2.674102000000    15.994914619570
         H            1.741873000000    -0.563225000000     3.014842000000     1.007825032230
         H            0.976276000000    -0.526036000000     1.729429000000     1.007825032230
         O           -1.323555000000     2.376947000000     0.717854000000    15.994914619570
         H           -0.951878000000     1.552126000000     0.528634000000     1.007825032230
         H           -1.972845000000     2.155135000000     1.420980000000     1.007825032230
         O            1.514005000000     2.065652000000    -0.894712000000    15.994914619570
         H            0.997807000000     1.295821000000    -0.630673000000     1.007825032230
         H            2.370089000000     1.930574000000    -0.478737000000     1.007825032230

  Charge       = -1
  Multiplicity = 1
  Basis Set: AUG-CC-PVTZ
    Blend: AUG-CC-PVTZ
  Basis Set: (AUG-CC-PVTZ AUX)
    Blend: AUG-CC-PVTZ-JKFIT

    Orbital Energies [Eh]
    ---------------------

    Doubly Occupied:

       1A    -25.984944     2A    -20.421350     3A    -20.404446
       4A    -20.398464     5A    -20.398007     6A    -20.388007
       7A     -1.251550     8A     -1.215563     9A     -1.190926
      10A     -1.187761    11A     -1.178619    12A     -1.174760
      13A     -0.583280    14A     -0.557600    15A     -0.553224
      16A     -0.550506    17A     -0.540251    18A     -0.447885
      19A     -0.436744    20A     -0.429437    21A     -0.419492
      22A     -0.416199    23A     -0.370502    24A     -0.351320
      25A     -0.350557    26A     -0.347693    27A     -0.340818
      28A     -0.339917    29A     -0.334026    30A     -0.330942

  @DF-RHF Final Energy:  -479.85812863919938

   => Energetics <=

    Nuclear Repulsion Energy =            264.9196323923973182
    One-Electron Energy =               -1203.7659295727160043
    Two-Electron Energy =                 458.9881685411193644
    Total Energy =                       -479.8581286391993785
 Dipole X            :         41.2307907          -40.2318346            0.9989562
 Dipole Y            :         -7.1559691            6.5999649           -0.5560042
 Dipole Z            :        -42.9839263           43.5880543            0.6041280
 Magnitude           :                                                    1.2930680
  Basis Set: (AUG-CC-PVTZ AUX)
    Blend: AUG-CC-PVTZ-RI
	 Reference Energy          =    -479.8581286391993785 [Eh]
	 Singles Energy            =      -0.0000000000000000 [Eh]
	 Same-Spin Energy          =      -0.4317016958596753 [Eh]
	 Opposite-Spin Energy      =      -1.3135089305737149 [Eh]
	 Correlation Energy        =      -1.7452106264333902 [Eh]
	 Total Energy              =    -481.6033392656327692 [Eh]

	 ================> DF-SCS-MP2 Energies <==================
	-----------------------------------------------------------
	 SCS Same-Spin Scale       =       0.3333333333333333 [-]
	 SCS Opposite-Spin Scale   =       1.2000000000000000 [-]
	 SCS Same-Spin Energy      =      -0.1439005652865584 [Eh]
	 SCS Opposite-Spin Energy  =      -1.5762107166884578 [Eh]
	 SCS Correlation Energy    =      -1.7201112819750162 [Eh]
	 SCS Total Energy          =    -481.5782399211743723 [Eh]
	-----------------------------------------------------------

*** Psi4 exiting successfully. Buy a developer a beer!
