                               Psi4 1.8.2 release

  ==> Input File <==

--------------------------------------------------------------------------
MEMORY 60 GB

molecule dimer {
-1 1
F          0.000000     0.000000     0.000000
O         -0.533187     2.775168     0.632670
H          0.295886     3.282857     0.735170
H         -0.295187     1.845584     0.468372
O          1.234959     1.939079    -1.505495
H          0.841673     1.153378    -1.117670
H          1.897476     2.286047    -0.880775
O         -0.240420    -2.398413     1.233884
H         -0.215194    -1.544907     0.708591
H         -0.201083    -3.097122     0.599028
O         -2.770068     0.194255    -0.484586
H         -1.879200     0.202821    -0.161510
H         -3.260491    -0.522595    -0.053105
O         -0.063457    -1.551951    -2.197817
H          0.007654    -0.846794    -1.528243
H         -0.969421    -2.020789    -2.142271

units ang
no_reorient
no_com
symmetry c1
}

set {
basis        aug-cc-pVTZ
scf_type     df
}

energy("mp2")
--------------------------------------------------------------------------

    Molecular point group: c1

    Geometry (in Angstrom), charge = -1, multiplicity = 1:

       Center              X                  Y                   Z               Mass
    ------------   -----------------  -----------------  -----------------  -----------------
         F            0.000000000000     0.000000000000     0.000000000000    18.998403162730
         O           -0.533187000000     2.775168000000     0.632670000000    15.994914619570
         H            0.295886000000     3.282857000000     0.735170000000     1.007825032230
         H           -0.295187000000     1.845584000000     0.468372000000     1.007825032230
         O            1.234959000000     1.939079000000    -1.505495000000    15.994914619570
         H            0.841673000000     1.153378000000    -1.117670000000     1.007825032230
         H            1.897476000000     2.286047000000    -0.880775000000     1.007825032230
         O           -0.240420000000    -2.398413000000     1.233884000000    15.994914619570
         H           -0.215194000000    -1.544907000000     0.708591000000     1.007825032230
         H           -0.201083000000    -3.097122000000     0.599028000000     1.007825032230
         O           -2.770068000000     0.194255000000    -0.484586000000    15.994914619570
         H           -1.879200000000     0.202821000000    -0.161510000000     1.007825032230
         H           -3.260491000000    -0.522595000000    -0.053105000000     1.007825032230
         O           -0.063457000000    -1.551951000000    -2.197817000000    15.994914619570
         H            0.007654000000    -0.846794000000    -1.528243000000     1.007825032230
         H           -0.969421000000    -2.020789000000    -2.142271000000     1.007825032230

  Charge       = -1
  Multiplicity = 1
  Basis Set: AUG-CC-PVTZ
    Blend: AUG-CC-PVTZ
  Basis Set: (AUG-CC-PVTZ AUX)
    Blend: AUG-CC-PVTZ-JKFIT

    Orbital Energies [Eh]
    ---------------------

    Doubly Occupied:

       1A    -26.006350     2A    -20.403897     3A    -20.402038
       4A    -20.401431     5A    -20.400712     6A    -20.396267
       7A     -1.277160     8A     -1.190821     9A     -1.187813
      10A     -1.177682    11A     -1.177036    12A     -1.164086
      13A     -0.572261    14A     -0.569564    15A     -0.555247
      16A     -0.548934    17A     -0.543804    18A     -0.440011
      19A     -0.424726    20A     -0.422805    21A     -0.416072
      22A     -0.409140    23A     -0.366727    24A     -0.361856
      25A     -0.355916    26A     -0.352907    27A     -0.349572
      28A     -0.341207    29A     -0.338408    30A     -0.330619

  @DF-RHF Final Energy:  -479.85024069385003

   => Energetics <=

    Nuclear Repulsion Energy =            269.4058648634658084
    One-Electron Energy =               -1212.7420682479485095
    Two-Electron Energy =                 463.4859626906326753
    Total Energy =                       -479.8502406938500258
 Dipole X            :         43.8660594          -43.0012301            0.8648293
 Dipole Y            :        -16.5356971           15.8804722           -0.6552249
 Dipole Z            :         42.4992360          -41.4665722            1.0326638
 Magnitude           :                                                    1.4978798
  Basis Set: (AUG-CC-PVTZ AUX)
    Blend: AUG-CC-PVTZ-RI
	 Reference Energy          =    -479.8502406938500258 [Eh]
	 Singles Energy            =      -0.0000000000000000 [Eh]
	 Same-Spin Energy          =      -0.4340030386314561 [Eh]
	 Opposite-Spin Energy      =      -1.3177236559440029 [Eh]
	 Correlation Energy        =      -1.7517266945754590 [Eh]
	 Total Energy              =    -481.6019673884254644 [Eh]

	 ================> DF-SCS-MP2 Energies <==================
	-----------------------------------------------------------
	 SCS Same-Spin Scale       =       0.3333333333333333 [-]
	 SCS Opposite-Spin Scale   =       1.2000000000000000 [-]
	 SCS Same-Spin Energy      =      -0.1446676795438187 [Eh]
	 SCS Opposite-Spin Energy  =      -1.5812683871328035 [Eh]
	 SCS Correlation Energy    =      -1.7259360666766221 [Eh]
	 SCS Total Energy          =    -481.5761767605266641 [Eh]
	-----------------------------------------------------------

*** Psi4 exiting successfully. Buy a developer a beer!
