                               Psi4 1.8.2 release

  ==> Input File <==

--------------------------------------------------------------------------
MEMORY 60 GB

molecule dimer {
0 1
Gh(F)      0.000000     0.000000     0.000000
Gh(O)      0.544622     1.947141    -1.930994
Gh(H)     -0.303699     2.411400    -1.706903
Gh(H)      0.604706     1.172877    -1.303359
O         -2.128467     0.389057     1.730632
H         -1.379894     0.192361     1.173874
H         -1.919456     0.067224     2.612103
Gh(O)     -0.085529    -2.704846    -1.508295
Gh(H)     -0.656689    -3.406752    -1.099236
Gh(H)     -0.267173    -1.961465    -0.940136
Gh(O)      1.549814     1.756379     1.450147
Gh(H)      1.046493     1.052841     1.074196
Gh(H)      1.497360     2.437675     0.800406
Gh(O)     -2.175092    -0.185080    -1.433318
Gh(H)     -2.620425     0.653858    -1.755423
Gh(H)     -1.332482     0.046421    -1.015543

units ang
no_reorient
no_com
symmetry c1
}

set {
basis        aug-cc-pVTZ
scf_type     df
}

energy("mp2")
--------------------------------------------------------------------------

    Molecular point group: c1

    Geometry (in Angstrom), charge = 0, multiplicity = 1:

       Center              X                  Y                   Z               Mass
    ------------   -----------------  -----------------  -----------------  -----------------
      Gh(F)           0.000000000000     0.000000000000     0.000000000000    18.998403162730
      Gh(O)           0.544622000000     1.947141000000    -1.930994000000    15.994914619570
      Gh(H)          -0.303699000000     2.411400000000    -1.706903000000     1.007825032230
      Gh(H)           0.604706000000     1.172877000000    -1.303359000000     1.007825032230
         O           -2.128467000000     0.389057000000     1.730632000000    15.994914619570
         H           -1.379894000000     0.192361000000     1.173874000000     1.007825032230
         H           -1.919456000000     0.067224000000     2.612103000000     1.007825032230
      Gh(O)          -0.085529000000    -2.704846000000    -1.508295000000    15.994914619570
      Gh(H)          -0.656689000000    -3.406752000000    -1.099236000000     1.007825032230
      Gh(H)          -0.267173000000    -1.961465000000    -0.940136000000     1.007825032230
      Gh(O)           1.549814000000     1.756379000000     1.450147000000    15.994914619570
      Gh(H)           1.046493000000     1.052841000000     1.074196000000     1.007825032230
      Gh(H)           1.497360000000     2.437675000000     0.800406000000     1.007825032230
      Gh(O)          -2.175092000000    -0.185080000000    -1.433318000000    15.994914619570
      Gh(H)          -2.620425000000     0.653858000000    -1.755423000000     1.007825032230
      Gh(H)          -1.332482000000     0.046421000000    -1.015543000000     1.007825032230

  Charge       = 0
  Multiplicity = 1
  Basis Set: AUG-CC-PVTZ
    Blend: AUG-CC-PVTZ
  Basis Set: (AUG-CC-PVTZ AUX)
    Blend: AUG-CC-PVTZ-JKFIT

    Orbital Energies [Eh]
    ---------------------

    Doubly Occupied:

       1A    -20.565934     2A     -1.351548     3A     -0.722814
       4A     -0.579592     5A     -0.509537

  @DF-RHF Final Energy:   -76.06063415091714

   => Energetics <=

    Nuclear Repulsion Energy =              9.1870245496906939
    One-Electron Energy =                -123.0364650412045506
    Two-Electron Energy =                  37.7888063405967216
    Total Energy =                        -76.0606341509171386
 Dipole X            :         39.0555567          -38.4126255            0.6429312
 Dipole Y            :         -6.7201031            6.3722340           -0.3478691
 Dipole Z            :        -33.1014738           33.3178237            0.2163498
 Magnitude           :                                                    0.7623521
  Basis Set: (AUG-CC-PVTZ AUX)
    Blend: AUG-CC-PVTZ-RI
	 Reference Energy          =     -76.0606341509171386 [Eh]
	 Singles Energy            =      -0.0000000000000000 [Eh]
	 Same-Spin Energy          =      -0.0683727201674372 [Eh]
	 Opposite-Spin Energy      =      -0.2160057174670192 [Eh]
	 Correlation Energy        =      -0.2843784376344564 [Eh]
	 Total Energy              =     -76.3450125885515973 [Eh]

	 ================> DF-SCS-MP2 Energies <==================
	-----------------------------------------------------------
	 SCS Same-Spin Scale       =       0.3333333333333333 [-]
	 SCS Opposite-Spin Scale   =       1.2000000000000000 [-]
	 SCS Same-Spin Energy      =      -0.0227909067224791 [Eh]
	 SCS Opposite-Spin Energy  =      -0.2592068609604231 [Eh]
	 SCS Correlation Energy    =      -0.2819977676829021 [Eh]
	 SCS Total Energy          =     -76.3426319186000342 [Eh]
	-----------------------------------------------------------

*** Psi4 exiting successfully. Buy a developer a beer!
