                               Psi4 1.8.2 release

  ==> Input File <==

--------------------------------------------------------------------------
MEMORY 60 GB

molecule dimer {
0 1
Gh(F)      0.000000     0.000000     0.000000
Gh(O)     -1.152877     0.775210     2.799095
Gh(H)     -0.979389     1.239914     2.012069
Gh(H)     -1.986909     0.379505     2.526794
Gh(O)      0.232176     1.587663    -2.218403
Gh(H)      0.383176     1.242774    -3.150384
Gh(H)     -0.060341     0.843167    -1.615248
Gh(O)     -0.940436    -2.154740    -1.299584
Gh(H)     -0.646049    -1.333314    -0.867497
Gh(H)     -0.799171    -2.106453    -2.243974
O          2.111858     1.605694     0.351401
H          1.676845     2.494260     0.345983
H          1.413769     0.958707     0.234089
Gh(O)      2.320272    -1.659046    -0.126921
Gh(H)      1.601597    -1.085618    -0.253150
Gh(H)      2.844791    -1.412144     0.605145
Gh(O)     -1.080869     2.845321     0.665618
Gh(H)     -0.525904     3.388483     0.014643
Gh(H)     -1.193445     1.947137     0.396901

units ang
no_reorient
no_com
symmetry c1
}

set {
basis        aug-cc-pVTZ
scf_type     df
}

energy("mp2")
--------------------------------------------------------------------------

    Molecular point group: c1

    Geometry (in Angstrom), charge = 0, multiplicity = 1:

       Center              X                  Y                   Z               Mass
    ------------   -----------------  -----------------  -----------------  -----------------
      Gh(F)           0.000000000000     0.000000000000     0.000000000000    18.998403162730
      Gh(O)          -1.152877000000     0.775210000000     2.799095000000    15.994914619570
      Gh(H)          -0.979389000000     1.239914000000     2.012069000000     1.007825032230
      Gh(H)          -1.986909000000     0.379505000000     2.526794000000     1.007825032230
      Gh(O)           0.232176000000     1.587663000000    -2.218403000000    15.994914619570
      Gh(H)           0.383176000000     1.242774000000    -3.150384000000     1.007825032230
      Gh(H)          -0.060341000000     0.843167000000    -1.615248000000     1.007825032230
      Gh(O)          -0.940436000000    -2.154740000000    -1.299584000000    15.994914619570
      Gh(H)          -0.646049000000    -1.333314000000    -0.867497000000     1.007825032230
      Gh(H)          -0.799171000000    -2.106453000000    -2.243974000000     1.007825032230
         O            2.111858000000     1.605694000000     0.351401000000    15.994914619570
         H            1.676845000000     2.494260000000     0.345983000000     1.007825032230
         H            1.413769000000     0.958707000000     0.234089000000     1.007825032230
      Gh(O)           2.320272000000    -1.659046000000    -0.126921000000    15.994914619570
      Gh(H)           1.601597000000    -1.085618000000    -0.253150000000     1.007825032230
      Gh(H)           2.844791000000    -1.412144000000     0.605145000000     1.007825032230
      Gh(O)          -1.080869000000     2.845321000000     0.665618000000    15.994914619570
      Gh(H)          -0.525904000000     3.388483000000     0.014643000000     1.007825032230
      Gh(H)          -1.193445000000     1.947137000000     0.396901000000     1.007825032230

  Charge       = 0
  Multiplicity = 1
  Basis Set: AUG-CC-PVTZ
    Blend: AUG-CC-PVTZ
  Basis Set: (AUG-CC-PVTZ AUX)
    Blend: AUG-CC-PVTZ-JKFIT

    Orbital Energies [Eh]
    ---------------------

    Doubly Occupied:

       1A    -20.569054     2A     -1.343711     3A     -0.712438
       4A     -0.577555     5A     -0.508328

  @DF-RHF Final Energy:   -76.05863914603307

   => Energetics <=

    Nuclear Repulsion Energy =              9.0321849127685550
    One-Electron Energy =                -122.7594732198064094
    Two-Electron Energy =                  37.6686491610047796
    Total Energy =                        -76.0586391460330731
 Dipole X            :        -38.5184506           37.7670799           -0.7513707
 Dipole Y            :        -30.6448605           30.7997372            0.1548766
 Dipole Z            :         -6.4902051            6.4085904           -0.0816146
 Magnitude           :                                                    0.7714957
  Basis Set: (AUG-CC-PVTZ AUX)
    Blend: AUG-CC-PVTZ-RI
	 Reference Energy          =     -76.0586391460330731 [Eh]
	 Singles Energy            =      -0.0000000000000000 [Eh]
	 Same-Spin Energy          =      -0.0686938673973637 [Eh]
	 Opposite-Spin Energy      =      -0.2173286235244239 [Eh]
	 Correlation Energy        =      -0.2860224909217877 [Eh]
	 Total Energy              =     -76.3446616369548678 [Eh]

	 ================> DF-SCS-MP2 Energies <==================
	-----------------------------------------------------------
	 SCS Same-Spin Scale       =       0.3333333333333333 [-]
	 SCS Opposite-Spin Scale   =       1.2000000000000000 [-]
	 SCS Same-Spin Energy      =      -0.0228979557991212 [Eh]
	 SCS Opposite-Spin Energy  =      -0.2607943482293087 [Eh]
	 SCS Correlation Energy    =      -0.2836923040284300 [Eh]
	 SCS Total Energy          =     -76.3423314500615078 [Eh]
	-----------------------------------------------------------

*** Psi4 exiting successfully. Buy a developer a beer!
