                               Psi4 1.8.2 release

  ==> Input File <==

--------------------------------------------------------------------------
MEMORY 60 GB

molecule dimer {
-1 1
F          0.000000     0.000000     0.000000
O         -1.599124     1.023579    -2.267830
H         -1.095004     0.566212    -1.620752
H         -2.338051     0.444325    -2.479137
O         -2.343446    -0.430618     1.559407
H         -1.488327    -0.319284     1.147914
H         -2.658215     0.396947     1.860568
O         -1.204583    -2.106759    -1.342688
H         -2.121289    -2.045476    -1.127318
H         -0.755091    -1.622357    -0.621682
O          1.437032    -1.588073     1.754632
H          0.692906    -2.061247     2.155763
H          1.089729    -0.888662     1.135098
O          2.067070    -0.264464    -2.019076
H          1.308735    -0.187229    -1.415516
H          2.146809     0.663476    -2.287155

units ang
no_reorient
no_com
symmetry c1
}

set {
basis        aug-cc-pVTZ
scf_type     df
}

energy("mp2")
--------------------------------------------------------------------------

    Molecular point group: c1

    Geometry (in Angstrom), charge = -1, multiplicity = 1:

       Center              X                  Y                   Z               Mass
    ------------   -----------------  -----------------  -----------------  -----------------
         F            0.000000000000     0.000000000000     0.000000000000    18.998403162730
         O           -1.599124000000     1.023579000000    -2.267830000000    15.994914619570
         H           -1.095004000000     0.566212000000    -1.620752000000     1.007825032230
         H           -2.338051000000     0.444325000000    -2.479137000000     1.007825032230
         O           -2.343446000000    -0.430618000000     1.559407000000    15.994914619570
         H           -1.488327000000    -0.319284000000     1.147914000000     1.007825032230
         H           -2.658215000000     0.396947000000     1.860568000000     1.007825032230
         O           -1.204583000000    -2.106759000000    -1.342688000000    15.994914619570
         H           -2.121289000000    -2.045476000000    -1.127318000000     1.007825032230
         H           -0.755091000000    -1.622357000000    -0.621682000000     1.007825032230
         O            1.437032000000    -1.588073000000     1.754632000000    15.994914619570
         H            0.692906000000    -2.061247000000     2.155763000000     1.007825032230
         H            1.089729000000    -0.888662000000     1.135098000000     1.007825032230
         O            2.067070000000    -0.264464000000    -2.019076000000    15.994914619570
         H            1.308735000000    -0.187229000000    -1.415516000000     1.007825032230
         H            2.146809000000     0.663476000000    -2.287155000000     1.007825032230

  Charge       = -1
  Multiplicity = 1
  Basis Set: AUG-CC-PVTZ
    Blend: AUG-CC-PVTZ
  Basis Set: (AUG-CC-PVTZ AUX)
    Blend: AUG-CC-PVTZ-JKFIT

    Orbital Energies [Eh]
    ---------------------

    Doubly Occupied:

       1A    -25.990795     2A    -20.416478     3A    -20.406423
       4A    -20.403966     5A    -20.399948     6A    -20.394803
       7A     -1.255878     8A     -1.212708     9A     -1.199185
      10A     -1.192289    11A     -1.181581    12A     -1.167936
      13A     -0.594285    14A     -0.569694    15A     -0.558456
      16A     -0.547042    17A     -0.533962    18A     -0.442476
      19A     -0.437296    20A     -0.431632    21A     -0.429194
      22A     -0.414214    23A     -0.369082    24A     -0.360498
      25A     -0.353084    26A     -0.348585    27A     -0.345051
      28A     -0.342220    29A     -0.337132    30A     -0.334413

  @DF-RHF Final Energy:  -479.86281875659631

   => Energetics <=

    Nuclear Repulsion Energy =            264.9960030529820187
    One-Electron Energy =               -1203.7770271966237488
    Two-Electron Energy =                 458.9182053870454183
    Total Energy =                       -479.8628187565963117
 Dipole X            :         33.6327981          -34.6995404           -1.0667423
 Dipole Y            :         61.9362025          -60.4409532            1.4952494
 Dipole Z            :         42.1923582          -41.1519177            1.0404405
 Magnitude           :                                                    2.1109776
  Basis Set: (AUG-CC-PVTZ AUX)
    Blend: AUG-CC-PVTZ-RI
	 Reference Energy          =    -479.8628187565963117 [Eh]
	 Singles Energy            =      -0.0000000000000000 [Eh]
	 Same-Spin Energy          =      -0.4315478846056171 [Eh]
	 Opposite-Spin Energy      =      -1.3130144665595846 [Eh]
	 Correlation Energy        =      -1.7445623511652018 [Eh]
	 Total Energy              =    -481.6073811077615119 [Eh]

	 ================> DF-SCS-MP2 Energies <==================
	-----------------------------------------------------------
	 SCS Same-Spin Scale       =       0.3333333333333333 [-]
	 SCS Opposite-Spin Scale   =       1.2000000000000000 [-]
	 SCS Same-Spin Energy      =      -0.1438492948685390 [Eh]
	 SCS Opposite-Spin Energy  =      -1.5756173598715015 [Eh]
	 SCS Correlation Energy    =      -1.7194666547400406 [Eh]
	 SCS Total Energy          =    -481.5822854113363292 [Eh]
	-----------------------------------------------------------

*** Psi4 exiting successfully. Buy a developer a beer!
