                               Psi4 1.9 release

  ==> Input File <==

--------------------------------------------------------------------------
MEMORY 60 GB

molecule dimer {
-1 1
F      0.000000     0.000000     0.000000
--
0 1
O     -0.207769    -2.327129     1.239569
H      0.037713    -3.149829     0.838322
H     -0.081193    -1.636015     0.550989
O     -2.599898    -0.694839    -0.679029
H     -2.709680    -0.858637    -1.571457
H     -1.656530    -0.607954    -0.409434
O      1.812665     1.083834     2.219277
H      1.153673     0.568273     1.755293
H      1.370089     1.213940     3.097476
O      2.512982    -1.496631    -0.619434
H      1.794318    -0.888816    -0.358592
H      2.943913    -1.115172    -1.446926
O     -0.703861     1.904262    -1.805602
H     -1.312640     2.645681    -1.719120
H     -0.646566     1.565853    -0.948304

units ang
no_reorient
no_com
symmetry c1
}

set {
basis        aug-cc-pVTZ
scf_type     df
}

energy("mp2", bsse_type="cp")
--------------------------------------------------------------------------

                               Psi4 1.9 release
    Molecular point group: c1
  Charge       = 0
  Multiplicity = 1
  Basis Set: AUG-CC-PVTZ
    Blend: AUG-CC-PVTZ
  Basis Set: (AUG-CC-PVTZ AUX)
    Blend: AUG-CC-PVTZ-JKFIT
  @DF-RHF Final Energy:  -380.27912574241543
    Total Energy =                       -380.2791257424154310
 Dipole X            :        -14.4339402           13.9954043           -0.4385360
 Dipole Y            :         27.8436799          -27.4136900            0.4299899
 Dipole Z            :         -5.5685706            4.9633562           -0.6052144
 Magnitude           :                                                    0.8622584
  Basis Set: (AUG-CC-PVTZ AUX)
    Blend: AUG-CC-PVTZ-RI
	 Reference Energy          =    -380.2791257424154310 [Eh]
	 Singles Energy            =      -0.0000000000000000 [Eh]
	 Same-Spin Energy          =      -0.3443838596272415 [Eh]
	 Opposite-Spin Energy      =      -1.0834991723617695 [Eh]
	 Correlation Energy        =      -1.4278830319890110 [Eh]
	 Total Energy              =    -381.7070087744044145 [Eh]
	 SCS Total Energy          =    -381.6941193691253034 [Eh]
                               Psi4 1.9 release
    Molecular point group: c1
  Multiplicity = 1
  Basis Set: AUG-CC-PVTZ
    Blend: AUG-CC-PVTZ
  Basis Set: (AUG-CC-PVTZ AUX)
    Blend: AUG-CC-PVTZ-JKFIT
  @DF-RHF Final Energy:   -99.45109975791469
    Total Energy =                        -99.4510997579146903
  Basis Set: (AUG-CC-PVTZ AUX)
	 Singles Energy            =      -0.0000000000000000 [Eh]
	 Same-Spin Energy          =      -0.0820137022291099 [Eh]
	 Opposite-Spin Energy      =      -0.2298017986985038 [Eh]
	 Correlation Energy        =      -0.3118155009276136 [Eh]
	 Total Energy              =     -99.7629152588422983 [Eh]
	 SCS Total Energy          =     -99.7541998170959374 [Eh]
                               Psi4 1.9 release
    Molecular point group: c1

    Geometry (in Bohr), charge = -1, multiplicity = 1:

       Center              X                  Y                   Z               Mass
    ------------   -----------------  -----------------  -----------------  -----------------
         F            0.000000000000     0.000000000000     0.000000000000    18.998403162730
         O           -0.392626507360    -4.397636468611     2.342445923608    15.994914619570
         H            0.071267241369    -5.952314152025     1.584198984946     1.007825032230
         H           -0.153432533304    -3.091620287141     1.041218308140     1.007825032230
         O           -4.913095174126    -1.313055411287    -1.283178841244    15.994914619570
         H           -5.120553087631    -1.622588771185    -2.969623347934     1.007825032230
         H           -3.130388018605    -1.148866556877    -0.773718126451     1.007825032230
         O            3.425440407203     2.048149425459     4.193825726528    15.994914619570
         H            2.180126008335     1.073880334492     3.317023039933     1.007825032230
         H            2.589092977502     2.294014132738     5.853381320179     1.007825032230
         O            4.748847738205    -2.828222700870    -1.170560612797    15.994914619570
         H            3.390769601979    -1.679618815925    -0.677640670780     1.007825032230
         H            5.563189307175    -2.107369662779    -2.734293863804     1.007825032230
         O           -1.330104520391     3.598533651117    -3.412093271579    15.994914619570
         H           -2.480530101321     4.999612505327    -3.248665976797     1.007825032230
         H           -1.221832662033     2.959033322727    -1.792034843676     1.007825032230

  Charge       = -1
  Multiplicity = 1
  Basis Set: AUG-CC-PVTZ
    Blend: AUG-CC-PVTZ
  Basis Set: (AUG-CC-PVTZ AUX)
    Blend: AUG-CC-PVTZ-JKFIT

    Orbital Energies [Eh]
    ---------------------

    Doubly Occupied:

       1A    -25.975467     2A    -20.416937     3A    -20.412693
       4A    -20.401644     5A    -20.382549     6A    -20.381491
       7A     -1.241740     8A     -1.199030     9A     -1.193845
      10A     -1.177871    11A     -1.176830    12A     -1.167917
      13A     -0.568427    14A     -0.565142    15A     -0.552460
      16A     -0.547729    17A     -0.539303    18A     -0.438559
      19A     -0.431651    20A     -0.421330    21A     -0.410392
      22A     -0.402604    23A     -0.358558    24A     -0.354743
      25A     -0.351829    26A     -0.336777    27A     -0.335175
      28A     -0.332721    29A     -0.327983    30A     -0.321135

  @DF-RHF Final Energy:  -479.84415437222327

   => Energetics <=

    Nuclear Repulsion Energy =            259.0874962749903716
    One-Electron Energy =               -1192.4142231783503121
    Two-Electron Energy =                 453.4825725311366682
    Total Energy =                       -479.8441543722232723
 Dipole X            :        -14.3632650           13.9954043           -0.3678607
 Dipole Y            :         28.2101162          -27.4136900            0.7964263
 Dipole Z            :         -5.5753554            4.9633562           -0.6119992
 Magnitude           :                                                    1.0696538
  Basis Set: (AUG-CC-PVTZ AUX)
    Blend: AUG-CC-PVTZ-RI
	 Reference Energy          =    -479.8441543722232723 [Eh]
	 Singles Energy            =      -0.0000000000000000 [Eh]
	 Same-Spin Energy          =      -0.4317122432618248 [Eh]
	 Opposite-Spin Energy      =      -1.3137058859885604 [Eh]
	 Correlation Energy        =      -1.7454181292503852 [Eh]
	 Total Energy              =    -481.5895725014736399 [Eh]

	 ================> DF-SCS-MP2 Energies <==================
	-----------------------------------------------------------
	 SCS Same-Spin Scale       =       0.3333333333333333 [-]
	 SCS Opposite-Spin Scale   =       1.2000000000000000 [-]
	 SCS Same-Spin Energy      =      -0.1439040810872749 [Eh]
	 SCS Opposite-Spin Energy  =      -1.5764470631862724 [Eh]
	 SCS Correlation Energy    =      -1.7203511442735473 [Eh]
	 SCS Total Energy          =    -481.5645055164968085 [Eh]
	-----------------------------------------------------------

*** Psi4 exiting successfully. Buy a developer a beer!
