                               Psi4 1.9 release

  ==> Input File <==

--------------------------------------------------------------------------
MEMORY 60 GB

molecule dimer {
-1 1
F      0.000000     0.000000     0.000000
--
0 1
O     -1.254088    -1.142537    -2.417176
H     -0.631148    -1.581451    -3.028934
H     -0.778164    -0.740928    -1.674863
O     -0.057219     2.426383    -1.313720
H     -0.057407     1.609916    -0.812182
H     -0.845317     2.970306    -1.027585
O      2.516034     0.501269    -0.681349
H      2.742378    -0.372026    -0.952918
H      1.589097     0.394194    -0.467607
O     -1.246877     0.634837     2.442815
H     -0.668058    -0.102871     2.736022
H     -0.910013     0.825774     1.599682
O     -0.108124    -2.872909    -0.185625
H     -0.484207    -3.076891     0.701130
H     -0.163962    -1.865782    -0.238802

units ang
no_reorient
no_com
symmetry c1
}

set {
basis        aug-cc-pVTZ
scf_type     df
}

energy("mp2", bsse_type="cp")
--------------------------------------------------------------------------

                               Psi4 1.9 release
    Molecular point group: c1
  Charge       = 0
  Multiplicity = 1
  Basis Set: AUG-CC-PVTZ
    Blend: AUG-CC-PVTZ
  Basis Set: (AUG-CC-PVTZ AUX)
    Blend: AUG-CC-PVTZ-JKFIT
  @DF-RHF Final Energy:  -380.26739488476892
    Total Energy =                       -380.2673948847689189
 Dipole X            :          2.7319881           -2.6626109            0.0693772
 Dipole Y            :          9.8113731          -10.5133307           -0.7019575
 Dipole Z            :         39.1916990          -38.5626905            0.6290085
 Magnitude           :                                                    0.9450975
  Basis Set: (AUG-CC-PVTZ AUX)
    Blend: AUG-CC-PVTZ-RI
	 Reference Energy          =    -380.2673948847689189 [Eh]
	 Singles Energy            =      -0.0000000000000000 [Eh]
	 Same-Spin Energy          =      -0.3456809321686933 [Eh]
	 Opposite-Spin Energy      =      -1.0876107153436487 [Eh]
	 Correlation Energy        =      -1.4332916475123421 [Eh]
	 Total Energy              =    -381.7006865322812814 [Eh]
	 SCS Total Energy          =    -381.6877547205708652 [Eh]
                               Psi4 1.9 release
    Molecular point group: c1
  Multiplicity = 1
  Basis Set: AUG-CC-PVTZ
    Blend: AUG-CC-PVTZ
  Basis Set: (AUG-CC-PVTZ AUX)
    Blend: AUG-CC-PVTZ-JKFIT
  @DF-RHF Final Energy:   -99.45111652583779
    Total Energy =                        -99.4511165258377758
  Basis Set: (AUG-CC-PVTZ AUX)
	 Singles Energy            =      -0.0000000000000000 [Eh]
	 Same-Spin Energy          =      -0.0820540477454116 [Eh]
	 Opposite-Spin Energy      =      -0.2300896267037072 [Eh]
	 Correlation Energy        =      -0.3121436744491188 [Eh]
	 Total Energy              =     -99.7632602002869078 [Eh]
	 SCS Total Energy          =     -99.7545754271307032 [Eh]
                               Psi4 1.9 release
    Molecular point group: c1

    Geometry (in Bohr), charge = -1, multiplicity = 1:

       Center              X                  Y                   Z               Mass
    ------------   -----------------  -----------------  -----------------  -----------------
         F            0.000000000000     0.000000000000     0.000000000000    18.998403162730
         O           -2.369882857223    -2.159082018202    -4.567800637030    15.994914619570
         H           -1.192696864630    -2.988509270831    -5.723855712087     1.007825032230
         H           -1.470516840691    -1.400150998683    -3.165032367663     1.007825032230
         O           -0.108128239173     4.585199345467    -2.482571005536    15.994914619570
         H           -0.108483507684     3.042300324993    -1.534801544027     1.007825032230
         H           -1.597417619194     5.613064848804    -1.941854220629     1.007825032230
         O            4.754615182340     0.947261125182    -1.287563005855    15.994914619570
         H            5.182343352481    -0.703027251550    -1.800754040019     1.007825032230
         H            3.002958116787     0.744918700299    -0.883649164347     1.007825032230
         O           -2.356256042132     1.199668064307     4.616251325160    15.994914619570
         H           -1.262446655921    -0.194398016252     5.170332253227     1.007825032230
         H           -1.719675340606     1.560486701524     3.022960867825     1.007825032230
         O           -0.204324747589    -5.429011193363    -0.350780412038    15.994914619570
         H           -0.915018618030    -5.814481307886     1.324943678342     1.007825032230
         H           -0.309843274982    -3.525816989809    -0.451270378212     1.007825032230

  Charge       = -1
  Multiplicity = 1
  Basis Set: AUG-CC-PVTZ
    Blend: AUG-CC-PVTZ
  Basis Set: (AUG-CC-PVTZ AUX)
    Blend: AUG-CC-PVTZ-JKFIT

    Orbital Energies [Eh]
    ---------------------

    Doubly Occupied:

       1A    -26.000199     2A    -20.414204     3A    -20.413693
       4A    -20.407124     5A    -20.400071     6A    -20.385089
       7A     -1.268476     8A     -1.204512     9A     -1.186180
      10A     -1.182694    11A     -1.178180    12A     -1.174705
      13A     -0.570017    14A     -0.565389    15A     -0.559839
      16A     -0.541572    17A     -0.539238    18A     -0.447861
      19A     -0.434788    20A     -0.429664    21A     -0.419027
      22A     -0.415495    23A     -0.364454    24A     -0.362494
      25A     -0.360190    26A     -0.352904    27A     -0.346961
      28A     -0.342862    29A     -0.339597    30A     -0.333732

  @DF-RHF Final Energy:  -479.85224600993354

   => Energetics <=

    Nuclear Repulsion Energy =            262.6543571911199138
    One-Electron Energy =               -1199.1307731313654585
    Two-Electron Energy =                 456.6241699303119503
    Total Energy =                       -479.8522460099335376
 Dipole X            :          2.6091209           -2.6626109           -0.0534900
 Dipole Y            :          9.8766963          -10.5133307           -0.6366344
 Dipole Z            :         39.5263775          -38.5626905            0.9636870
 Magnitude           :                                                    1.1562254
  Basis Set: (AUG-CC-PVTZ AUX)
    Blend: AUG-CC-PVTZ-RI
	 Reference Energy          =    -479.8522460099335376 [Eh]
	 Singles Energy            =      -0.0000000000000000 [Eh]
	 Same-Spin Energy          =      -0.4325589569966183 [Eh]
	 Opposite-Spin Energy      =      -1.3160182741080935 [Eh]
	 Correlation Energy        =      -1.7485772311047119 [Eh]
	 Total Energy              =    -481.6008232410382561 [Eh]

	 ================> DF-SCS-MP2 Energies <==================
	-----------------------------------------------------------
	 SCS Same-Spin Scale       =       0.3333333333333333 [-]
	 SCS Opposite-Spin Scale   =       1.2000000000000000 [-]
	 SCS Same-Spin Energy      =      -0.1441863189988727 [Eh]
	 SCS Opposite-Spin Energy  =      -1.5792219289297120 [Eh]
	 SCS Correlation Energy    =      -1.7234082479285848 [Eh]
	 SCS Total Energy          =    -481.5756542578621406 [Eh]
	-----------------------------------------------------------

*** Psi4 exiting successfully. Buy a developer a beer!
