                               Psi4 1.8.2 release

  ==> Input File <==

--------------------------------------------------------------------------
MEMORY 60 GB

molecule dimer {
-1 1
F          0.000000     0.000000     0.000000
O          1.793472    -2.266511    -0.092888
H          1.763845    -2.397327     0.845606
H          0.978558    -1.723771    -0.253568
O          0.660188     0.993220     2.493564
H         -0.122404     1.069889     3.027976
H          0.503953     0.186710     1.959817
O         -0.690392    -1.471906    -2.361938
H         -0.556917    -1.124097    -1.508427
H         -0.721481    -2.433572    -2.323726
O          1.530549     1.044253    -2.077763
H          1.110398     1.449909    -2.804950
H          0.839571     0.812979    -1.396290
O         -2.357393     1.196648    -0.494342
H         -2.542465     1.666648     0.313393
H         -1.569354     0.722806    -0.305017

units ang
no_reorient
no_com
symmetry c1
}

set {
basis        aug-cc-pVTZ
scf_type     df
}

energy("mp2")
--------------------------------------------------------------------------

    Molecular point group: c1

    Geometry (in Angstrom), charge = -1, multiplicity = 1:

       Center              X                  Y                   Z               Mass
    ------------   -----------------  -----------------  -----------------  -----------------
         F            0.000000000000     0.000000000000     0.000000000000    18.998403162730
         O            1.793472000000    -2.266511000000    -0.092888000000    15.994914619570
         H            1.763845000000    -2.397327000000     0.845606000000     1.007825032230
         H            0.978558000000    -1.723771000000    -0.253568000000     1.007825032230
         O            0.660188000000     0.993220000000     2.493564000000    15.994914619570
         H           -0.122404000000     1.069889000000     3.027976000000     1.007825032230
         H            0.503953000000     0.186710000000     1.959817000000     1.007825032230
         O           -0.690392000000    -1.471906000000    -2.361938000000    15.994914619570
         H           -0.556917000000    -1.124097000000    -1.508427000000     1.007825032230
         H           -0.721481000000    -2.433572000000    -2.323726000000     1.007825032230
         O            1.530549000000     1.044253000000    -2.077763000000    15.994914619570
         H            1.110398000000     1.449909000000    -2.804950000000     1.007825032230
         H            0.839571000000     0.812979000000    -1.396290000000     1.007825032230
         O           -2.357393000000     1.196648000000    -0.494342000000    15.994914619570
         H           -2.542465000000     1.666648000000     0.313393000000     1.007825032230
         H           -1.569354000000     0.722806000000    -0.305017000000     1.007825032230

  Charge       = -1
  Multiplicity = 1
  Basis Set: AUG-CC-PVTZ
    Blend: AUG-CC-PVTZ
  Basis Set: (AUG-CC-PVTZ AUX)
    Blend: AUG-CC-PVTZ-JKFIT

    Orbital Energies [Eh]
    ---------------------

    Doubly Occupied:

       1A    -25.980510     2A    -20.416062     3A    -20.408552
       4A    -20.401162     5A    -20.391377     6A    -20.375420
       7A     -1.247486     8A     -1.199295     9A     -1.195799
      10A     -1.190472    11A     -1.188519    12A     -1.160939
      13A     -0.578873    14A     -0.563073    15A     -0.558512
      16A     -0.548472    17A     -0.538212    18A     -0.438329
      19A     -0.436987    20A     -0.426997    21A     -0.420476
      22A     -0.397579    23A     -0.365787    24A     -0.354547
      25A     -0.352703    26A     -0.346167    27A     -0.334516
      28A     -0.332054    29A     -0.330821    30A     -0.320058

  @DF-RHF Final Energy:  -479.84748589298277

   => Energetics <=

    Nuclear Repulsion Energy =            263.3003914802449685
    One-Electron Energy =               -1200.6962347011040038
    Two-Electron Energy =                 457.5483573278762037
    Total Energy =                       -479.8474858929827747
 Dipole X            :        -14.9258441           13.5589664           -1.3668777
 Dipole Y            :         10.4990498          -10.9683370           -0.4692872
 Dipole Z            :         44.8689942          -42.9196903            1.9493039
 Magnitude           :                                                    2.4265965
  Basis Set: (AUG-CC-PVTZ AUX)
    Blend: AUG-CC-PVTZ-RI
	 Reference Energy          =    -479.8474858929827747 [Eh]
	 Singles Energy            =      -0.0000000000000000 [Eh]
	 Same-Spin Energy          =      -0.4314623116123826 [Eh]
	 Opposite-Spin Energy      =      -1.3125772640527387 [Eh]
	 Correlation Energy        =      -1.7440395756651212 [Eh]
	 Total Energy              =    -481.5915254686478875 [Eh]

	 ================> DF-SCS-MP2 Energies <==================
	-----------------------------------------------------------
	 SCS Same-Spin Scale       =       0.3333333333333333 [-]
	 SCS Opposite-Spin Scale   =       1.2000000000000000 [-]
	 SCS Same-Spin Energy      =      -0.1438207705374609 [Eh]
	 SCS Opposite-Spin Energy  =      -1.5750927168632864 [Eh]
	 SCS Correlation Energy    =      -1.7189134874007472 [Eh]
	 SCS Total Energy          =    -481.5663993803835297 [Eh]
	-----------------------------------------------------------

*** Psi4 exiting successfully. Buy a developer a beer!
