                               Psi4 1.8.2 release

  ==> Input File <==

--------------------------------------------------------------------------
MEMORY 60 GB

molecule dimer {
-1 1
F          0.000000     0.000000     0.000000
O          1.817114     1.946444    -0.723175
H          1.018768     1.381289    -1.036039
H          2.133974     1.611845     0.184788
O         -1.618648     2.227966     0.983095
H         -1.190650     1.430225     0.637791
H         -1.783720     2.118152     1.906642
O         -0.955691     1.698319    -2.105695
H         -0.402285     1.876495    -2.895468
H         -1.255684     0.819664    -2.003767
O          1.688096    -0.251298     2.069765
H          2.518079     0.189713     1.984541
H          1.298638    -0.141263     1.240993
O          1.074017    -0.791253    -2.569566
H          1.889382    -0.271590    -2.714166
H          0.775089    -0.600320    -1.647716
O         -1.131261    -2.325104     0.575167
H         -0.809361    -1.464786     0.417327
H         -2.086261    -2.127325     0.545425

units ang
no_reorient
no_com
symmetry c1
}

set {
basis        aug-cc-pVTZ
scf_type     df
}

energy("mp2")
--------------------------------------------------------------------------

    Molecular point group: c1

    Geometry (in Angstrom), charge = -1, multiplicity = 1:

       Center              X                  Y                   Z               Mass
    ------------   -----------------  -----------------  -----------------  -----------------
         F            0.000000000000     0.000000000000     0.000000000000    18.998403162730
         O            1.817114000000     1.946444000000    -0.723175000000    15.994914619570
         H            1.018768000000     1.381289000000    -1.036039000000     1.007825032230
         H            2.133974000000     1.611845000000     0.184788000000     1.007825032230
         O           -1.618648000000     2.227966000000     0.983095000000    15.994914619570
         H           -1.190650000000     1.430225000000     0.637791000000     1.007825032230
         H           -1.783720000000     2.118152000000     1.906642000000     1.007825032230
         O           -0.955691000000     1.698319000000    -2.105695000000    15.994914619570
         H           -0.402285000000     1.876495000000    -2.895468000000     1.007825032230
         H           -1.255684000000     0.819664000000    -2.003767000000     1.007825032230
         O            1.688096000000    -0.251298000000     2.069765000000    15.994914619570
         H            2.518079000000     0.189713000000     1.984541000000     1.007825032230
         H            1.298638000000    -0.141263000000     1.240993000000     1.007825032230
         O            1.074017000000    -0.791253000000    -2.569566000000    15.994914619570
         H            1.889382000000    -0.271590000000    -2.714166000000     1.007825032230
         H            0.775089000000    -0.600320000000    -1.647716000000     1.007825032230
         O           -1.131261000000    -2.325104000000     0.575167000000    15.994914619570
         H           -0.809361000000    -1.464786000000     0.417327000000     1.007825032230
         H           -2.086261000000    -2.127325000000     0.545425000000     1.007825032230

  Charge       = -1
  Multiplicity = 1
  Basis Set: AUG-CC-PVTZ
    Blend: AUG-CC-PVTZ
  Basis Set: (AUG-CC-PVTZ AUX)
    Blend: AUG-CC-PVTZ-JKFIT

    Orbital Energies [Eh]
    ---------------------

    Doubly Occupied:

       1A    -25.991384     2A    -20.421732     3A    -20.417710
       4A    -20.409909     5A    -20.405713     6A    -20.397944
       7A    -20.394091     8A     -1.262720     9A     -1.212290
      10A     -1.208846    11A     -1.191219    12A     -1.188487
      13A     -1.185846    14A     -1.158520    15A     -0.601756
      16A     -0.578519    17A     -0.565670    18A     -0.560998
      19A     -0.544790    20A     -0.535682    21A     -0.448696
      22A     -0.437301    23A     -0.434774    24A     -0.426807
      25A     -0.416573    26A     -0.411670    27A     -0.377843
      28A     -0.363025    29A     -0.357609    30A     -0.352037
      31A     -0.347057    32A     -0.346508    33A     -0.340908
      34A     -0.339872    35A     -0.337088

  @DF-RHF Final Energy:  -555.89978650137732

   => Energetics <=

    Nuclear Repulsion Energy =            360.8440481700289979
    One-Electron Energy =               -1501.5444688987342943
    Two-Electron Energy =                 584.8006342273279188
    Total Energy =                       -555.8997865013773207
 Dipole X            :        -17.1565157           17.1870308            0.0305150
 Dipole Y            :        -47.1782373           46.9836767           -0.1945606
 Dipole Z            :         33.2219135          -33.1513161            0.0705974
 Magnitude           :                                                    0.2092104
  Basis Set: (AUG-CC-PVTZ AUX)
    Blend: AUG-CC-PVTZ-RI
	 Reference Energy          =    -555.8997865013773207 [Eh]
	 Singles Energy            =      -0.0000000000000000 [Eh]
	 Same-Spin Energy          =      -0.5037979132364634 [Eh]
	 Opposite-Spin Energy      =      -1.5351558028242054 [Eh]
	 Correlation Energy        =      -2.0389537160606688 [Eh]
	 Total Energy              =    -557.9387402174379531 [Eh]

	 ================> DF-SCS-MP2 Energies <==================
	-----------------------------------------------------------
	 SCS Same-Spin Scale       =       0.3333333333333333 [-]
	 SCS Opposite-Spin Scale   =       1.2000000000000000 [-]
	 SCS Same-Spin Energy      =      -0.1679326377454878 [Eh]
	 SCS Opposite-Spin Energy  =      -1.8421869633890464 [Eh]
	 SCS Correlation Energy    =      -2.0101196011345341 [Eh]
	 SCS Total Energy          =    -557.9099061025118544 [Eh]
	-----------------------------------------------------------

*** Psi4 exiting successfully. Buy a developer a beer!
