                               Psi4 1.9 release

  ==> Input File <==

--------------------------------------------------------------------------
MEMORY 60 GB

molecule dimer {
-1 1
F      0.000000     0.000000     0.000000
--
0 1
O     -1.152877     0.775210     2.799095
H     -0.979389     1.239914     2.012069
H     -1.986909     0.379505     2.526794
O      0.232176     1.587663    -2.218403
H      0.383176     1.242774    -3.150384
H     -0.060341     0.843167    -1.615248
O     -0.940436    -2.154740    -1.299584
H     -0.646049    -1.333314    -0.867497
H     -0.799171    -2.106453    -2.243974
O      2.111858     1.605694     0.351401
H      1.676845     2.494260     0.345983
H      1.413769     0.958707     0.234089
O      2.320272    -1.659046    -0.126921
H      1.601597    -1.085618    -0.253150
H      2.844791    -1.412144     0.605145
O     -1.080869     2.845321     0.665618
H     -0.525904     3.388483     0.014643
H     -1.193445     1.947137     0.396901

units ang
no_reorient
no_com
symmetry c1
}

set {
basis        aug-cc-pVTZ
scf_type     df
}

energy("mp2", bsse_type="cp")
--------------------------------------------------------------------------

                               Psi4 1.9 release
    Molecular point group: c1
  Charge       = 0
  Multiplicity = 1
  Basis Set: AUG-CC-PVTZ
    Blend: AUG-CC-PVTZ
  Basis Set: (AUG-CC-PVTZ AUX)
    Blend: AUG-CC-PVTZ-JKFIT
  @DF-RHF Final Energy:  -456.31999884413494
    Total Energy =                       -456.3199988441349433
 Dipole X            :        -26.4998113           25.7946898           -0.7051215
 Dipole Y            :        -57.2150699           57.7448034            0.5297335
 Dipole Z            :         -0.4721977           -1.1810429           -1.6532406
 Magnitude           :                                                    1.8737712
  Basis Set: (AUG-CC-PVTZ AUX)
    Blend: AUG-CC-PVTZ-RI
	 Reference Energy          =    -456.3199988441349433 [Eh]
	 Singles Energy            =      -0.0000000000000000 [Eh]
	 Same-Spin Energy          =      -0.4158826385682372 [Eh]
	 Opposite-Spin Energy      =      -1.3046143114591062 [Eh]
	 Correlation Energy        =      -1.7204969500273433 [Eh]
	 Total Energy              =    -458.0404957941622683 [Eh]
	 SCS Total Energy          =    -458.0241635640753088 [Eh]
                               Psi4 1.9 release
    Molecular point group: c1
  Multiplicity = 1
  Basis Set: AUG-CC-PVTZ
    Blend: AUG-CC-PVTZ
  Basis Set: (AUG-CC-PVTZ AUX)
    Blend: AUG-CC-PVTZ-JKFIT
  @DF-RHF Final Energy:   -99.45113648950293
    Total Energy =                        -99.4511364895029288
  Basis Set: (AUG-CC-PVTZ AUX)
	 Singles Energy            =      -0.0000000000000000 [Eh]
	 Same-Spin Energy          =      -0.0820622950632959 [Eh]
	 Opposite-Spin Energy      =      -0.2302623263555947 [Eh]
	 Correlation Energy        =      -0.3123246214188906 [Eh]
	 Total Energy              =     -99.7634611109218241 [Eh]
	 SCS Total Energy          =     -99.7548053794840683 [Eh]
                               Psi4 1.9 release
    Molecular point group: c1

    Geometry (in Bohr), charge = -1, multiplicity = 1:

       Center              X                  Y                   Z               Mass
    ------------   -----------------  -----------------  -----------------  -----------------
         F            0.000000000000     0.000000000000     0.000000000000    18.998403162730
         O           -2.178621786339     1.464934589716     5.289522949138    15.994914619570
         H           -1.850776980286     2.343097879121     3.802259355524     1.007825032230
         H           -3.754713846207     0.717160513242     4.774948635450     1.007825032230
         O            0.438749052904     3.000248249523    -4.192174105894    15.994914619570
         H            0.724097697848     2.348502495840    -5.953362950024     1.007825032230
         H           -0.114027964136     1.593354708024    -3.052376344694     1.007825032230
         O           -1.777166478521    -4.071868471569    -2.455857837027    15.994914619570
         H           -1.220855673626    -2.519598299239    -1.639331744656     1.007825032230
         H           -1.510214317408    -3.980619266149    -4.240496292648     1.007825032230
         O            3.990833235857     3.034321901291     0.664051650212    15.994914619570
         H            3.168777804843     4.713468285684     0.653813114064     1.007825032230
         H            2.671636214662     1.811693664559     0.442364098982     1.007825032230
         O            4.384678616568    -3.135142569536    -0.239845929569    15.994914619570
         H            3.026579693355    -2.051520696867    -0.478384168660     1.007825032230
         H            5.375875874167    -2.668565409709     1.143558316190     1.007825032230
         O           -2.042546387497     5.376877429014     1.257835724175    15.994914619570
         H           -0.993814528283     6.403304850770     0.027671259655     1.007825032230
         H           -2.255284195797     3.679555658746     0.750034188920     1.007825032230

  Charge       = -1
  Multiplicity = 1
  Basis Set: AUG-CC-PVTZ
    Blend: AUG-CC-PVTZ
  Basis Set: (AUG-CC-PVTZ AUX)
    Blend: AUG-CC-PVTZ-JKFIT

    Orbital Energies [Eh]
    ---------------------

    Doubly Occupied:

       1A    -25.999910     2A    -20.443706     3A    -20.424433
       4A    -20.417667     5A    -20.397549     6A    -20.389030
       7A    -20.387030     8A     -1.269579     9A     -1.223361
      10A     -1.212665    11A     -1.194297    12A     -1.184207
      13A     -1.182117    14A     -1.166781    15A     -0.610166
      16A     -0.583654    17A     -0.568179    18A     -0.565634
      19A     -0.558203    20A     -0.542615    21A     -0.457010
      22A     -0.450419    23A     -0.431694    24A     -0.422795
      25A     -0.415457    26A     -0.412373    27A     -0.385220
      28A     -0.372221    29A     -0.364537    30A     -0.360818
      31A     -0.349613    32A     -0.346152    33A     -0.343445
      34A     -0.340936    35A     -0.329532

  @DF-RHF Final Energy:  -555.90245494763155

   => Energetics <=

    Nuclear Repulsion Energy =            357.1333957955784513
    One-Electron Energy =               -1493.8656783331869065
    Two-Electron Energy =                 580.8298275899768441
    Total Energy =                       -555.9024549476315542
 Dipole X            :        -26.8094793           25.7946898           -1.0147895
 Dipole Y            :        -57.4743933           57.7448034            0.2704101
 Dipole Z            :         -0.0531534           -1.1810429           -1.2341963
 Magnitude           :                                                    1.6205431
  Basis Set: (AUG-CC-PVTZ AUX)
    Blend: AUG-CC-PVTZ-RI
	 Reference Energy          =    -555.9024549476315542 [Eh]
	 Singles Energy            =      -0.0000000000000000 [Eh]
	 Same-Spin Energy          =      -0.5033130788027719 [Eh]
	 Opposite-Spin Energy      =      -1.5340294677111974 [Eh]
	 Correlation Energy        =      -2.0373425465139694 [Eh]
	 Total Energy              =    -557.9397974941455232 [Eh]

	 ================> DF-SCS-MP2 Energies <==================
	-----------------------------------------------------------
	 SCS Same-Spin Scale       =       0.3333333333333333 [-]
	 SCS Opposite-Spin Scale   =       1.2000000000000000 [-]
	 SCS Same-Spin Energy      =      -0.1677710262675906 [Eh]
	 SCS Opposite-Spin Energy  =      -1.8408353612534367 [Eh]
	 SCS Correlation Energy    =      -2.0086063875210272 [Eh]
	 SCS Total Energy          =    -557.9110613351525672 [Eh]
	-----------------------------------------------------------

*** Psi4 exiting successfully. Buy a developer a beer!
