                               Psi4 1.8.2 release

  ==> Input File <==

--------------------------------------------------------------------------
MEMORY 60 GB

molecule dimer {
0 1
Gh(F)      0.000000     0.000000     0.000000
Gh(O)      2.081703    -1.508701     1.473146
Gh(H)      1.423928    -1.144779     0.827316
Gh(H)      1.989185    -0.825890     2.234926
O         -1.611172     1.039781    -2.139406
H         -1.249726     0.761251    -1.244112
H         -1.011081     0.474083    -2.746982
Gh(O)      0.972873    -2.190476    -1.634802
Gh(H)      0.624232    -1.381249    -1.276102
Gh(H)      0.243327    -2.774866    -1.933728
Gh(O)     -0.433920     2.565224     0.815342
Gh(H)     -0.264565     1.626146     0.879923
Gh(H)      0.340327     2.904093     1.318431
Gh(O)     -2.434501    -1.580169     0.979841
Gh(H)     -2.571580    -1.692205     1.903886
Gh(H)     -1.682664    -1.058526     0.812807
Gh(O)      1.827191     1.758440    -0.803170
Gh(H)      1.167277     1.082376    -0.802700
Gh(H)      1.643038     2.278252    -1.564266

units ang
no_reorient
no_com
symmetry c1
}

set {
basis        aug-cc-pVTZ
scf_type     df
}

energy("mp2")
--------------------------------------------------------------------------

    Molecular point group: c1

    Geometry (in Angstrom), charge = 0, multiplicity = 1:

       Center              X                  Y                   Z               Mass
    ------------   -----------------  -----------------  -----------------  -----------------
      Gh(F)           0.000000000000     0.000000000000     0.000000000000    18.998403162730
      Gh(O)           2.081703000000    -1.508701000000     1.473146000000    15.994914619570
      Gh(H)           1.423928000000    -1.144779000000     0.827316000000     1.007825032230
      Gh(H)           1.989185000000    -0.825890000000     2.234926000000     1.007825032230
         O           -1.611172000000     1.039781000000    -2.139406000000    15.994914619570
         H           -1.249726000000     0.761251000000    -1.244112000000     1.007825032230
         H           -1.011081000000     0.474083000000    -2.746982000000     1.007825032230
      Gh(O)           0.972873000000    -2.190476000000    -1.634802000000    15.994914619570
      Gh(H)           0.624232000000    -1.381249000000    -1.276102000000     1.007825032230
      Gh(H)           0.243327000000    -2.774866000000    -1.933728000000     1.007825032230
      Gh(O)          -0.433920000000     2.565224000000     0.815342000000    15.994914619570
      Gh(H)          -0.264565000000     1.626146000000     0.879923000000     1.007825032230
      Gh(H)           0.340327000000     2.904093000000     1.318431000000     1.007825032230
      Gh(O)          -2.434501000000    -1.580169000000     0.979841000000    15.994914619570
      Gh(H)          -2.571580000000    -1.692205000000     1.903886000000     1.007825032230
      Gh(H)          -1.682664000000    -1.058526000000     0.812807000000     1.007825032230
      Gh(O)           1.827191000000     1.758440000000    -0.803170000000    15.994914619570
      Gh(H)           1.167277000000     1.082376000000    -0.802700000000     1.007825032230
      Gh(H)           1.643038000000     2.278252000000    -1.564266000000     1.007825032230

  Charge       = 0
  Multiplicity = 1
  Basis Set: AUG-CC-PVTZ
    Blend: AUG-CC-PVTZ
  Basis Set: (AUG-CC-PVTZ AUX)
    Blend: AUG-CC-PVTZ-JKFIT

    Orbital Energies [Eh]
    ---------------------

    Doubly Occupied:

       1A    -20.579097     2A     -1.329243     3A     -0.678531
       4A     -0.583346     5A     -0.507572

  @DF-RHF Final Energy:   -76.05063987413897

   => Energetics <=

    Nuclear Repulsion Energy =              8.6874282720232330
    One-Electron Energy =                -122.1205544580427613
    Two-Electron Energy =                  37.3824863118805624
    Total Energy =                        -76.0506398741389660
 Dipole X            :         29.2379687          -28.6296966            0.6082721
 Dipole Y            :        -18.5875880           18.0536535           -0.5339345
 Dipole Z            :         40.0717198          -39.8852059            0.1865139
 Magnitude           :                                                    0.8305832
  Basis Set: (AUG-CC-PVTZ AUX)
    Blend: AUG-CC-PVTZ-RI
	 Reference Energy          =     -76.0506398741389660 [Eh]
	 Singles Energy            =      -0.0000000000000000 [Eh]
	 Same-Spin Energy          =      -0.0695561410308706 [Eh]
	 Opposite-Spin Energy      =      -0.2195626912541569 [Eh]
	 Correlation Energy        =      -0.2891188322850275 [Eh]
	 Total Energy              =     -76.3397587064239929 [Eh]

	 ================> DF-SCS-MP2 Energies <==================
	-----------------------------------------------------------
	 SCS Same-Spin Scale       =       0.3333333333333333 [-]
	 SCS Opposite-Spin Scale   =       1.2000000000000000 [-]
	 SCS Same-Spin Energy      =      -0.0231853803436235 [Eh]
	 SCS Opposite-Spin Energy  =      -0.2634752295049883 [Eh]
	 SCS Correlation Energy    =      -0.2866606098486119 [Eh]
	 SCS Total Energy          =     -76.3373004839875762 [Eh]
	-----------------------------------------------------------

*** Psi4 exiting successfully. Buy a developer a beer!
