                               Psi4 1.8.2 release

  ==> Input File <==

--------------------------------------------------------------------------
MEMORY 60 GB

molecule dimer {
-1 1
F          0.000000     0.000000     0.000000
Gh(O)      1.083487     1.163503    -2.426510
Gh(H)      0.943812     0.577349    -3.200577
Gh(H)      0.539524     0.760717    -1.711888
Gh(O)     -0.494244    -2.731057     0.347994
Gh(H)     -0.429507    -1.802030     0.254898
Gh(H)      0.255994    -3.099428    -0.002083
Gh(O)     -1.560254     2.216611     0.530057
Gh(H)     -1.025108     3.040199     0.409244
Gh(H)     -0.961843     1.486509     0.454221
Gh(O)      1.214809     0.712872     2.482325
Gh(H)      0.834328     0.841337     1.604326
Gh(H)      1.778510    -0.049437     2.410774
Gh(O)      2.620893    -1.324543     0.095877
Gh(H)      1.695148    -0.897003     0.074745
Gh(H)      2.528597    -2.249405    -0.321033
Gh(O)     -2.624165    -0.409702    -1.323028
Gh(H)     -3.303734    -0.066172    -0.725785
Gh(H)     -1.750133    -0.322732    -0.885164

units ang
no_reorient
no_com
symmetry c1
}

set {
basis        aug-cc-pVTZ
scf_type     df
}

energy("mp2")
--------------------------------------------------------------------------

    Molecular point group: c1

    Geometry (in Angstrom), charge = -1, multiplicity = 1:

       Center              X                  Y                   Z               Mass
    ------------   -----------------  -----------------  -----------------  -----------------
         F            0.000000000000     0.000000000000     0.000000000000    18.998403162730
      Gh(O)           1.083487000000     1.163503000000    -2.426510000000    15.994914619570
      Gh(H)           0.943812000000     0.577349000000    -3.200577000000     1.007825032230
      Gh(H)           0.539524000000     0.760717000000    -1.711888000000     1.007825032230
      Gh(O)          -0.494244000000    -2.731057000000     0.347994000000    15.994914619570
      Gh(H)          -0.429507000000    -1.802030000000     0.254898000000     1.007825032230
      Gh(H)           0.255994000000    -3.099428000000    -0.002083000000     1.007825032230
      Gh(O)          -1.560254000000     2.216611000000     0.530057000000    15.994914619570
      Gh(H)          -1.025108000000     3.040199000000     0.409244000000     1.007825032230
      Gh(H)          -0.961843000000     1.486509000000     0.454221000000     1.007825032230
      Gh(O)           1.214809000000     0.712872000000     2.482325000000    15.994914619570
      Gh(H)           0.834328000000     0.841337000000     1.604326000000     1.007825032230
      Gh(H)           1.778510000000    -0.049437000000     2.410774000000     1.007825032230
      Gh(O)           2.620893000000    -1.324543000000     0.095877000000    15.994914619570
      Gh(H)           1.695148000000    -0.897003000000     0.074745000000     1.007825032230
      Gh(H)           2.528597000000    -2.249405000000    -0.321033000000     1.007825032230
      Gh(O)          -2.624165000000    -0.409702000000    -1.323028000000    15.994914619570
      Gh(H)          -3.303734000000    -0.066172000000    -0.725785000000     1.007825032230
      Gh(H)          -1.750133000000    -0.322732000000    -0.885164000000     1.007825032230

  Charge       = -1
  Multiplicity = 1
  Basis Set: AUG-CC-PVTZ
    Blend: AUG-CC-PVTZ
  Basis Set: (AUG-CC-PVTZ AUX)
    Blend: AUG-CC-PVTZ-JKFIT

    Orbital Energies [Eh]
    ---------------------

    Doubly Occupied:

       1A    -25.833498     2A     -1.075866     3A     -0.180912
       4A     -0.180900     5A     -0.180872

  @DF-RHF Final Energy:   -99.45114802952898

   => Energetics <=

    Nuclear Repulsion Energy =              0.0000000000000000
    One-Electron Energy =                -143.9981915157154617
    Two-Electron Energy =                  44.5470434861864959
    Total Energy =                        -99.4511480295289658
 Dipole X            :          0.0000789            0.0000000            0.0000789
 Dipole Y            :          0.0000575            0.0000000            0.0000575
 Dipole Z            :         -0.0000683            0.0000000           -0.0000683
 Magnitude           :                                                    0.0001191
  Basis Set: (AUG-CC-PVTZ AUX)
    Blend: AUG-CC-PVTZ-RI
	 Reference Energy          =     -99.4511480295289800 [Eh]
	 Singles Energy            =      -0.0000000000000000 [Eh]
	 Same-Spin Energy          =      -0.0820761529815050 [Eh]
	 Opposite-Spin Energy      =      -0.2302054198180820 [Eh]
	 Correlation Energy        =      -0.3122815727995870 [Eh]
	 Total Energy              =     -99.7634296023285714 [Eh]

	 ================> DF-SCS-MP2 Energies <==================
	-----------------------------------------------------------
	 SCS Same-Spin Scale       =       0.3333333333333333 [-]
	 SCS Opposite-Spin Scale   =       1.2000000000000000 [-]
	 SCS Same-Spin Energy      =      -0.0273587176605017 [Eh]
	 SCS Opposite-Spin Energy  =      -0.2762465037816983 [Eh]
	 SCS Correlation Energy    =      -0.3036052214422000 [Eh]
	 SCS Total Energy          =     -99.7547532509711772 [Eh]
	-----------------------------------------------------------

*** Psi4 exiting successfully. Buy a developer a beer!
