                               Psi4 1.8.2 release

  ==> Input File <==

--------------------------------------------------------------------------
MEMORY 60 GB

molecule dimer {
0 1
Gh(F)      0.000000     0.000000     0.000000
Gh(O)      1.085350    -0.452967    -2.498595
Gh(H)      0.740226    -0.290867    -1.628710
Gh(H)      1.712584     0.278333    -2.718517
Gh(O)      2.724779     1.025508     1.044409
Gh(H)      1.842746     0.753869     0.654207
Gh(H)      2.827630     0.510970     1.864390
Gh(O)      0.347464     2.793856    -0.347316
Gh(H)      0.359101     1.813032    -0.464677
Gh(H)      1.260776     3.131718    -0.519961
Gh(O)     -0.522190    -0.709648     2.712844
Gh(H)     -1.491139    -0.927418     2.859256
Gh(H)     -0.468495    -0.514250     1.793049
Gh(O)      1.416063    -2.457372     0.057633
Gh(H)      0.659838    -3.068519     0.149532
Gh(H)      0.955921    -1.620980    -0.132078
O         -2.262354    -0.569114    -1.491409
H         -1.655329    -0.029416    -0.956922
H         -2.394828    -1.281723    -0.858167

units ang
no_reorient
no_com
symmetry c1
}

set {
basis        aug-cc-pVTZ
scf_type     df
}

energy("mp2")
--------------------------------------------------------------------------

    Molecular point group: c1

    Geometry (in Angstrom), charge = 0, multiplicity = 1:

       Center              X                  Y                   Z               Mass
    ------------   -----------------  -----------------  -----------------  -----------------
      Gh(F)           0.000000000000     0.000000000000     0.000000000000    18.998403162730
      Gh(O)           1.085350000000    -0.452967000000    -2.498595000000    15.994914619570
      Gh(H)           0.740226000000    -0.290867000000    -1.628710000000     1.007825032230
      Gh(H)           1.712584000000     0.278333000000    -2.718517000000     1.007825032230
      Gh(O)           2.724779000000     1.025508000000     1.044409000000    15.994914619570
      Gh(H)           1.842746000000     0.753869000000     0.654207000000     1.007825032230
      Gh(H)           2.827630000000     0.510970000000     1.864390000000     1.007825032230
      Gh(O)           0.347464000000     2.793856000000    -0.347316000000    15.994914619570
      Gh(H)           0.359101000000     1.813032000000    -0.464677000000     1.007825032230
      Gh(H)           1.260776000000     3.131718000000    -0.519961000000     1.007825032230
      Gh(O)          -0.522190000000    -0.709648000000     2.712844000000    15.994914619570
      Gh(H)          -1.491139000000    -0.927418000000     2.859256000000     1.007825032230
      Gh(H)          -0.468495000000    -0.514250000000     1.793049000000     1.007825032230
      Gh(O)           1.416063000000    -2.457372000000     0.057633000000    15.994914619570
      Gh(H)           0.659838000000    -3.068519000000     0.149532000000     1.007825032230
      Gh(H)           0.955921000000    -1.620980000000    -0.132078000000     1.007825032230
         O           -2.262354000000    -0.569114000000    -1.491409000000    15.994914619570
         H           -1.655329000000    -0.029416000000    -0.956922000000     1.007825032230
         H           -2.394828000000    -1.281723000000    -0.858167000000     1.007825032230

  Charge       = 0
  Multiplicity = 1
  Basis Set: AUG-CC-PVTZ
    Blend: AUG-CC-PVTZ
  Basis Set: (AUG-CC-PVTZ AUX)
    Blend: AUG-CC-PVTZ-JKFIT

    Orbital Energies [Eh]
    ---------------------

    Doubly Occupied:

       1A    -20.571697     2A     -1.353270     3A     -0.698789
       4A     -0.596169     5A     -0.511453

  @DF-RHF Final Energy:   -76.05825143861998

   => Energetics <=

    Nuclear Repulsion Energy =              9.1153774915070240
    One-Electron Energy =                -122.8844986787154738
    Two-Electron Energy =                  37.7108697485884790
    Total Energy =                        -76.0582514386199762
 Dipole X            :         42.1624202          -41.8555232            0.3068970
 Dipole Y            :         10.9679884          -11.0814504           -0.1134620
 Dipole Z            :         26.7347703          -25.9768575            0.7579128
 Magnitude           :                                                    0.8255248
  Basis Set: (AUG-CC-PVTZ AUX)
    Blend: AUG-CC-PVTZ-RI
	 Reference Energy          =     -76.0582514386199762 [Eh]
	 Singles Energy            =      -0.0000000000000000 [Eh]
	 Same-Spin Energy          =      -0.0687711713547534 [Eh]
	 Opposite-Spin Energy      =      -0.2168712087076316 [Eh]
	 Correlation Energy        =      -0.2856423800623850 [Eh]
	 Total Energy              =     -76.3438938186823606 [Eh]

	 ================> DF-SCS-MP2 Energies <==================
	-----------------------------------------------------------
	 SCS Same-Spin Scale       =       0.3333333333333333 [-]
	 SCS Opposite-Spin Scale   =       1.2000000000000000 [-]
	 SCS Same-Spin Energy      =      -0.0229237237849178 [Eh]
	 SCS Opposite-Spin Energy  =      -0.2602454504491579 [Eh]
	 SCS Correlation Energy    =      -0.2831691742340757 [Eh]
	 SCS Total Energy          =     -76.3414206128540513 [Eh]
	-----------------------------------------------------------

*** Psi4 exiting successfully. Buy a developer a beer!
