                               Psi4 1.9 release

  ==> Input File <==

--------------------------------------------------------------------------
MEMORY 60 GB

molecule dimer {
-1 1
F      0.000000     0.000000     0.000000
--
0 1
O      1.372061    -1.347210    -1.932574
H      1.774702    -2.112636    -1.501750
H      0.855323    -0.909015    -1.230796
O     -1.740094    -2.011283    -0.219246
H     -1.508601    -2.530431    -0.974565
H     -1.010642    -1.384241    -0.176034
O     -1.563985     1.368744    -1.739992
H     -1.407057     0.868260    -2.530266
H     -1.046196     0.902619    -1.029123
O     -1.071139    -0.537241     2.612539
H     -0.620873    -0.301090     1.726356
H     -0.452618    -0.183595     3.292619

units ang
no_reorient
no_com
symmetry c1
}

set {
basis        aug-cc-pVTZ
scf_type     df
}

energy("mp2", bsse_type="cp")
--------------------------------------------------------------------------

                               Psi4 1.9 release
    Molecular point group: c1
  Charge       = 0
  Multiplicity = 1
  Basis Set: AUG-CC-PVTZ
    Blend: AUG-CC-PVTZ
  Basis Set: (AUG-CC-PVTZ AUX)
    Blend: AUG-CC-PVTZ-JKFIT
  @DF-RHF Final Energy:  -304.21670790790608
    Total Energy =                       -304.2167079079060841
 Dipole X            :         53.4515343          -51.8563866            1.5951478
 Dipole Y            :         48.3900715          -48.8797486           -0.4896770
 Dipole Z            :         23.9870250          -23.9196676            0.0673574
 Magnitude           :                                                    1.6699751
  Basis Set: (AUG-CC-PVTZ AUX)
    Blend: AUG-CC-PVTZ-RI
	 Reference Energy          =    -304.2167079079060841 [Eh]
	 Singles Energy            =      -0.0000000000000000 [Eh]
	 Same-Spin Energy          =      -0.2766315273948257 [Eh]
	 Opposite-Spin Energy      =      -0.8707943893411587 [Eh]
	 Correlation Energy        =      -1.1474259167359844 [Eh]
	 Total Energy              =    -305.3641338246420673 [Eh]
	 SCS Total Energy          =    -305.3538716842471104 [Eh]
                               Psi4 1.9 release
    Molecular point group: c1
  Multiplicity = 1
  Basis Set: AUG-CC-PVTZ
    Blend: AUG-CC-PVTZ
  Basis Set: (AUG-CC-PVTZ AUX)
    Blend: AUG-CC-PVTZ-JKFIT
  @DF-RHF Final Energy:   -99.45108191390756
    Total Energy =                        -99.4510819139075579
  Basis Set: (AUG-CC-PVTZ AUX)
	 Singles Energy            =      -0.0000000000000000 [Eh]
	 Same-Spin Energy          =      -0.0820420933108513 [Eh]
	 Opposite-Spin Energy      =      -0.2300442318456058 [Eh]
	 Correlation Energy        =      -0.3120863251564571 [Eh]
	 Total Energy              =     -99.7631682390640151 [Eh]
	 SCS Total Energy          =     -99.7544823565592367 [Eh]
                               Psi4 1.9 release
    Molecular point group: c1

    Geometry (in Bohr), charge = -1, multiplicity = 1:

       Center              X                  Y                   Z               Mass
    ------------   -----------------  -----------------  -----------------  -----------------
         F            0.000000000000     0.000000000000     0.000000000000    18.998403162730
         O            2.592819517422    -2.545857933478    -3.652035577181    15.994914619570
         H            3.353700734302    -3.992303442783    -2.837896208906     1.007825032230
         H            1.616326218805    -1.717789393933    -2.325867356309     1.007825032230
         O           -3.288301092552    -3.800774030789    -0.414314894102    15.994914619570
         H           -2.850842722592    -4.781821569368    -1.841660941457     1.007825032230
         H           -1.909836590885    -2.615836381630    -0.332656048769     1.007825032230
         O           -2.955503314324     2.586551295864    -3.288108340488    15.994914619570
         H           -2.658952372908     1.640773605690    -4.781509764558     1.007825032230
         H           -1.977023913549     1.705702705635    -1.944760619410     1.007825032230
         O           -2.024159352297    -1.015238353367     4.936983202077    15.994914619570
         H           -1.173279928691    -0.568977639114     3.262340035041     1.007825032230
         H           -0.855324059452    -0.346944268003     6.222148145479     1.007825032230

  Charge       = -1
  Multiplicity = 1
  Basis Set: AUG-CC-PVTZ
    Blend: AUG-CC-PVTZ
  Basis Set: (AUG-CC-PVTZ AUX)
    Blend: AUG-CC-PVTZ-JKFIT

    Orbital Energies [Eh]
    ---------------------

    Doubly Occupied:

       1A    -25.987245     2A    -20.404478     3A    -20.400096
       4A    -20.381596     5A    -20.377747     6A     -1.256497
       7A     -1.185901     8A     -1.175984     9A     -1.161146
      10A     -1.159854    11A     -0.556573    12A     -0.544081
      13A     -0.532090    14A     -0.520793    15A     -0.434125
      16A     -0.420141    17A     -0.416791    18A     -0.406461
      19A     -0.351891    20A     -0.343671    21A     -0.341398
      22A     -0.338530    23A     -0.333031    24A     -0.328386
      25A     -0.321296

  @DF-RHF Final Energy:  -403.78791254293799

   => Energetics <=

    Nuclear Repulsion Energy =            190.0805305552561606
    One-Electron Energy =                -948.3772790351772528
    Two-Electron Energy =                 354.5088359369831323
    Total Energy =                       -403.7879125429379883
 Dipole X            :         53.9065876          -51.8563866            2.0502010
 Dipole Y            :         48.8777658          -48.8797486           -0.0019828
 Dipole Z            :         24.2803289          -23.9196676            0.3606613
 Magnitude           :                                                    2.0816831
  Basis Set: (AUG-CC-PVTZ AUX)
    Blend: AUG-CC-PVTZ-RI
	 Reference Energy          =    -403.7879125429379883 [Eh]
	 Singles Energy            =      -0.0000000000000000 [Eh]
	 Same-Spin Energy          =      -0.3639073034201057 [Eh]
	 Opposite-Spin Energy      =      -1.0997079694805865 [Eh]
	 Correlation Energy        =      -1.4636152729006922 [Eh]
	 Total Energy              =    -405.2515278158386991 [Eh]

	 ================> DF-SCS-MP2 Energies <==================
	-----------------------------------------------------------
	 SCS Same-Spin Scale       =       0.3333333333333333 [-]
	 SCS Opposite-Spin Scale   =       1.2000000000000000 [-]
	 SCS Same-Spin Energy      =      -0.1213024344733686 [Eh]
	 SCS Opposite-Spin Energy  =      -1.3196495633767038 [Eh]
	 SCS Correlation Energy    =      -1.4409519978500724 [Eh]
	 SCS Total Energy          =    -405.2288645407880381 [Eh]
	-----------------------------------------------------------

*** Psi4 exiting successfully. Buy a developer a beer!
