                               Psi4 1.8.2 release

  ==> Input File <==

--------------------------------------------------------------------------
MEMORY 60 GB

molecule dimer {
0 1
Gh(F)      0.000000     0.000000     0.000000
Gh(O)      1.549726    -0.592173    -2.469497
Gh(H)      2.491955    -0.304027    -2.354979
Gh(H)      1.059966    -0.129118    -1.739114
Gh(O)     -2.109158     0.552064     1.527417
Gh(H)     -1.303685     0.262813     1.105559
Gh(H)     -2.150940     1.467686     1.236099
Gh(O)     -0.658953     2.609487    -0.786580
Gh(H)     -0.277803     1.841298    -0.414688
Gh(H)     -1.429545     2.816178    -0.200283
Gh(O)      1.311910    -1.653315     1.534469
Gh(H)      0.833433    -0.988070     1.037024
Gh(H)      0.695205    -2.456602     1.463667
O         -1.617297    -0.996617    -2.102888
H         -1.802101    -0.062886    -2.375282
H         -1.153428    -0.952167    -1.276978

units ang
no_reorient
no_com
symmetry c1
}

set {
basis        aug-cc-pVTZ
scf_type     df
}

energy("mp2")
--------------------------------------------------------------------------

    Molecular point group: c1

    Geometry (in Angstrom), charge = 0, multiplicity = 1:

       Center              X                  Y                   Z               Mass
    ------------   -----------------  -----------------  -----------------  -----------------
      Gh(F)           0.000000000000     0.000000000000     0.000000000000    18.998403162730
      Gh(O)           1.549726000000    -0.592173000000    -2.469497000000    15.994914619570
      Gh(H)           2.491955000000    -0.304027000000    -2.354979000000     1.007825032230
      Gh(H)           1.059966000000    -0.129118000000    -1.739114000000     1.007825032230
      Gh(O)          -2.109158000000     0.552064000000     1.527417000000    15.994914619570
      Gh(H)          -1.303685000000     0.262813000000     1.105559000000     1.007825032230
      Gh(H)          -2.150940000000     1.467686000000     1.236099000000     1.007825032230
      Gh(O)          -0.658953000000     2.609487000000    -0.786580000000    15.994914619570
      Gh(H)          -0.277803000000     1.841298000000    -0.414688000000     1.007825032230
      Gh(H)          -1.429545000000     2.816178000000    -0.200283000000     1.007825032230
      Gh(O)           1.311910000000    -1.653315000000     1.534469000000    15.994914619570
      Gh(H)           0.833433000000    -0.988070000000     1.037024000000     1.007825032230
      Gh(H)           0.695205000000    -2.456602000000     1.463667000000     1.007825032230
         O           -1.617297000000    -0.996617000000    -2.102888000000    15.994914619570
         H           -1.802101000000    -0.062886000000    -2.375282000000     1.007825032230
         H           -1.153428000000    -0.952167000000    -1.276978000000     1.007825032230

  Charge       = 0
  Multiplicity = 1
  Basis Set: AUG-CC-PVTZ
    Blend: AUG-CC-PVTZ
  Basis Set: (AUG-CC-PVTZ AUX)
    Blend: AUG-CC-PVTZ-JKFIT

    Orbital Energies [Eh]
    ---------------------

    Doubly Occupied:

       1A    -20.568146     2A     -1.346361     3A     -0.715428
       4A     -0.578289     5A     -0.508734

  @DF-RHF Final Energy:   -76.05880848750638

   => Energetics <=

    Nuclear Repulsion Energy =              9.0804753007954488
    One-Electron Energy =                -122.8446473792281921
    Two-Electron Energy =                  37.7053635909263676
    Total Energy =                        -76.0588084875063828
 Dipole X            :         30.2234224          -30.0351275            0.1882949
 Dipole Y            :         17.6310102          -16.9848376            0.6461726
 Dipole Z            :         39.0658827          -38.6928303            0.3730524
 Magnitude           :                                                    0.7695207
  Basis Set: (AUG-CC-PVTZ AUX)
    Blend: AUG-CC-PVTZ-RI
	 Reference Energy          =     -76.0588084875063828 [Eh]
	 Singles Energy            =      -0.0000000000000000 [Eh]
	 Same-Spin Energy          =      -0.0685631241395903 [Eh]
	 Opposite-Spin Energy      =      -0.2164831037512154 [Eh]
	 Correlation Energy        =      -0.2850462278908057 [Eh]
	 Total Energy              =     -76.3438547153971854 [Eh]

	 ================> DF-SCS-MP2 Energies <==================
	-----------------------------------------------------------
	 SCS Same-Spin Scale       =       0.3333333333333333 [-]
	 SCS Opposite-Spin Scale   =       1.2000000000000000 [-]
	 SCS Same-Spin Energy      =      -0.0228543747131968 [Eh]
	 SCS Opposite-Spin Energy  =      -0.2597797245014584 [Eh]
	 SCS Correlation Energy    =      -0.2826340992146552 [Eh]
	 SCS Total Energy          =     -76.3414425867210440 [Eh]
	-----------------------------------------------------------

*** Psi4 exiting successfully. Buy a developer a beer!
