                               Psi4 1.8.2 release

  ==> Input File <==

--------------------------------------------------------------------------
MEMORY 60 GB

molecule dimer {
0 1
Gh(F)      0.000000     0.000000     0.000000
O         -1.926510    -0.488905     1.828209
H         -1.218437    -0.291512     1.216095
H         -1.943797     0.253946     2.436303
Gh(O)     -1.465982     2.344386    -0.959195
Gh(H)     -1.258918     1.474742    -0.673609
Gh(H)     -0.760802     2.572151    -1.640564
Gh(O)      1.781208     1.993985     0.947440
Gh(H)      2.722858     1.834958     1.158027
Gh(H)      1.404065     1.156182     0.633208
Gh(O)      0.920742    -0.070805    -2.597380
Gh(H)      0.201064     0.162434    -3.173783
Gh(H)      0.557053     0.093415    -1.736858
Gh(O)      1.502065    -2.307810     0.115819
Gh(H)      1.299950    -2.782798    -0.663331
Gh(H)      1.063706    -1.409643     0.038071

units ang
no_reorient
no_com
symmetry c1
}

set {
basis        aug-cc-pVTZ
scf_type     df
}

energy("mp2")
--------------------------------------------------------------------------

    Molecular point group: c1

    Geometry (in Angstrom), charge = 0, multiplicity = 1:

       Center              X                  Y                   Z               Mass
    ------------   -----------------  -----------------  -----------------  -----------------
      Gh(F)           0.000000000000     0.000000000000     0.000000000000    18.998403162730
         O           -1.926510000000    -0.488905000000     1.828209000000    15.994914619570
         H           -1.218437000000    -0.291512000000     1.216095000000     1.007825032230
         H           -1.943797000000     0.253946000000     2.436303000000     1.007825032230
      Gh(O)          -1.465982000000     2.344386000000    -0.959195000000    15.994914619570
      Gh(H)          -1.258918000000     1.474742000000    -0.673609000000     1.007825032230
      Gh(H)          -0.760802000000     2.572151000000    -1.640564000000     1.007825032230
      Gh(O)           1.781208000000     1.993985000000     0.947440000000    15.994914619570
      Gh(H)           2.722858000000     1.834958000000     1.158027000000     1.007825032230
      Gh(H)           1.404065000000     1.156182000000     0.633208000000     1.007825032230
      Gh(O)           0.920742000000    -0.070805000000    -2.597380000000    15.994914619570
      Gh(H)           0.201064000000     0.162434000000    -3.173783000000     1.007825032230
      Gh(H)           0.557053000000     0.093415000000    -1.736858000000     1.007825032230
      Gh(O)           1.502065000000    -2.307810000000     0.115819000000    15.994914619570
      Gh(H)           1.299950000000    -2.782798000000    -0.663331000000     1.007825032230
      Gh(H)           1.063706000000    -1.409643000000     0.038071000000     1.007825032230

  Charge       = 0
  Multiplicity = 1
  Basis Set: AUG-CC-PVTZ
    Blend: AUG-CC-PVTZ
  Basis Set: (AUG-CC-PVTZ AUX)
    Blend: AUG-CC-PVTZ-JKFIT

    Orbital Energies [Eh]
    ---------------------

    Doubly Occupied:

       1A    -20.567092     2A     -1.352594     3A     -0.718115
       4A     -0.583690     5A     -0.510095

  @DF-RHF Final Energy:   -76.06064353508428

   => Energetics <=

    Nuclear Repulsion Energy =              9.1827096387542984
    One-Electron Energy =                -123.0235315262243461
    Two-Electron Energy =                  37.7801783523857608
    Total Energy =                        -76.0606435350842816
 Dipole X            :         35.5608863          -35.1003664            0.4605199
 Dipole Y            :          8.0879163           -7.4621619            0.6257544
 Dipole Z            :        -34.5439718           34.5405464           -0.0034254
 Magnitude           :                                                    0.7769549
  Basis Set: (AUG-CC-PVTZ AUX)
    Blend: AUG-CC-PVTZ-RI
	 Reference Energy          =     -76.0606435350842816 [Eh]
	 Singles Energy            =      -0.0000000000000000 [Eh]
	 Same-Spin Energy          =      -0.0684188733463251 [Eh]
	 Opposite-Spin Energy      =      -0.2162275054562933 [Eh]
	 Correlation Energy        =      -0.2846463788026184 [Eh]
	 Total Energy              =     -76.3452899138869014 [Eh]

	 ================> DF-SCS-MP2 Energies <==================
	-----------------------------------------------------------
	 SCS Same-Spin Scale       =       0.3333333333333333 [-]
	 SCS Opposite-Spin Scale   =       1.2000000000000000 [-]
	 SCS Same-Spin Energy      =      -0.0228062911154417 [Eh]
	 SCS Opposite-Spin Energy  =      -0.2594730065475519 [Eh]
	 SCS Correlation Energy    =      -0.2822792976629936 [Eh]
	 SCS Total Energy          =     -76.3429228327472771 [Eh]
	-----------------------------------------------------------

*** Psi4 exiting successfully. Buy a developer a beer!
