                               Psi4 1.8.2 release

  ==> Input File <==

--------------------------------------------------------------------------
MEMORY 60 GB

molecule dimer {
-1 1
F          0.000000     0.000000     0.000000
O          0.680826    -0.939261    -2.565720
H          0.776711    -0.509976    -1.665094
H          1.177620    -0.426589    -3.141786
O          2.494322     1.215623     0.856945
H          3.185249     1.015423     1.522625
H          1.828253     0.531859     0.918648
O          0.310218    -2.799566     0.371117
H          0.088505    -1.923298     0.173876
H          0.230665    -3.288922    -0.432281
O         -1.077882     0.253175     2.550768
H         -0.802564     0.336791     1.574496
H         -0.449028    -0.396209     2.897838
O         -0.031927     3.083942    -0.157883
H          0.456398     3.797739    -0.602452
H          0.246498     2.223721    -0.550204
O         -2.743171    -0.297210    -0.425433
H         -1.827612    -0.242352    -0.365725
H         -3.147919     0.492464     0.012583

units ang
no_reorient
no_com
symmetry c1
}

set {
basis        aug-cc-pVTZ
scf_type     df
}

energy("mp2")
--------------------------------------------------------------------------

    Molecular point group: c1

    Geometry (in Angstrom), charge = -1, multiplicity = 1:

       Center              X                  Y                   Z               Mass
    ------------   -----------------  -----------------  -----------------  -----------------
         F            0.000000000000     0.000000000000     0.000000000000    18.998403162730
         O            0.680826000000    -0.939261000000    -2.565720000000    15.994914619570
         H            0.776711000000    -0.509976000000    -1.665094000000     1.007825032230
         H            1.177620000000    -0.426589000000    -3.141786000000     1.007825032230
         O            2.494322000000     1.215623000000     0.856945000000    15.994914619570
         H            3.185249000000     1.015423000000     1.522625000000     1.007825032230
         H            1.828253000000     0.531859000000     0.918648000000     1.007825032230
         O            0.310218000000    -2.799566000000     0.371117000000    15.994914619570
         H            0.088505000000    -1.923298000000     0.173876000000     1.007825032230
         H            0.230665000000    -3.288922000000    -0.432281000000     1.007825032230
         O           -1.077882000000     0.253175000000     2.550768000000    15.994914619570
         H           -0.802564000000     0.336791000000     1.574496000000     1.007825032230
         H           -0.449028000000    -0.396209000000     2.897838000000     1.007825032230
         O           -0.031927000000     3.083942000000    -0.157883000000    15.994914619570
         H            0.456398000000     3.797739000000    -0.602452000000     1.007825032230
         H            0.246498000000     2.223721000000    -0.550204000000     1.007825032230
         O           -2.743171000000    -0.297210000000    -0.425433000000    15.994914619570
         H           -1.827612000000    -0.242352000000    -0.365725000000     1.007825032230
         H           -3.147919000000     0.492464000000     0.012583000000     1.007825032230

  Charge       = -1
  Multiplicity = 1
  Basis Set: AUG-CC-PVTZ
    Blend: AUG-CC-PVTZ
  Basis Set: (AUG-CC-PVTZ AUX)
    Blend: AUG-CC-PVTZ-JKFIT

    Orbital Energies [Eh]
    ---------------------

    Doubly Occupied:

       1A    -25.994430     2A    -20.426859     3A    -20.422886
       4A    -20.412678     5A    -20.399169     6A    -20.392327
       7A    -20.389158     8A     -1.260537     9A     -1.206313
      10A     -1.203304    11A     -1.202626    12A     -1.194555
      13A     -1.179938    14A     -1.161546    15A     -0.580033
      16A     -0.577855    17A     -0.571565    18A     -0.566982
      19A     -0.559895    20A     -0.525497    21A     -0.442280
      22A     -0.438572    23A     -0.431263    24A     -0.428733
      25A     -0.418794    26A     -0.412498    27A     -0.372253
      28A     -0.364417    29A     -0.360133    30A     -0.355193
      31A     -0.354766    32A     -0.347410    33A     -0.342409
      34A     -0.337884    35A     -0.329753

  @DF-RHF Final Energy:  -555.91573614991205

   => Energetics <=

    Nuclear Repulsion Energy =            347.1741190784840114
    One-Electron Energy =               -1474.2506789539690999
    Two-Electron Energy =                 571.1608237255730955
    Total Energy =                       -555.9157361499120498
 Dipole X            :          3.9547180           -2.2263544            1.7283636
 Dipole Y            :        -10.3557477           10.8551065            0.4993588
 Dipole Z            :        -10.8790454           10.1683820           -0.7106634
 Magnitude           :                                                    1.9343326
  Basis Set: (AUG-CC-PVTZ AUX)
    Blend: AUG-CC-PVTZ-RI
	 Reference Energy          =    -555.9157361499120498 [Eh]
	 Singles Energy            =      -0.0000000000000000 [Eh]
	 Same-Spin Energy          =      -0.5011068210966488 [Eh]
	 Opposite-Spin Energy      =      -1.5307025452421092 [Eh]
	 Correlation Energy        =      -2.0318093663387580 [Eh]
	 Total Energy              =    -557.9475455162507842 [Eh]

	 ================> DF-SCS-MP2 Energies <==================
	-----------------------------------------------------------
	 SCS Same-Spin Scale       =       0.3333333333333333 [-]
	 SCS Opposite-Spin Scale   =       1.2000000000000000 [-]
	 SCS Same-Spin Energy      =      -0.1670356070322163 [Eh]
	 SCS Opposite-Spin Energy  =      -1.8368430542905310 [Eh]
	 SCS Correlation Energy    =      -2.0038786613227471 [Eh]
	 SCS Total Energy          =    -557.9196148112348510 [Eh]
	-----------------------------------------------------------

*** Psi4 exiting successfully. Buy a developer a beer!
