                               Psi4 1.8.2 release

  ==> Input File <==

--------------------------------------------------------------------------
MEMORY 60 GB

molecule dimer {
0 1
Gh(F)      0.000000     0.000000     0.000000
Gh(O)     -0.403439     1.183217     2.402459
Gh(H)     -0.368174     0.518223     1.697033
Gh(H)      0.232895     0.753495     2.947123
Gh(O)      2.303742    -1.250421     0.525025
Gh(H)      1.490227    -0.788707     0.531894
Gh(H)      2.843314    -1.105727     1.310304
O         -2.398892     1.650841    -0.051992
H         -1.675125     0.929581     0.042817
H         -2.902495     1.553309     0.752774
Gh(O)     -1.481475    -2.214462    -0.034526
Gh(H)     -0.810065    -1.515855    -0.061717
Gh(H)     -1.006129    -3.009721    -0.410769
Gh(O)     -0.656255     0.245235    -2.745367
Gh(H)     -0.053838    -0.438387    -3.118900
Gh(H)     -0.449334     0.215360    -1.787135

units ang
no_reorient
no_com
symmetry c1
}

set {
basis        aug-cc-pVTZ
scf_type     df
}

energy("mp2")
--------------------------------------------------------------------------

    Molecular point group: c1

    Geometry (in Angstrom), charge = 0, multiplicity = 1:

       Center              X                  Y                   Z               Mass
    ------------   -----------------  -----------------  -----------------  -----------------
      Gh(F)           0.000000000000     0.000000000000     0.000000000000    18.998403162730
      Gh(O)          -0.403439000000     1.183217000000     2.402459000000    15.994914619570
      Gh(H)          -0.368174000000     0.518223000000     1.697033000000     1.007825032230
      Gh(H)           0.232895000000     0.753495000000     2.947123000000     1.007825032230
      Gh(O)           2.303742000000    -1.250421000000     0.525025000000    15.994914619570
      Gh(H)           1.490227000000    -0.788707000000     0.531894000000     1.007825032230
      Gh(H)           2.843314000000    -1.105727000000     1.310304000000     1.007825032230
         O           -2.398892000000     1.650841000000    -0.051992000000    15.994914619570
         H           -1.675125000000     0.929581000000     0.042817000000     1.007825032230
         H           -2.902495000000     1.553309000000     0.752774000000     1.007825032230
      Gh(O)          -1.481475000000    -2.214462000000    -0.034526000000    15.994914619570
      Gh(H)          -0.810065000000    -1.515855000000    -0.061717000000     1.007825032230
      Gh(H)          -1.006129000000    -3.009721000000    -0.410769000000     1.007825032230
      Gh(O)          -0.656255000000     0.245235000000    -2.745367000000    15.994914619570
      Gh(H)          -0.053838000000    -0.438387000000    -3.118900000000     1.007825032230
      Gh(H)          -0.449334000000     0.215360000000    -1.787135000000     1.007825032230

  Charge       = 0
  Multiplicity = 1
  Basis Set: AUG-CC-PVTZ
    Blend: AUG-CC-PVTZ
  Basis Set: (AUG-CC-PVTZ AUX)
    Blend: AUG-CC-PVTZ-JKFIT

    Orbital Energies [Eh]
    ---------------------

    Doubly Occupied:

       1A    -20.573303     2A     -1.339399     3A     -0.697552
       4A     -0.581193     5A     -0.508351

  @DF-RHF Final Energy:   -76.05438637103634

   => Energetics <=

    Nuclear Repulsion Energy =              8.9029700237607194
    One-Electron Energy =                -122.5151110163760961
    Two-Electron Energy =                  37.5577546215790505
    Total Energy =                        -76.0543863710363297
 Dipole X            :         45.0492372          -44.9164392            0.1327981
 Dipole Y            :        -30.1756593           29.6490810           -0.5265782
 Dipole Z            :         -0.1276428            0.7174440            0.5898012
 Magnitude           :                                                    0.8017390
  Basis Set: (AUG-CC-PVTZ AUX)
    Blend: AUG-CC-PVTZ-RI
	 Reference Energy          =     -76.0543863710363439 [Eh]
	 Singles Energy            =      -0.0000000000000000 [Eh]
	 Same-Spin Energy          =      -0.0690041084522754 [Eh]
	 Opposite-Spin Energy      =      -0.2179155042479761 [Eh]
	 Correlation Energy        =      -0.2869196127002515 [Eh]
	 Total Energy              =     -76.3413059837365893 [Eh]

	 ================> DF-SCS-MP2 Energies <==================
	-----------------------------------------------------------
	 SCS Same-Spin Scale       =       0.3333333333333333 [-]
	 SCS Opposite-Spin Scale   =       1.2000000000000000 [-]
	 SCS Same-Spin Energy      =      -0.0230013694840918 [Eh]
	 SCS Opposite-Spin Energy  =      -0.2614986050975713 [Eh]
	 SCS Correlation Energy    =      -0.2844999745816631 [Eh]
	 SCS Total Energy          =     -76.3388863456180076 [Eh]
	-----------------------------------------------------------

*** Psi4 exiting successfully. Buy a developer a beer!
