                               Psi4 1.9 release

  ==> Input File <==

--------------------------------------------------------------------------
MEMORY 60 GB

molecule dimer {
-1 1
F      0.000000     0.000000     0.000000
--
0 1
O      0.242114    -1.452934     2.415504
H     -0.616381    -1.882187     2.541181
H      0.305655    -0.919337     1.625439
O      0.723027     0.126597    -2.933588
H      0.475233     0.093507    -2.011106
H      1.577772    -0.349467    -3.059852
O     -3.014078     0.047971    -0.335833
H     -3.042120     0.986298    -0.534262
H     -2.130844    -0.132734    -0.089201
O      2.661578    -0.504624    -0.408960
H      3.011063    -0.602591     0.481752
H      1.722111    -0.375198    -0.373612
O      1.830655     1.719823     1.752473
H      2.368893     0.936770     1.814979
H      1.174412     1.527972     1.038808
O     -0.230721    -2.491145    -1.068143
H      0.708270    -2.537811    -1.376508
H     -0.245774    -1.611418    -0.675802

units ang
no_reorient
no_com
symmetry c1
}

set {
basis        aug-cc-pVTZ
scf_type     df
}

energy("mp2", bsse_type="cp")
--------------------------------------------------------------------------

                               Psi4 1.9 release
    Molecular point group: c1
  Charge       = 0
  Multiplicity = 1
  Basis Set: AUG-CC-PVTZ
    Blend: AUG-CC-PVTZ
  Basis Set: (AUG-CC-PVTZ AUX)
    Blend: AUG-CC-PVTZ-JKFIT
  @DF-RHF Final Energy:  -456.32638093891040
    Total Energy =                       -456.3263809389104040
 Dipole X            :        -42.8498172           43.4805006            0.6306833
 Dipole Y            :         47.8588880          -47.8113787            0.0475093
 Dipole Z            :         10.2329148           -9.9145615            0.3183533
 Magnitude           :                                                    0.7080730
  Basis Set: (AUG-CC-PVTZ AUX)
    Blend: AUG-CC-PVTZ-RI
	 Reference Energy          =    -456.3263809389104040 [Eh]
	 Singles Energy            =      -0.0000000000000000 [Eh]
	 Same-Spin Energy          =      -0.4151533949531230 [Eh]
	 Opposite-Spin Energy      =      -1.3039677207321041 [Eh]
	 Correlation Energy        =      -1.7191211156852271 [Eh]
	 Total Energy              =    -458.0455020545956586 [Eh]
	 SCS Total Energy          =    -458.0295266687733147 [Eh]
                               Psi4 1.9 release
    Molecular point group: c1
  Multiplicity = 1
  Basis Set: AUG-CC-PVTZ
    Blend: AUG-CC-PVTZ
  Basis Set: (AUG-CC-PVTZ AUX)
    Blend: AUG-CC-PVTZ-JKFIT
  @DF-RHF Final Energy:   -99.45114431239962
    Total Energy =                        -99.4511443123996060
  Basis Set: (AUG-CC-PVTZ AUX)
	 Singles Energy            =      -0.0000000000000000 [Eh]
	 Same-Spin Energy          =      -0.0820538601969815 [Eh]
	 Opposite-Spin Energy      =      -0.2301120129304994 [Eh]
	 Correlation Energy        =      -0.3121658731274810 [Eh]
	 Total Energy              =     -99.7633101855271036 [Eh]
	 SCS Total Energy          =     -99.7546300146485407 [Eh]
                               Psi4 1.9 release
    Molecular point group: c1

    Geometry (in Bohr), charge = -1, multiplicity = 1:

       Center              X                  Y                   Z               Mass
    ------------   -----------------  -----------------  -----------------  -----------------
         F            0.000000000000     0.000000000000     0.000000000000    18.998403162730
         O            0.457529151139    -2.745647338366     4.564641014948    15.994914619570
         H           -1.164791278936    -3.556817946897     4.802136125217     1.007825032230
         H            0.577604238877    -1.737295147000     3.071634543638     1.007825032230
         O            1.366323011311     0.239233658305    -5.543677884930    15.994914619570
         H            0.898060215780     0.176702620813    -3.800439549265     1.007825032230
         H            2.981556968416    -0.660396919885    -5.782282264434     1.007825032230
         O           -5.695781940768     0.090652051964    -0.634632393891    15.994914619570
         H           -5.748773640778     1.863833098087    -1.009608859239     1.007825032230
         H           -4.026711576075    -0.250830907537    -0.168565460117     1.007825032230
         O            5.029653481544    -0.953601156333    -0.772822396267    15.994914619570
         H            5.690084416499    -1.138731955666     0.910379340392     1.007825032230
         H            3.254318147638    -0.709021462820    -0.706024357185     1.007825032230
         O            3.459436580200     3.249994454263     3.311694012259    15.994914619570
         H            4.476558990514     1.770238742545     3.429813233457     1.007825032230
         H            2.219317038451     2.887448607368     1.963062616935     1.007825032230
         O           -0.435999501392    -4.707581788804    -2.018497732825    15.994914619570
         H            1.338436322878    -4.795767748174    -2.601223129502     1.007825032230
         H           -0.464445548758    -3.045138693633    -1.277080695037     1.007825032230

  Charge       = -1
  Multiplicity = 1
  Basis Set: AUG-CC-PVTZ
    Blend: AUG-CC-PVTZ
  Basis Set: (AUG-CC-PVTZ AUX)
    Blend: AUG-CC-PVTZ-JKFIT

    Orbital Energies [Eh]
    ---------------------

    Doubly Occupied:

       1A    -26.015764     2A    -20.426289     3A    -20.425340
       4A    -20.420031     5A    -20.418810     6A    -20.410244
       7A    -20.402263     8A     -1.282897     9A     -1.217575
      10A     -1.214489    11A     -1.206320    12A     -1.197606
      13A     -1.194607    14A     -1.182208    15A     -0.602279
      16A     -0.587765    17A     -0.584119    18A     -0.575589
      19A     -0.572374    20A     -0.542777    21A     -0.462933
      22A     -0.446879    23A     -0.443995    24A     -0.437991
      25A     -0.430475    26A     -0.423383    27A     -0.380240
      28A     -0.373280    29A     -0.369840    30A     -0.369140
      31A     -0.366680    32A     -0.364434    33A     -0.362212
      34A     -0.356912    35A     -0.342220

  @DF-RHF Final Energy:  -555.92766125179321

   => Energetics <=

    Nuclear Repulsion Energy =            354.9154741842065164
    One-Electron Energy =               -1488.8663458904497929
    Two-Electron Energy =                 578.0232104544501226
    Total Energy =                       -555.9276612517932108
 Dipole X            :        -43.2669306           43.4805006            0.2135699
 Dipole Y            :         48.3778645          -47.8113787            0.5664858
 Dipole Z            :         10.3026697           -9.9145615            0.3881082
 Magnitude           :                                                    0.7191288
  Basis Set: (AUG-CC-PVTZ AUX)
    Blend: AUG-CC-PVTZ-RI
	 Reference Energy          =    -555.9276612517932108 [Eh]
	 Singles Energy            =      -0.0000000000000000 [Eh]
	 Same-Spin Energy          =      -0.5018421525168615 [Eh]
	 Opposite-Spin Energy      =      -1.5319014631658709 [Eh]
	 Correlation Energy        =      -2.0337436156827327 [Eh]
	 Total Energy              =    -557.9614048674759488 [Eh]

	 ================> DF-SCS-MP2 Energies <==================
	-----------------------------------------------------------
	 SCS Same-Spin Scale       =       0.3333333333333333 [-]
	 SCS Opposite-Spin Scale   =       1.2000000000000000 [-]
	 SCS Same-Spin Energy      =      -0.1672807175056205 [Eh]
	 SCS Opposite-Spin Energy  =      -1.8382817557990450 [Eh]
	 SCS Correlation Energy    =      -2.0055624733046655 [Eh]
	 SCS Total Energy          =    -557.9332237250978324 [Eh]
	-----------------------------------------------------------

*** Psi4 exiting successfully. Buy a developer a beer!
