                               Psi4 1.8.2 release

  ==> Input File <==

--------------------------------------------------------------------------
MEMORY 60 GB

molecule dimer {
-1 1
F          0.000000     0.000000     0.000000
O          1.083487     1.163503    -2.426510
H          0.943812     0.577349    -3.200577
H          0.539524     0.760717    -1.711888
O         -0.494244    -2.731057     0.347994
H         -0.429507    -1.802030     0.254898
H          0.255994    -3.099428    -0.002083
O         -1.560254     2.216611     0.530057
H         -1.025108     3.040199     0.409244
H         -0.961843     1.486509     0.454221
O          1.214809     0.712872     2.482325
H          0.834328     0.841337     1.604326
H          1.778510    -0.049437     2.410774
O          2.620893    -1.324543     0.095877
H          1.695148    -0.897003     0.074745
H          2.528597    -2.249405    -0.321033
O         -2.624165    -0.409702    -1.323028
H         -3.303734    -0.066172    -0.725785
H         -1.750133    -0.322732    -0.885164

units ang
no_reorient
no_com
symmetry c1
}

set {
basis        aug-cc-pVTZ
scf_type     df
}

energy("mp2")
--------------------------------------------------------------------------

    Molecular point group: c1

    Geometry (in Angstrom), charge = -1, multiplicity = 1:

       Center              X                  Y                   Z               Mass
    ------------   -----------------  -----------------  -----------------  -----------------
         F            0.000000000000     0.000000000000     0.000000000000    18.998403162730
         O            1.083487000000     1.163503000000    -2.426510000000    15.994914619570
         H            0.943812000000     0.577349000000    -3.200577000000     1.007825032230
         H            0.539524000000     0.760717000000    -1.711888000000     1.007825032230
         O           -0.494244000000    -2.731057000000     0.347994000000    15.994914619570
         H           -0.429507000000    -1.802030000000     0.254898000000     1.007825032230
         H            0.255994000000    -3.099428000000    -0.002083000000     1.007825032230
         O           -1.560254000000     2.216611000000     0.530057000000    15.994914619570
         H           -1.025108000000     3.040199000000     0.409244000000     1.007825032230
         H           -0.961843000000     1.486509000000     0.454221000000     1.007825032230
         O            1.214809000000     0.712872000000     2.482325000000    15.994914619570
         H            0.834328000000     0.841337000000     1.604326000000     1.007825032230
         H            1.778510000000    -0.049437000000     2.410774000000     1.007825032230
         O            2.620893000000    -1.324543000000     0.095877000000    15.994914619570
         H            1.695148000000    -0.897003000000     0.074745000000     1.007825032230
         H            2.528597000000    -2.249405000000    -0.321033000000     1.007825032230
         O           -2.624165000000    -0.409702000000    -1.323028000000    15.994914619570
         H           -3.303734000000    -0.066172000000    -0.725785000000     1.007825032230
         H           -1.750133000000    -0.322732000000    -0.885164000000     1.007825032230

  Charge       = -1
  Multiplicity = 1
  Basis Set: AUG-CC-PVTZ
    Blend: AUG-CC-PVTZ
  Basis Set: (AUG-CC-PVTZ AUX)
    Blend: AUG-CC-PVTZ-JKFIT

    Orbital Energies [Eh]
    ---------------------

    Doubly Occupied:

       1A    -26.019642     2A    -20.437759     3A    -20.420598
       4A    -20.411981     5A    -20.410611     6A    -20.408290
       7A    -20.406580     8A     -1.286695     9A     -1.223547
      10A     -1.195478    11A     -1.194313    12A     -1.192783
      13A     -1.187776    14A     -1.187335    15A     -0.601951
      16A     -0.572986    17A     -0.567172    18A     -0.560934
      19A     -0.559522    20A     -0.556072    21A     -0.457263
      22A     -0.442031    23A     -0.437983    24A     -0.433417
      25A     -0.431274    26A     -0.424750    27A     -0.380225
      28A     -0.373186    29A     -0.372566    30A     -0.369909
      31A     -0.364829    32A     -0.359872    33A     -0.356782
      34A     -0.352053    35A     -0.350340

  @DF-RHF Final Energy:  -555.92398446821619

   => Energetics <=

    Nuclear Repulsion Energy =            350.2665868657343253
    One-Electron Energy =               -1479.7641238718649674
    Two-Electron Energy =                 573.5735525379144519
    Total Energy =                       -555.9239844682161902
 Dipole X            :         -5.3435474            5.7254847            0.3819373
 Dipole Y            :          8.4440113           -8.9924961           -0.5484848
 Dipole Z            :          6.9151046           -7.5298065           -0.6147019
 Magnitude           :                                                    0.9080584
  Basis Set: (AUG-CC-PVTZ AUX)
    Blend: AUG-CC-PVTZ-RI
	 Reference Energy          =    -555.9239844682161902 [Eh]
	 Singles Energy            =      -0.0000000000000000 [Eh]
	 Same-Spin Energy          =      -0.5024489653331340 [Eh]
	 Opposite-Spin Energy      =      -1.5337948364780345 [Eh]
	 Correlation Energy        =      -2.0362438018111684 [Eh]
	 Total Energy              =    -557.9602282700274145 [Eh]

	 ================> DF-SCS-MP2 Energies <==================
	-----------------------------------------------------------
	 SCS Same-Spin Scale       =       0.3333333333333333 [-]
	 SCS Opposite-Spin Scale   =       1.2000000000000000 [-]
	 SCS Same-Spin Energy      =      -0.1674829884443780 [Eh]
	 SCS Opposite-Spin Energy  =      -1.8405538037736413 [Eh]
	 SCS Correlation Energy    =      -2.0080367922180193 [Eh]
	 SCS Total Energy          =    -557.9320212604342260 [Eh]
	-----------------------------------------------------------

*** Psi4 exiting successfully. Buy a developer a beer!
