                               Psi4 1.9 release

  ==> Input File <==

--------------------------------------------------------------------------
MEMORY 60 GB

molecule dimer {
-1 1
F      0.000000     0.000000     0.000000
--
0 1
O     -0.057118     2.692147    -0.976789
H      0.731116     3.225705    -0.805216
H      0.209827     1.795792    -0.774691
O      0.486465    -2.407014     1.207865
H      0.269082    -1.731333     0.576353
H      1.158872    -2.081555     1.761537
O      2.743152     0.252394     0.166207
H      2.913143     0.164435    -0.786041
H      1.744815     0.219563     0.238161
O      0.021137     0.684540     2.677081
H     -0.147829     0.359385     1.789779
H     -0.892075     0.785151     3.140166
O     -2.468711    -1.509440    -0.488093
H     -1.632848    -1.124206    -0.091186
H     -2.494928    -1.207266    -1.445224
O     -0.643514    -0.967018    -2.526052
H     -0.484782    -0.177777    -1.974885
H     -0.087133    -1.668284    -2.070015

units ang
no_reorient
no_com
symmetry c1
}

set {
basis        aug-cc-pVTZ
scf_type     df
}

energy("mp2", bsse_type="cp")
--------------------------------------------------------------------------

                               Psi4 1.9 release
    Molecular point group: c1
  Charge       = 0
  Multiplicity = 1
  Basis Set: AUG-CC-PVTZ
    Blend: AUG-CC-PVTZ
  Basis Set: (AUG-CC-PVTZ AUX)
    Blend: AUG-CC-PVTZ-JKFIT
  @DF-RHF Final Energy:  -456.31808236577615
    Total Energy =                       -456.3180823657761493
 Dipole X            :         -2.8315410            3.6633248            0.8317838
 Dipole Y            :         22.3758869          -21.6855862            0.6903007
 Dipole Z            :         -0.4446998            0.0765150           -0.3681848
 Magnitude           :                                                    1.1419017
  Basis Set: (AUG-CC-PVTZ AUX)
    Blend: AUG-CC-PVTZ-RI
	 Reference Energy          =    -456.3180823657761493 [Eh]
	 Singles Energy            =      -0.0000000000000000 [Eh]
	 Same-Spin Energy          =      -0.4172532738103946 [Eh]
	 Opposite-Spin Energy      =      -1.3093582756109257 [Eh]
	 Correlation Energy        =      -1.7266115494213203 [Eh]
	 Total Energy              =    -458.0446939151974561 [Eh]
	 SCS Total Energy          =    -458.0283967211126992 [Eh]
                               Psi4 1.9 release
    Molecular point group: c1
  Multiplicity = 1
  Basis Set: AUG-CC-PVTZ
    Blend: AUG-CC-PVTZ
  Basis Set: (AUG-CC-PVTZ AUX)
    Blend: AUG-CC-PVTZ-JKFIT
  @DF-RHF Final Energy:   -99.45115833181376
    Total Energy =                        -99.4511583318137582
  Basis Set: (AUG-CC-PVTZ AUX)
	 Singles Energy            =      -0.0000000000000000 [Eh]
	 Same-Spin Energy          =      -0.0820863154700142 [Eh]
	 Opposite-Spin Energy      =      -0.2303250681519603 [Eh]
	 Correlation Energy        =      -0.3124113836219745 [Eh]
	 Total Energy              =     -99.7635697154357359 [Eh]
	 SCS Total Energy          =     -99.7549105187527800 [Eh]
                               Psi4 1.9 release
    Molecular point group: c1

    Geometry (in Bohr), charge = -1, multiplicity = 1:

       Center              X                  Y                   Z               Mass
    ------------   -----------------  -----------------  -----------------  -----------------
         F            0.000000000000     0.000000000000     0.000000000000    18.998403162730
         O           -0.107937376834     5.087420519473    -1.845863692360    15.994914619570
         H            1.381609005940     6.095699011520    -1.521637711837     1.007825032230
         H            0.396515563726     3.393555058288    -1.463953821857     1.007825032230
         O            0.919285619621    -4.548597240143     2.282534046526    15.994914619570
         H            0.508491285290    -3.271745201967     1.089149321586     1.007825032230
         H            2.189950694462    -3.933568865077     3.328822489861     1.007825032230
         O            5.183806000502     0.476955535709     0.314085710134    15.994914619570
         H            5.505042434295     0.310737115440    -1.485402213381     1.007825032230
         H            3.297222489591     0.414913937284     0.450059063765     1.007825032230
         O            0.039943141114     1.293593121921     5.058949905667    15.994914619570
         H           -0.279356323400     0.679139223598     3.382192135096     1.007825032230
         H           -1.685777433368     1.483720357129     5.934053728474     1.007825032230
         O           -4.665187672905    -2.852428202811    -0.922362093753    15.994914619570
         H           -3.085635524502    -2.124441448596    -0.172316566476     1.007825032230
         H           -4.714730622736    -2.281402100577    -2.731077549939     1.007825032230
         O           -1.216065217898    -1.827399178388    -4.773546458665    15.994914619570
         H           -0.916105210552    -0.335949841406    -3.731991779275     1.007825032230
         H           -0.164657506490    -3.152599859483    -3.911761425590     1.007825032230

  Charge       = -1
  Multiplicity = 1
  Basis Set: AUG-CC-PVTZ
    Blend: AUG-CC-PVTZ
  Basis Set: (AUG-CC-PVTZ AUX)
    Blend: AUG-CC-PVTZ-JKFIT

    Orbital Energies [Eh]
    ---------------------

    Doubly Occupied:

       1A    -26.020555     2A    -20.430619     3A    -20.424994
       4A    -20.417847     5A    -20.414751     6A    -20.400375
       7A    -20.399648     8A     -1.291212     9A     -1.210352
      10A     -1.202909    11A     -1.201403    12A     -1.190377
      13A     -1.180245    14A     -1.161685    15A     -0.585025
      16A     -0.576102    17A     -0.563707    18A     -0.558147
      19A     -0.552496    20A     -0.533469    21A     -0.456627
      22A     -0.453153    23A     -0.445577    24A     -0.435771
      25A     -0.426457    26A     -0.425329    27A     -0.377988
      28A     -0.373772    29A     -0.369288    30A     -0.366791
      31A     -0.362838    32A     -0.360045    33A     -0.355937
      34A     -0.347156    35A     -0.335453

  @DF-RHF Final Energy:  -555.91725208007949

   => Energetics <=

    Nuclear Repulsion Energy =            358.4342926620953449
    One-Electron Energy =               -1496.2868744123261422
    Two-Electron Energy =                 581.9353296701514182
    Total Energy =                       -555.9172520800794928
 Dipole X            :         -3.0115311            3.6633248            0.6517937
 Dipole Y            :         22.5436169          -21.6855862            0.8580308
 Dipole Z            :         -0.5190821            0.0765150           -0.4425671
 Magnitude           :                                                    1.1648680
  Basis Set: (AUG-CC-PVTZ AUX)
    Blend: AUG-CC-PVTZ-RI
	 Reference Energy          =    -555.9172520800794928 [Eh]
	 Singles Energy            =      -0.0000000000000000 [Eh]
	 Same-Spin Energy          =      -0.5049064367872422 [Eh]
	 Opposite-Spin Energy      =      -1.5378942857376716 [Eh]
	 Correlation Energy        =      -2.0428007225249138 [Eh]
	 Total Energy              =    -557.9600528026044231 [Eh]

	 ================> DF-SCS-MP2 Energies <==================
	-----------------------------------------------------------
	 SCS Same-Spin Scale       =       0.3333333333333333 [-]
	 SCS Opposite-Spin Scale   =       1.2000000000000000 [-]
	 SCS Same-Spin Energy      =      -0.1683021455957474 [Eh]
	 SCS Opposite-Spin Energy  =      -1.8454731428852058 [Eh]
	 SCS Correlation Energy    =      -2.0137752884809532 [Eh]
	 SCS Total Energy          =    -557.9310273685604216 [Eh]
	-----------------------------------------------------------

*** Psi4 exiting successfully. Buy a developer a beer!
