                               Psi4 1.8.2 release

  ==> Input File <==

--------------------------------------------------------------------------
MEMORY 60 GB

molecule dimer {
-1 1
F          0.000000     0.000000     0.000000
O          2.677680    -0.431683     0.982344
H          2.933162     0.317043     0.487951
H          1.708005    -0.404595     0.837210
O          1.576856    -0.040462    -2.621091
H          2.404113    -0.374615    -2.443570
H          1.025387    -0.010348    -1.815928
O         -2.450615     0.572312     1.271496
H         -1.576686     0.559397     0.900868
H         -2.799350     1.506271     1.234932
O          0.318935     2.917871     0.285605
H          0.929765     3.196369     1.002172
H          0.243820     1.921280     0.350783
O         -1.632182    -0.210996    -2.315884
H         -1.059865    -0.204007    -1.547666
H         -1.569097     0.672687    -2.721168
O         -0.849068    -2.951308     0.210019
H         -0.770250    -1.966145     0.116227
H         -0.630310    -3.256642    -0.643333

units ang
no_reorient
no_com
symmetry c1
}

set {
basis        aug-cc-pVTZ
scf_type     df
}

energy("mp2")
--------------------------------------------------------------------------

    Molecular point group: c1

    Geometry (in Angstrom), charge = -1, multiplicity = 1:

       Center              X                  Y                   Z               Mass
    ------------   -----------------  -----------------  -----------------  -----------------
         F            0.000000000000     0.000000000000     0.000000000000    18.998403162730
         O            2.677680000000    -0.431683000000     0.982344000000    15.994914619570
         H            2.933162000000     0.317043000000     0.487951000000     1.007825032230
         H            1.708005000000    -0.404595000000     0.837210000000     1.007825032230
         O            1.576856000000    -0.040462000000    -2.621091000000    15.994914619570
         H            2.404113000000    -0.374615000000    -2.443570000000     1.007825032230
         H            1.025387000000    -0.010348000000    -1.815928000000     1.007825032230
         O           -2.450615000000     0.572312000000     1.271496000000    15.994914619570
         H           -1.576686000000     0.559397000000     0.900868000000     1.007825032230
         H           -2.799350000000     1.506271000000     1.234932000000     1.007825032230
         O            0.318935000000     2.917871000000     0.285605000000    15.994914619570
         H            0.929765000000     3.196369000000     1.002172000000     1.007825032230
         H            0.243820000000     1.921280000000     0.350783000000     1.007825032230
         O           -1.632182000000    -0.210996000000    -2.315884000000    15.994914619570
         H           -1.059865000000    -0.204007000000    -1.547666000000     1.007825032230
         H           -1.569097000000     0.672687000000    -2.721168000000     1.007825032230
         O           -0.849068000000    -2.951308000000     0.210019000000    15.994914619570
         H           -0.770250000000    -1.966145000000     0.116227000000     1.007825032230
         H           -0.630310000000    -3.256642000000    -0.643333000000     1.007825032230

  Charge       = -1
  Multiplicity = 1
  Basis Set: AUG-CC-PVTZ
    Blend: AUG-CC-PVTZ
  Basis Set: (AUG-CC-PVTZ AUX)
    Blend: AUG-CC-PVTZ-JKFIT

    Orbital Energies [Eh]
    ---------------------

    Doubly Occupied:

       1A    -26.013941     2A    -20.436149     3A    -20.420421
       4A    -20.418424     5A    -20.411986     6A    -20.410358
       7A    -20.406310     8A     -1.277259     9A     -1.217274
      10A     -1.212760    11A     -1.202497    12A     -1.198836
      13A     -1.189844    14A     -1.187628    15A     -0.600950
      16A     -0.573087    17A     -0.569095    18A     -0.564229
      19A     -0.562024    20A     -0.557171    21A     -0.459987
      22A     -0.448177    23A     -0.439313    24A     -0.438040
      25A     -0.429721    26A     -0.424298    27A     -0.376900
      28A     -0.373191    29A     -0.370897    30A     -0.368380
      31A     -0.367249    32A     -0.364112    33A     -0.355885
      34A     -0.353548    35A     -0.348265

  @DF-RHF Final Energy:  -555.92816815566846

   => Energetics <=

    Nuclear Repulsion Energy =            343.9415120035278619
    One-Electron Energy =               -1467.0429434492946257
    Two-Electron Energy =                 567.1732632900983617
    Total Energy =                       -555.9281681556684589
 Dipole X            :          4.8449248           -3.8332301            1.0116947
 Dipole Y            :         -0.1750511            1.5166318            1.3415807
 Dipole Z            :         41.3525685          -41.0856884            0.2668800
 Magnitude           :                                                    1.7013494
  Basis Set: (AUG-CC-PVTZ AUX)
    Blend: AUG-CC-PVTZ-RI
	 Reference Energy          =    -555.9281681556684589 [Eh]
	 Singles Energy            =      -0.0000000000000000 [Eh]
	 Same-Spin Energy          =      -0.5010430250003745 [Eh]
	 Opposite-Spin Energy      =      -1.5312106557749086 [Eh]
	 Correlation Energy        =      -2.0322536807752831 [Eh]
	 Total Energy              =    -557.9604218364437429 [Eh]

	 ================> DF-SCS-MP2 Energies <==================
	-----------------------------------------------------------
	 SCS Same-Spin Scale       =       0.3333333333333333 [-]
	 SCS Opposite-Spin Scale   =       1.2000000000000000 [-]
	 SCS Same-Spin Energy      =      -0.1670143416667915 [Eh]
	 SCS Opposite-Spin Energy  =      -1.8374527869298902 [Eh]
	 SCS Correlation Energy    =      -2.0044671285966817 [Eh]
	 SCS Total Energy          =    -557.9326352842651886 [Eh]
	-----------------------------------------------------------

*** Psi4 exiting successfully. Buy a developer a beer!
