                               Psi4 1.8.2 release

  ==> Input File <==

--------------------------------------------------------------------------
MEMORY 60 GB

molecule dimer {
0 1
Gh(F)      0.000000     0.000000     0.000000
Gh(O)     -0.331381     0.249282     2.779760
Gh(H)     -0.320730    -0.003331     1.859362
Gh(H)      0.462546    -0.102102     3.256506
O         -2.816888     0.081699     0.065921
H         -1.864288    -0.047694     0.059424
H         -3.167471    -0.299167     0.838096
Gh(O)      0.698056    -1.115714    -2.643289
Gh(H)      0.021217    -0.824182    -3.293089
Gh(H)      0.590159    -0.734498    -1.765903
Gh(O)     -1.216980     2.387973    -1.254426
Gh(H)     -0.806494     1.629908    -0.785597
Gh(H)     -0.745204     3.218407    -0.927778
Gh(O)      1.187241    -2.160570     1.374618
Gh(H)      1.300436    -2.883562     0.707615
Gh(H)      0.669894    -1.398415     0.902330

units ang
no_reorient
no_com
symmetry c1
}

set {
basis        aug-cc-pVTZ
scf_type     df
}

energy("mp2")
--------------------------------------------------------------------------

    Molecular point group: c1

    Geometry (in Angstrom), charge = 0, multiplicity = 1:

       Center              X                  Y                   Z               Mass
    ------------   -----------------  -----------------  -----------------  -----------------
      Gh(F)           0.000000000000     0.000000000000     0.000000000000    18.998403162730
      Gh(O)          -0.331381000000     0.249282000000     2.779760000000    15.994914619570
      Gh(H)          -0.320730000000    -0.003331000000     1.859362000000     1.007825032230
      Gh(H)           0.462546000000    -0.102102000000     3.256506000000     1.007825032230
         O           -2.816888000000     0.081699000000     0.065921000000    15.994914619570
         H           -1.864288000000    -0.047694000000     0.059424000000     1.007825032230
         H           -3.167471000000    -0.299167000000     0.838096000000     1.007825032230
      Gh(O)           0.698056000000    -1.115714000000    -2.643289000000    15.994914619570
      Gh(H)           0.021217000000    -0.824182000000    -3.293089000000     1.007825032230
      Gh(H)           0.590159000000    -0.734498000000    -1.765903000000     1.007825032230
      Gh(O)          -1.216980000000     2.387973000000    -1.254426000000    15.994914619570
      Gh(H)          -0.806494000000     1.629908000000    -0.785597000000     1.007825032230
      Gh(H)          -0.745204000000     3.218407000000    -0.927778000000     1.007825032230
      Gh(O)           1.187241000000    -2.160570000000     1.374618000000    15.994914619570
      Gh(H)           1.300436000000    -2.883562000000     0.707615000000     1.007825032230
      Gh(H)           0.669894000000    -1.398415000000     0.902330000000     1.007825032230

  Charge       = 0
  Multiplicity = 1
  Basis Set: AUG-CC-PVTZ
    Blend: AUG-CC-PVTZ
  Basis Set: (AUG-CC-PVTZ AUX)
    Blend: AUG-CC-PVTZ-JKFIT

    Orbital Energies [Eh]
    ---------------------

    Doubly Occupied:

       1A    -20.563020     2A     -1.356773     3A     -0.732853
       4A     -0.578436     5A     -0.510079

  @DF-RHF Final Energy:   -76.06049612247558

   => Energetics <=

    Nuclear Repulsion Energy =              9.3012692876379308
    One-Electron Energy =                -123.2412051277506180
    Two-Electron Energy =                  37.8794397176371049
    Total Energy =                        -76.0604961224755698
 Dipole X            :         52.4993094          -52.0938212            0.4054882
 Dipole Y            :         -0.9273811            0.5796376           -0.3477435
 Dipole Z            :         -2.1698259            2.6926481            0.5228222
 Magnitude           :                                                    0.7474552
  Basis Set: (AUG-CC-PVTZ AUX)
    Blend: AUG-CC-PVTZ-RI
	 Reference Energy          =     -76.0604961224755840 [Eh]
	 Singles Energy            =      -0.0000000000000000 [Eh]
	 Same-Spin Energy          =      -0.0681467622148549 [Eh]
	 Opposite-Spin Energy      =      -0.2152859470038980 [Eh]
	 Correlation Energy        =      -0.2834327092187529 [Eh]
	 Total Energy              =     -76.3439288316943419 [Eh]

	 ================> DF-SCS-MP2 Energies <==================
	-----------------------------------------------------------
	 SCS Same-Spin Scale       =       0.3333333333333333 [-]
	 SCS Opposite-Spin Scale   =       1.2000000000000000 [-]
	 SCS Same-Spin Energy      =      -0.0227155874049516 [Eh]
	 SCS Opposite-Spin Energy  =      -0.2583431364046775 [Eh]
	 SCS Correlation Energy    =      -0.2810587238096292 [Eh]
	 SCS Total Energy          =     -76.3415548462852200 [Eh]
	-----------------------------------------------------------

*** Psi4 exiting successfully. Buy a developer a beer!
