                               Psi4 1.8.2 release

  ==> Input File <==

--------------------------------------------------------------------------
MEMORY 60 GB

molecule dimer {
-1 1
F          0.000000     0.000000     0.000000
O         -2.422908     0.436443    -1.499482
H         -1.583421     0.540873    -1.128320
H         -3.067179     0.942256    -0.943592
O         -1.782269    -1.451054     1.490475
H         -1.155844    -0.872265     0.947767
H         -2.169082    -0.755494     2.122596
O          1.567395     0.658397    -2.101903
H          1.968802    -0.162329    -2.355360
H          1.332041     0.650555    -1.175808
O         -0.388868    -1.935975    -2.120670
H          0.312952    -1.834528    -2.762104
H         -0.331122    -1.285311    -1.418455
O          1.307341    -2.198390     1.234552
H          0.748192    -1.574726     0.741286
H          0.754588    -2.889530     1.584528
O         -0.030587     1.864002     2.308776
H          0.162209     1.252108     1.618688
H          0.368553     1.392861     3.076085

units ang
no_reorient
no_com
symmetry c1
}

set {
basis        aug-cc-pVTZ
scf_type     df
}

energy("mp2")
--------------------------------------------------------------------------

    Molecular point group: c1

    Geometry (in Angstrom), charge = -1, multiplicity = 1:

       Center              X                  Y                   Z               Mass
    ------------   -----------------  -----------------  -----------------  -----------------
         F            0.000000000000     0.000000000000     0.000000000000    18.998403162730
         O           -2.422908000000     0.436443000000    -1.499482000000    15.994914619570
         H           -1.583421000000     0.540873000000    -1.128320000000     1.007825032230
         H           -3.067179000000     0.942256000000    -0.943592000000     1.007825032230
         O           -1.782269000000    -1.451054000000     1.490475000000    15.994914619570
         H           -1.155844000000    -0.872265000000     0.947767000000     1.007825032230
         H           -2.169082000000    -0.755494000000     2.122596000000     1.007825032230
         O            1.567395000000     0.658397000000    -2.101903000000    15.994914619570
         H            1.968802000000    -0.162329000000    -2.355360000000     1.007825032230
         H            1.332041000000     0.650555000000    -1.175808000000     1.007825032230
         O           -0.388868000000    -1.935975000000    -2.120670000000    15.994914619570
         H            0.312952000000    -1.834528000000    -2.762104000000     1.007825032230
         H           -0.331122000000    -1.285311000000    -1.418455000000     1.007825032230
         O            1.307341000000    -2.198390000000     1.234552000000    15.994914619570
         H            0.748192000000    -1.574726000000     0.741286000000     1.007825032230
         H            0.754588000000    -2.889530000000     1.584528000000     1.007825032230
         O           -0.030587000000     1.864002000000     2.308776000000    15.994914619570
         H            0.162209000000     1.252108000000     1.618688000000     1.007825032230
         H            0.368553000000     1.392861000000     3.076085000000     1.007825032230

  Charge       = -1
  Multiplicity = 1
  Basis Set: AUG-CC-PVTZ
    Blend: AUG-CC-PVTZ
  Basis Set: (AUG-CC-PVTZ AUX)
    Blend: AUG-CC-PVTZ-JKFIT

    Orbital Energies [Eh]
    ---------------------

    Doubly Occupied:

       1A    -26.011364     2A    -20.432040     3A    -20.410538
       4A    -20.408255     5A    -20.405098     6A    -20.402743
       7A    -20.396473     8A     -1.280092     9A     -1.217455
      10A     -1.200609    11A     -1.193986    12A     -1.188797
      13A     -1.183694    14A     -1.167512    15A     -0.585926
      16A     -0.576831    17A     -0.571097    18A     -0.569386
      19A     -0.561473    20A     -0.528314    21A     -0.461297
      22A     -0.440582    23A     -0.428911    24A     -0.426386
      25A     -0.422444    26A     -0.413624    27A     -0.377178
      28A     -0.372196    29A     -0.367673    30A     -0.365501
      31A     -0.354229    32A     -0.352016    33A     -0.347338
      34A     -0.341500    35A     -0.340623

  @DF-RHF Final Energy:  -555.91843763348515

   => Energetics <=

    Nuclear Repulsion Energy =            356.8469152509013043
    One-Electron Energy =               -1493.3243283721733405
    Two-Electron Energy =                 580.5589754877869382
    Total Energy =                       -555.9184376334851549
 Dipole X            :         32.1452871          -31.4799630            0.6653241
 Dipole Y            :         49.1563189          -48.3923825            0.7639364
 Dipole Z            :         10.8553377           -9.8241287            1.0312090
 Magnitude           :                                                    1.4455611
  Basis Set: (AUG-CC-PVTZ AUX)
    Blend: AUG-CC-PVTZ-RI
	 Reference Energy          =    -555.9184376334851549 [Eh]
	 Singles Energy            =      -0.0000000000000000 [Eh]
	 Same-Spin Energy          =      -0.5029235981824296 [Eh]
	 Opposite-Spin Energy      =      -1.5338677414815212 [Eh]
	 Correlation Energy        =      -2.0367913396639508 [Eh]
	 Total Energy              =    -557.9552289731491328 [Eh]

	 ================> DF-SCS-MP2 Energies <==================
	-----------------------------------------------------------
	 SCS Same-Spin Scale       =       0.3333333333333333 [-]
	 SCS Opposite-Spin Scale   =       1.2000000000000000 [-]
	 SCS Same-Spin Energy      =      -0.1676411993941432 [Eh]
	 SCS Opposite-Spin Energy  =      -1.8406412897778253 [Eh]
	 SCS Correlation Energy    =      -2.0082824891719686 [Eh]
	 SCS Total Energy          =    -557.9267201226571160 [Eh]
	-----------------------------------------------------------

*** Psi4 exiting successfully. Buy a developer a beer!
