                               Psi4 1.8.2 release

  ==> Input File <==

--------------------------------------------------------------------------
MEMORY 60 GB

molecule dimer {
-1 1
F          0.000000     0.000000     0.000000
Gh(O)      0.705041     0.085824     2.845836
Gh(H)      0.718042     0.221437     1.918408
Gh(H)      1.585010     0.151425     3.189331
Gh(O)      1.846277     0.095164    -2.146633
Gh(H)      2.732713    -0.105605    -1.756703
Gh(H)      1.254731     0.091480    -1.406651
Gh(O)     -2.274277     0.593945    -1.273101
Gh(H)     -2.701262    -0.233434    -0.967959
Gh(H)     -1.360007     0.511388    -0.932384
Gh(O)      1.896841    -1.872735     0.495161
Gh(H)      1.093557    -1.387163     0.388915
Gh(H)      2.667595    -1.391507     0.177125
Gh(O)      1.052918     2.610822     1.020224
Gh(H)      0.691159     1.833771     0.662648
Gh(H)      1.468412     2.477073     1.892293

units ang
no_reorient
no_com
symmetry c1
}

set {
basis        aug-cc-pVTZ
scf_type     df
}

energy("mp2")
--------------------------------------------------------------------------

    Molecular point group: c1

    Geometry (in Angstrom), charge = -1, multiplicity = 1:

       Center              X                  Y                   Z               Mass
    ------------   -----------------  -----------------  -----------------  -----------------
         F            0.000000000000     0.000000000000     0.000000000000    18.998403162730
      Gh(O)           0.705041000000     0.085824000000     2.845836000000    15.994914619570
      Gh(H)           0.718042000000     0.221437000000     1.918408000000     1.007825032230
      Gh(H)           1.585010000000     0.151425000000     3.189331000000     1.007825032230
      Gh(O)           1.846277000000     0.095164000000    -2.146633000000    15.994914619570
      Gh(H)           2.732713000000    -0.105605000000    -1.756703000000     1.007825032230
      Gh(H)           1.254731000000     0.091480000000    -1.406651000000     1.007825032230
      Gh(O)          -2.274277000000     0.593945000000    -1.273101000000    15.994914619570
      Gh(H)          -2.701262000000    -0.233434000000    -0.967959000000     1.007825032230
      Gh(H)          -1.360007000000     0.511388000000    -0.932384000000     1.007825032230
      Gh(O)           1.896841000000    -1.872735000000     0.495161000000    15.994914619570
      Gh(H)           1.093557000000    -1.387163000000     0.388915000000     1.007825032230
      Gh(H)           2.667595000000    -1.391507000000     0.177125000000     1.007825032230
      Gh(O)           1.052918000000     2.610822000000     1.020224000000    15.994914619570
      Gh(H)           0.691159000000     1.833771000000     0.662648000000     1.007825032230
      Gh(H)           1.468412000000     2.477073000000     1.892293000000     1.007825032230

  Charge       = -1
  Multiplicity = 1
  Basis Set: AUG-CC-PVTZ
    Blend: AUG-CC-PVTZ
  Basis Set: (AUG-CC-PVTZ AUX)
    Blend: AUG-CC-PVTZ-JKFIT

    Orbital Energies [Eh]
    ---------------------

    Doubly Occupied:

       1A    -25.833579     2A     -1.075899     3A     -0.180940
       4A     -0.180913     5A     -0.180889

  @DF-RHF Final Energy:   -99.45110707396300

   => Energetics <=

    Nuclear Repulsion Energy =              0.0000000000000000
    One-Electron Energy =                -143.9977687558937021
    Two-Electron Energy =                  44.5466616819307006
    Total Energy =                        -99.4511070739630014
 Dipole X            :          0.0001991            0.0000000            0.0001991
 Dipole Y            :          0.0000617            0.0000000            0.0000617
 Dipole Z            :         -0.0000297            0.0000000           -0.0000297
 Magnitude           :                                                    0.0002105
  Basis Set: (AUG-CC-PVTZ AUX)
    Blend: AUG-CC-PVTZ-RI
	 Reference Energy          =     -99.4511070739630014 [Eh]
	 Singles Energy            =      -0.0000000000000000 [Eh]
	 Same-Spin Energy          =      -0.0820337906061852 [Eh]
	 Opposite-Spin Energy      =      -0.2299178882159665 [Eh]
	 Correlation Energy        =      -0.3119516788221518 [Eh]
	 Total Energy              =     -99.7630587527851560 [Eh]

	 ================> DF-SCS-MP2 Energies <==================
	-----------------------------------------------------------
	 SCS Same-Spin Scale       =       0.3333333333333333 [-]
	 SCS Opposite-Spin Scale   =       1.2000000000000000 [-]
	 SCS Same-Spin Energy      =      -0.0273445968687284 [Eh]
	 SCS Opposite-Spin Energy  =      -0.2759014658591598 [Eh]
	 SCS Correlation Energy    =      -0.3032460627278882 [Eh]
	 SCS Total Energy          =     -99.7543531366908951 [Eh]
	-----------------------------------------------------------

*** Psi4 exiting successfully. Buy a developer a beer!
