                               Psi4 1.8.2 release

  ==> Input File <==

--------------------------------------------------------------------------
MEMORY 60 GB

molecule dimer {
-1 1
F          0.000000     0.000000     0.000000
O          2.779088    -0.118830    -0.906542
H          2.861577    -0.902793    -1.461637
H          1.786663    -0.046131    -0.692626
O         -1.341633     2.261718    -1.186341
H         -1.115566     2.466266    -2.140941
H         -0.840947     1.535422    -0.871680
O          1.697414    -0.600219     2.291858
H          2.307780    -1.309760     2.178210
H          0.932232    -0.756904     1.737642
O         -1.062014    -1.090209    -2.427699
H         -1.550385    -0.449677    -2.957604
H         -0.707907    -0.582861    -1.692225
O         -2.678698    -0.614221     0.746640
H         -3.546811    -0.478083     0.421902
H         -2.030516    -0.148316     0.196031
O         -0.115018     2.307183     1.459312
H          0.071014     1.562964     0.988675
H         -1.079045     2.401109     1.137642

units ang
no_reorient
no_com
symmetry c1
}

set {
basis        aug-cc-pVTZ
scf_type     df
}

energy("mp2")
--------------------------------------------------------------------------

    Molecular point group: c1

    Geometry (in Angstrom), charge = -1, multiplicity = 1:

       Center              X                  Y                   Z               Mass
    ------------   -----------------  -----------------  -----------------  -----------------
         F            0.000000000000     0.000000000000     0.000000000000    18.998403162730
         O            2.779088000000    -0.118830000000    -0.906542000000    15.994914619570
         H            2.861577000000    -0.902793000000    -1.461637000000     1.007825032230
         H            1.786663000000    -0.046131000000    -0.692626000000     1.007825032230
         O           -1.341633000000     2.261718000000    -1.186341000000    15.994914619570
         H           -1.115566000000     2.466266000000    -2.140941000000     1.007825032230
         H           -0.840947000000     1.535422000000    -0.871680000000     1.007825032230
         O            1.697414000000    -0.600219000000     2.291858000000    15.994914619570
         H            2.307780000000    -1.309760000000     2.178210000000     1.007825032230
         H            0.932232000000    -0.756904000000     1.737642000000     1.007825032230
         O           -1.062014000000    -1.090209000000    -2.427699000000    15.994914619570
         H           -1.550385000000    -0.449677000000    -2.957604000000     1.007825032230
         H           -0.707907000000    -0.582861000000    -1.692225000000     1.007825032230
         O           -2.678698000000    -0.614221000000     0.746640000000    15.994914619570
         H           -3.546811000000    -0.478083000000     0.421902000000     1.007825032230
         H           -2.030516000000    -0.148316000000     0.196031000000     1.007825032230
         O           -0.115018000000     2.307183000000     1.459312000000    15.994914619570
         H            0.071014000000     1.562964000000     0.988675000000     1.007825032230
         H           -1.079045000000     2.401109000000     1.137642000000     1.007825032230

  Charge       = -1
  Multiplicity = 1
  Basis Set: AUG-CC-PVTZ
    Blend: AUG-CC-PVTZ
  Basis Set: (AUG-CC-PVTZ AUX)
    Blend: AUG-CC-PVTZ-JKFIT

    Orbital Energies [Eh]
    ---------------------

    Doubly Occupied:

       1A    -25.998590     2A    -20.436362     3A    -20.425018
       4A    -20.413437     5A    -20.409825     6A    -20.398179
       7A    -20.382148     8A     -1.264481     9A     -1.218430
      10A     -1.210361    11A     -1.202937    12A     -1.190134
      13A     -1.178512    14A     -1.176899    15A     -0.602891
      16A     -0.584320    17A     -0.577103    18A     -0.567111
      19A     -0.544818    20A     -0.523365    21A     -0.457545
      22A     -0.443592    23A     -0.429545    24A     -0.426207
      25A     -0.423084    26A     -0.417163    27A     -0.383297
      28A     -0.373185    29A     -0.363121    30A     -0.359836
      31A     -0.355394    32A     -0.351148    33A     -0.348317
      34A     -0.339598    35A     -0.327363

  @DF-RHF Final Energy:  -555.90579950294398

   => Energetics <=

    Nuclear Repulsion Energy =            353.3639890456107082
    One-Electron Energy =               -1486.3329380346240214
    Two-Electron Energy =                 577.0631494860693920
    Total Energy =                       -555.9057995029439780
 Dipole X            :         15.5666923          -16.4005532           -0.8338609
 Dipole Y            :        -39.5186587           38.6536147           -0.8650440
 Dipole Z            :          4.4252340           -6.3093930           -1.8841591
 Magnitude           :                                                    2.2346545
  Basis Set: (AUG-CC-PVTZ AUX)
    Blend: AUG-CC-PVTZ-RI
	 Reference Energy          =    -555.9057995029439780 [Eh]
	 Singles Energy            =      -0.0000000000000000 [Eh]
	 Same-Spin Energy          =      -0.5025019258609182 [Eh]
	 Opposite-Spin Energy      =      -1.5334220396019043 [Eh]
	 Correlation Energy        =      -2.0359239654628225 [Eh]
	 Total Energy              =    -557.9417234684068490 [Eh]

	 ================> DF-SCS-MP2 Energies <==================
	-----------------------------------------------------------
	 SCS Same-Spin Scale       =       0.3333333333333333 [-]
	 SCS Opposite-Spin Scale   =       1.2000000000000000 [-]
	 SCS Same-Spin Energy      =      -0.1675006419536394 [Eh]
	 SCS Opposite-Spin Energy  =      -1.8401064475222850 [Eh]
	 SCS Correlation Energy    =      -2.0076070894759246 [Eh]
	 SCS Total Energy          =    -557.9134065924198467 [Eh]
	-----------------------------------------------------------

*** Psi4 exiting successfully. Buy a developer a beer!
