                               Psi4 1.9 release

  ==> Input File <==

--------------------------------------------------------------------------
MEMORY 60 GB

molecule dimer {
-1 1
F      0.000000     0.000000     0.000000
--
0 1
O     -2.200509     1.323634     0.710260
H     -1.503891     0.683674     0.540733
H     -2.315484     1.737995    -0.119068
O     -1.967079    -2.020860    -0.122763
H     -1.318963    -1.305195     0.136157
H     -1.696741    -2.218317    -1.007498
O      0.991465    -1.547512     2.500463
H      0.667023    -1.154030     1.676389
H      0.516695    -1.090567     3.200283
O      2.410120     0.780079    -1.095237
H      3.060268     0.046287    -0.902074
H      1.654642     0.711894    -0.477528
O      1.437300    -2.134809    -0.746584
H      1.223810    -2.927188    -0.210324
H      0.772852    -1.490569    -0.481987
O     -0.357139     2.126165    -1.924590
H     -0.018848     1.313137    -1.513999
H      0.141845     2.856791    -1.535479

units ang
no_reorient
no_com
symmetry c1
}

set {
basis        aug-cc-pVTZ
scf_type     df
}

energy("mp2", bsse_type="cp")
--------------------------------------------------------------------------

                               Psi4 1.9 release
    Molecular point group: c1
  Charge       = 0
  Multiplicity = 1
  Basis Set: AUG-CC-PVTZ
    Blend: AUG-CC-PVTZ
  Basis Set: (AUG-CC-PVTZ AUX)
    Blend: AUG-CC-PVTZ-JKFIT
  @DF-RHF Final Energy:  -456.33155286415450
    Total Energy =                       -456.3315528641545029
 Dipole X            :         -6.5579444            6.9853197            0.4273753
 Dipole Y            :         27.5752489          -27.6325429           -0.0572941
 Dipole Z            :         11.9080922          -11.5689090            0.3391832
 Magnitude           :                                                    0.5486142
  Basis Set: (AUG-CC-PVTZ AUX)
    Blend: AUG-CC-PVTZ-RI
	 Reference Energy          =    -456.3315528641545029 [Eh]
	 Singles Energy            =      -0.0000000000000000 [Eh]
	 Same-Spin Energy          =      -0.4162574881057484 [Eh]
	 Opposite-Spin Energy      =      -1.3063582119486119 [Eh]
	 Correlation Energy        =      -1.7226157000543603 [Eh]
	 Total Energy              =    -458.0541685642088510 [Eh]
	 SCS Total Energy          =    -458.0379352145280905 [Eh]
                               Psi4 1.9 release
    Molecular point group: c1
  Multiplicity = 1
  Basis Set: AUG-CC-PVTZ
    Blend: AUG-CC-PVTZ
  Basis Set: (AUG-CC-PVTZ AUX)
    Blend: AUG-CC-PVTZ-JKFIT
  @DF-RHF Final Energy:   -99.45115342297724
    Total Energy =                        -99.4511534229772423
  Basis Set: (AUG-CC-PVTZ AUX)
	 Singles Energy            =      -0.0000000000000000 [Eh]
	 Same-Spin Energy          =      -0.0820894283480037 [Eh]
	 Opposite-Spin Energy      =      -0.2304433872828676 [Eh]
	 Correlation Energy        =      -0.3125328156308713 [Eh]
	 Total Energy              =     -99.7636862386081162 [Eh]
	 SCS Total Energy          =     -99.7550486304993456 [Eh]
                               Psi4 1.9 release
    Molecular point group: c1

    Geometry (in Bohr), charge = -1, multiplicity = 1:

       Center              X                  Y                   Z               Mass
    ------------   -----------------  -----------------  -----------------  -----------------
         F            0.000000000000     0.000000000000     0.000000000000    18.998403162730
         O           -4.158359346605     2.501305750344     1.342196877868    15.994914619570
         H           -2.841942112541     1.291956619096     1.021837276997     1.007825032230
         H           -4.375630607880     3.284334557415    -0.225005910306     1.007825032230
         O           -3.717240577139    -3.818871937893    -0.231988448340    15.994914619570
         H           -2.492478839612    -2.466461090317     0.257299440064     1.007825032230
         H           -3.206375795835    -4.192011589447    -1.903895291947     1.007825032230
         O            1.873597312977    -2.924373855859     4.725190256841    15.994914619570
         H            1.260490789381    -2.180800640562     3.167916089730     1.007825032230
         H            0.976412040393    -2.060872951462     6.047658393959     1.007825032230
         O            4.554466729488     1.474135666221    -2.069697972468    15.994914619570
         H            5.783068390503     0.087469753169    -1.704672804896     1.007825032230
         H            3.126820215680     1.345284690357    -0.902397137238     1.007825032230
         O            2.716103360121    -4.034204340163    -1.410839289649    15.994914619570
         H            2.312665729597    -5.531583637727    -0.397454757611     1.007825032230
         H            1.460478615512    -2.816767181098    -0.910823426031     1.007825032230
         O           -0.674894898720     4.017869547534    -3.636948003795    15.994914619570
         H           -0.035617558013     2.481469295205    -2.861043464217     1.007825032230
         H            0.268048202266     5.398552587673    -2.901634781392     1.007825032230

  Charge       = -1
  Multiplicity = 1
  Basis Set: AUG-CC-PVTZ
    Blend: AUG-CC-PVTZ
  Basis Set: (AUG-CC-PVTZ AUX)
    Blend: AUG-CC-PVTZ-JKFIT

    Orbital Energies [Eh]
    ---------------------

    Doubly Occupied:

       1A    -26.022173     2A    -20.433469     3A    -20.415337
       4A    -20.414667     5A    -20.412355     6A    -20.408221
       7A    -20.386660     8A     -1.294250     9A     -1.216439
      10A     -1.197763    11A     -1.196727    12A     -1.194671
      13A     -1.185769    14A     -1.177392    15A     -0.585154
      16A     -0.573216    17A     -0.568535    18A     -0.562340
      19A     -0.553579    20A     -0.547050    21A     -0.457123
      22A     -0.454220    23A     -0.443719    24A     -0.435891
      25A     -0.429288    26A     -0.419569    27A     -0.384266
      28A     -0.377927    29A     -0.373987    30A     -0.367759
      31A     -0.361440    32A     -0.358647    33A     -0.354030
      34A     -0.346008    35A     -0.336326

  @DF-RHF Final Energy:  -555.92966659415674

   => Energetics <=

    Nuclear Repulsion Energy =            359.7904340049993266
    One-Electron Energy =               -1498.9482632109527458
    Two-Electron Energy =                 583.2281626117967335
    Total Energy =                       -555.9296665941567426
 Dipole X            :         -6.5418943            6.9853197            0.4434254
 Dipole Y            :         27.8391119          -27.6325429            0.2065689
 Dipole Z            :         12.0399968          -11.5689090            0.4710878
 Magnitude           :                                                    0.6791322
  Basis Set: (AUG-CC-PVTZ AUX)
    Blend: AUG-CC-PVTZ-RI
	 Reference Energy          =    -555.9296665941567426 [Eh]
	 Singles Energy            =      -0.0000000000000000 [Eh]
	 Same-Spin Energy          =      -0.5041546248602774 [Eh]
	 Opposite-Spin Energy      =      -1.5350425375829000 [Eh]
	 Correlation Energy        =      -2.0391971624431773 [Eh]
	 Total Energy              =    -557.9688637565999443 [Eh]

	 ================> DF-SCS-MP2 Energies <==================
	-----------------------------------------------------------
	 SCS Same-Spin Scale       =       0.3333333333333333 [-]
	 SCS Opposite-Spin Scale   =       1.2000000000000000 [-]
	 SCS Same-Spin Energy      =      -0.1680515416200924 [Eh]
	 SCS Opposite-Spin Energy  =      -1.8420510450994798 [Eh]
	 SCS Correlation Energy    =      -2.0101025867195723 [Eh]
	 SCS Total Energy          =    -557.9397691808762829 [Eh]
	-----------------------------------------------------------

*** Psi4 exiting successfully. Buy a developer a beer!
