                               Psi4 1.9 release

  ==> Input File <==

--------------------------------------------------------------------------
MEMORY 60 GB

molecule dimer {
-1 1
F      0.000000     0.000000     0.000000
--
0 1
O     -1.251116    -1.324241     1.858701
H     -0.644750    -1.144723     1.133580
H     -1.241253    -0.487636     2.348342
O     -0.962366    -2.269385    -1.669304
H     -0.867402    -1.542612    -1.090180
H     -1.783634    -2.711967    -1.474651
O      2.005604    -2.181428    -0.280141
H      1.372139    -1.457922    -0.354971
H      2.139229    -2.266705     0.685608
O     -0.128590     2.176756     1.552053
H     -0.060687     1.399457     1.025673
H     -0.705954     2.013435     2.266419
O     -2.791118     0.791832    -0.581116
H     -1.861301     0.475451    -0.426954
H     -2.961146     1.432019     0.088729

units ang
no_reorient
no_com
symmetry c1
}

set {
basis        aug-cc-pVTZ
scf_type     df
}

energy("mp2", bsse_type="cp")
--------------------------------------------------------------------------

                               Psi4 1.9 release
    Molecular point group: c1
  Charge       = 0
  Multiplicity = 1
  Basis Set: AUG-CC-PVTZ
    Blend: AUG-CC-PVTZ
  Basis Set: (AUG-CC-PVTZ AUX)
    Blend: AUG-CC-PVTZ-JKFIT
  @DF-RHF Final Energy:  -380.27768500619908
    Total Energy =                       -380.2776850061990785
 Dipole X            :         59.4371967          -59.7823307           -0.3451340
 Dipole Y            :         51.3020501          -50.5368154            0.7652347
 Dipole Z            :        -19.6265491           21.2464535            1.6199044
 Magnitude           :                                                    1.8244977
  Basis Set: (AUG-CC-PVTZ AUX)
    Blend: AUG-CC-PVTZ-RI
	 Reference Energy          =    -380.2776850061990785 [Eh]
	 Singles Energy            =      -0.0000000000000000 [Eh]
	 Same-Spin Energy          =      -0.3448441411503614 [Eh]
	 Opposite-Spin Energy      =      -1.0843931458330791 [Eh]
	 Correlation Energy        =      -1.4292372869834404 [Eh]
	 Total Energy              =    -381.7069222931825152 [Eh]
	 SCS Total Energy          =    -381.6939048282488898 [Eh]
                               Psi4 1.9 release
    Molecular point group: c1
  Multiplicity = 1
  Basis Set: AUG-CC-PVTZ
    Blend: AUG-CC-PVTZ
  Basis Set: (AUG-CC-PVTZ AUX)
    Blend: AUG-CC-PVTZ-JKFIT
  @DF-RHF Final Energy:   -99.45111002882804
    Total Energy =                        -99.4511100288280403
  Basis Set: (AUG-CC-PVTZ AUX)
	 Singles Energy            =      -0.0000000000000000 [Eh]
	 Same-Spin Energy          =      -0.0820300276562854 [Eh]
	 Opposite-Spin Energy      =      -0.2299246459936578 [Eh]
	 Correlation Energy        =      -0.3119546736499432 [Eh]
	 Total Energy              =     -99.7630647024779904 [Eh]
	 SCS Total Energy          =     -99.7543629465725274 [Eh]
                               Psi4 1.9 release
    Molecular point group: c1

    Geometry (in Bohr), charge = -1, multiplicity = 1:

       Center              X                  Y                   Z               Mass
    ------------   -----------------  -----------------  -----------------  -----------------
         F            0.000000000000     0.000000000000     0.000000000000    18.998403162730
         O           -2.364266591178    -2.502452814102     3.512435839115    15.994914619570
         H           -1.218400919389    -2.163212959512     2.142155741296     1.007825032230
         H           -2.345628222403    -0.921498488914     4.437723228910     1.007825032230
         O           -1.818608172452    -4.288516123222    -3.154527380131    15.994914619570
         H           -1.639152220674    -2.915114197845    -2.060141627452     1.007825032230
         H           -3.370579768055    -5.124874891279    -2.786686520633     1.007825032230
         O            3.790042276123    -4.122301482405    -0.529389766512    15.994914619570
         H            2.592966916060    -2.755073292280    -0.670797972480     1.007825032230
         H            4.042556929637    -4.283451657206     1.295611349423     1.007825032230
         O           -0.242999882473     4.113472681947     2.932955102195    15.994914619570
         H           -0.114681809376     2.644590454355     1.938241064277     1.007825032230
         H           -1.334059717171     3.804840721411     4.282911195534     1.007825032230
         O           -5.274448603836     1.496345617374    -1.098150087122    15.994914619570
         H           -3.517349127041     0.898472176075    -0.806826128169     1.007825032230
         H           -5.595754957495     2.706123716452     0.167673509386     1.007825032230

  Charge       = -1
  Multiplicity = 1
  Basis Set: AUG-CC-PVTZ
    Blend: AUG-CC-PVTZ
  Basis Set: (AUG-CC-PVTZ AUX)
    Blend: AUG-CC-PVTZ-JKFIT

    Orbital Energies [Eh]
    ---------------------

    Doubly Occupied:

       1A    -25.994089     2A    -20.408599     3A    -20.406702
       4A    -20.405341     5A    -20.403870     6A    -20.402857
       7A     -1.262884     8A     -1.208166     9A     -1.200566
      10A     -1.191650    11A     -1.188636    12A     -1.185913
      13A     -0.590804    14A     -0.579577    15A     -0.561162
      16A     -0.554147    17A     -0.547753    18A     -0.449079
      19A     -0.436351    20A     -0.430569    21A     -0.427658
      22A     -0.424491    23A     -0.363116    24A     -0.361228
      25A     -0.359095    26A     -0.351526    27A     -0.349464
      28A     -0.346145    29A     -0.344047    30A     -0.338991

  @DF-RHF Final Energy:  -479.85908490563634

   => Energetics <=

    Nuclear Repulsion Energy =            267.9444377084224129
    One-Electron Energy =               -1209.4580910302738630
    Two-Electron Energy =                 461.6545684162151701
    Total Energy =                       -479.8590849056363368
 Dipole X            :         59.9507151          -59.7823307            0.1683844
 Dipole Y            :         51.5443862          -50.5368154            1.0075709
 Dipole Z            :        -20.0448011           21.2464535            1.2016524
 Magnitude           :                                                    1.5771876
  Basis Set: (AUG-CC-PVTZ AUX)
    Blend: AUG-CC-PVTZ-RI
	 Reference Energy          =    -479.8590849056363368 [Eh]
	 Singles Energy            =      -0.0000000000000000 [Eh]
	 Same-Spin Energy          =      -0.4315298131408606 [Eh]
	 Opposite-Spin Energy      =      -1.3127568566874788 [Eh]
	 Correlation Energy        =      -1.7442866698283392 [Eh]
	 Total Energy              =    -481.6033715754646778 [Eh]

	 ================> DF-SCS-MP2 Energies <==================
	-----------------------------------------------------------
	 SCS Same-Spin Scale       =       0.3333333333333333 [-]
	 SCS Opposite-Spin Scale   =       1.2000000000000000 [-]
	 SCS Same-Spin Energy      =      -0.1438432710469535 [Eh]
	 SCS Opposite-Spin Energy  =      -1.5753082280249744 [Eh]
	 SCS Correlation Energy    =      -1.7191514990719279 [Eh]
	 SCS Total Energy          =    -481.5782364047082638 [Eh]
	-----------------------------------------------------------

*** Psi4 exiting successfully. Buy a developer a beer!
