                               Psi4 1.8.2 release

  ==> Input File <==

--------------------------------------------------------------------------
MEMORY 60 GB

molecule dimer {
-1 1
F          0.000000     0.000000     0.000000
O         -0.286622    -1.514715     2.435167
H         -0.402152    -1.045189     1.569146
H          0.608407    -1.883599     2.387395
O         -2.461253    -1.232960    -1.069186
H         -1.653607    -1.018445    -0.593070
H         -2.664912    -0.521743    -1.698566
O          2.627690     1.043131    -0.166942
H          2.582567     0.776855    -1.104331
H          1.672597     0.976927     0.122659
O          0.537003    -1.242099    -2.661767
H          0.000214    -0.978346    -3.428741
H          0.354593    -0.727473    -1.893451
O         -1.468053     1.104063     2.129759
H         -0.967829     0.901328     1.361246
H         -2.109567     0.364225     2.248548
O          1.926326    -2.436781     0.093481
H          2.827091    -2.287496     0.347949
H          1.352146    -1.641731     0.155321
O         -0.916969     2.226321    -1.648781
H         -1.489975     1.706670    -2.249404
H         -0.532336     1.455566    -1.146943

units ang
no_reorient
no_com
symmetry c1
}

set {
basis        aug-cc-pVTZ
scf_type     df
}

energy("mp2")
--------------------------------------------------------------------------

    Molecular point group: c1

    Geometry (in Angstrom), charge = -1, multiplicity = 1:

       Center              X                  Y                   Z               Mass
    ------------   -----------------  -----------------  -----------------  -----------------
         F            0.000000000000     0.000000000000     0.000000000000    18.998403162730
         O           -0.286622000000    -1.514715000000     2.435167000000    15.994914619570
         H           -0.402152000000    -1.045189000000     1.569146000000     1.007825032230
         H            0.608407000000    -1.883599000000     2.387395000000     1.007825032230
         O           -2.461253000000    -1.232960000000    -1.069186000000    15.994914619570
         H           -1.653607000000    -1.018445000000    -0.593070000000     1.007825032230
         H           -2.664912000000    -0.521743000000    -1.698566000000     1.007825032230
         O            2.627690000000     1.043131000000    -0.166942000000    15.994914619570
         H            2.582567000000     0.776855000000    -1.104331000000     1.007825032230
         H            1.672597000000     0.976927000000     0.122659000000     1.007825032230
         O            0.537003000000    -1.242099000000    -2.661767000000    15.994914619570
         H            0.000214000000    -0.978346000000    -3.428741000000     1.007825032230
         H            0.354593000000    -0.727473000000    -1.893451000000     1.007825032230
         O           -1.468053000000     1.104063000000     2.129759000000    15.994914619570
         H           -0.967829000000     0.901328000000     1.361246000000     1.007825032230
         H           -2.109567000000     0.364225000000     2.248548000000     1.007825032230
         O            1.926326000000    -2.436781000000     0.093481000000    15.994914619570
         H            2.827091000000    -2.287496000000     0.347949000000     1.007825032230
         H            1.352146000000    -1.641731000000     0.155321000000     1.007825032230
         O           -0.916969000000     2.226321000000    -1.648781000000    15.994914619570
         H           -1.489975000000     1.706670000000    -2.249404000000     1.007825032230
         H           -0.532336000000     1.455566000000    -1.146943000000     1.007825032230

  Charge       = -1
  Multiplicity = 1
  Basis Set: AUG-CC-PVTZ
    Blend: AUG-CC-PVTZ
  Basis Set: (AUG-CC-PVTZ AUX)
    Blend: AUG-CC-PVTZ-JKFIT

    Orbital Energies [Eh]
    ---------------------

    Doubly Occupied:

       1A    -26.038216     2A    -20.443611     3A    -20.436259
       4A    -20.434016     5A    -20.426193     6A    -20.424734
       7A    -20.414172     8A    -20.405309     9A     -1.304498
      10A     -1.220981    11A     -1.217416    12A     -1.214902
      13A     -1.208394    14A     -1.196332    15A     -1.195062
      16A     -1.187329    17A     -0.609852    18A     -0.596980
      19A     -0.595490    20A     -0.566666    21A     -0.564725
      22A     -0.557242    23A     -0.555966    24A     -0.476143
      25A     -0.458664    26A     -0.449389    27A     -0.443931
      28A     -0.442560    29A     -0.433887    30A     -0.428906
      31A     -0.392415    32A     -0.390316    33A     -0.386807
      34A     -0.384246    35A     -0.381128    36A     -0.373502
      37A     -0.371833    38A     -0.365317    39A     -0.362697
      40A     -0.342240

  @DF-RHF Final Energy:  -631.98493125224468

   => Energetics <=

    Nuclear Repulsion Energy =            453.9450976533303219
    One-Electron Energy =               -1792.4633991525906822
    Two-Electron Energy =                 706.5333702470156823
    Total Energy =                       -631.9849312522446780
 Dipole X            :          1.3429778           -1.4320099           -0.0890321
 Dipole Y            :         38.6663564          -38.4498247            0.2165317
 Dipole Z            :         19.5818753          -20.8406443           -1.2587690
 Magnitude           :                                                    1.2803562
  Basis Set: (AUG-CC-PVTZ AUX)
    Blend: AUG-CC-PVTZ-RI
	 Reference Energy          =    -631.9849312522446780 [Eh]
	 Singles Energy            =      -0.0000000000000000 [Eh]
	 Same-Spin Energy          =      -0.5737207959121172 [Eh]
	 Opposite-Spin Energy      =      -1.7543231865153761 [Eh]
	 Correlation Energy        =      -2.3280439824274932 [Eh]
	 Total Energy              =    -634.3129752346721943 [Eh]

	 ================> DF-SCS-MP2 Energies <==================
	-----------------------------------------------------------
	 SCS Same-Spin Scale       =       0.3333333333333333 [-]
	 SCS Opposite-Spin Scale   =       1.2000000000000000 [-]
	 SCS Same-Spin Energy      =      -0.1912402653040391 [Eh]
	 SCS Opposite-Spin Energy  =      -2.1051878238184512 [Eh]
	 SCS Correlation Energy    =      -2.2964280891224904 [Eh]
	 SCS Total Energy          =    -634.2813593413671924 [Eh]
	-----------------------------------------------------------

*** Psi4 exiting successfully. Buy a developer a beer!
