                               Psi4 1.9 release

  ==> Input File <==

--------------------------------------------------------------------------
MEMORY 60 GB

molecule dimer {
-1 1
F      0.000000     0.000000     0.000000
--
0 1
O      0.201552     2.379442     1.269283
H      1.013565     2.687047     0.939558
H      0.155342     1.525594     0.845189
O      0.236368    -1.899810    -2.155158
H      0.057747    -2.671067    -1.620418
H      0.039340    -1.225771    -1.496507
O     -1.902528    -1.173327     1.751797
H     -2.408246    -0.467276     2.231861
H     -1.241179    -0.782759     1.178792
O     -2.154508     1.404000    -1.305374
H     -1.492883     0.912606    -0.734862
H     -1.805542     2.277133    -1.424237
O      1.499428    -1.231164     1.872563
H      0.915236    -1.644768     2.531361
H      1.009227    -0.739951     1.204952

units ang
no_reorient
no_com
symmetry c1
}

set {
basis        aug-cc-pVTZ
scf_type     df
}

energy("mp2", bsse_type="cp")
--------------------------------------------------------------------------

                               Psi4 1.9 release
    Molecular point group: c1
  Charge       = 0
  Multiplicity = 1
  Basis Set: AUG-CC-PVTZ
    Blend: AUG-CC-PVTZ
  Basis Set: (AUG-CC-PVTZ AUX)
    Blend: AUG-CC-PVTZ-JKFIT
  @DF-RHF Final Energy:  -380.27810952297989
    Total Energy =                       -380.2781095229798893
 Dipole X            :         39.3855099          -39.1454820            0.2400278
 Dipole Y            :          8.7616839           -8.1184222            0.6432617
 Dipole Z            :        -27.9802148           28.5737494            0.5935346
 Magnitude           :                                                    0.9075694
  Basis Set: (AUG-CC-PVTZ AUX)
    Blend: AUG-CC-PVTZ-RI
	 Reference Energy          =    -380.2781095229798893 [Eh]
	 Singles Energy            =      -0.0000000000000000 [Eh]
	 Same-Spin Energy          =      -0.3447228284125584 [Eh]
	 Opposite-Spin Energy      =      -1.0852681032110236 [Eh]
	 Correlation Energy        =      -1.4299909316235819 [Eh]
	 Total Energy              =    -381.7081004546034819 [Eh]
	 SCS Total Energy          =    -381.6953388563039766 [Eh]
                               Psi4 1.9 release
    Molecular point group: c1
  Multiplicity = 1
  Basis Set: AUG-CC-PVTZ
    Blend: AUG-CC-PVTZ
  Basis Set: (AUG-CC-PVTZ AUX)
    Blend: AUG-CC-PVTZ-JKFIT
  @DF-RHF Final Energy:   -99.45111771277811
    Total Energy =                        -99.4511177127780996
  Basis Set: (AUG-CC-PVTZ AUX)
	 Singles Energy            =      -0.0000000000000000 [Eh]
	 Same-Spin Energy          =      -0.0820709097177161 [Eh]
	 Opposite-Spin Energy      =      -0.2302598381557246 [Eh]
	 Correlation Energy        =      -0.3123307478734407 [Eh]
	 Total Energy              =     -99.7634484606515599 [Eh]
	 SCS Total Energy          =     -99.7547864884708844 [Eh]
                               Psi4 1.9 release
    Molecular point group: c1

    Geometry (in Bohr), charge = -1, multiplicity = 1:

       Center              X                  Y                   Z               Mass
    ------------   -----------------  -----------------  -----------------  -----------------
         F            0.000000000000     0.000000000000     0.000000000000    18.998403162730
         O            0.380878080038     4.496493711412     2.398597245699    15.994914619570
         H            1.915360260350     5.077782916233     1.775507298983     1.007825032230
         H            0.293553835781     2.882954838642     1.597175734250     1.007825032230
         O            0.446670784822    -3.590120590406    -4.072658377089    15.994914619570
         H            0.109126014567    -5.047585092748    -3.062146228762     1.007825032230
         H            0.074341825776    -2.316371482529    -2.827988374831     1.007825032230
         O           -3.595256866015    -2.217266685605     3.310416557399    15.994914619570
         H           -4.550925382729    -0.883023664999     4.217606040090     1.007825032230
         H           -2.345488382670    -1.479200132237     2.227594038881     1.007825032230
         O           -4.071430055108     2.653175480143    -2.466799351293    15.994914619570
         H           -2.821140007352     1.724575400450    -1.388687920006     1.007825032230
         H           -3.411979888011     4.303157721242    -2.691417867744     1.007825032230
         O            2.833508264843    -2.326562775523     3.538631222666    15.994914619570
         H            1.729545380160    -3.108161059917     4.783579014665     1.007825032230
         H            1.907162628417    -1.398304736259     2.277029274323     1.007825032230

  Charge       = -1
  Multiplicity = 1
  Basis Set: AUG-CC-PVTZ
    Blend: AUG-CC-PVTZ
  Basis Set: (AUG-CC-PVTZ AUX)
    Blend: AUG-CC-PVTZ-JKFIT

    Orbital Energies [Eh]
    ---------------------

    Doubly Occupied:

       1A    -26.007120     2A    -20.414370     3A    -20.404708
       4A    -20.404032     5A    -20.402633     6A    -20.391671
       7A     -1.276603     8A     -1.206131     9A     -1.194061
      10A     -1.190669    11A     -1.183504    12A     -1.173671
      13A     -0.573205    14A     -0.566722    15A     -0.565091
      16A     -0.552291    17A     -0.543435    18A     -0.451351
      19A     -0.440054    20A     -0.430151    21A     -0.429050
      22A     -0.411438    23A     -0.365322    24A     -0.362220
      25A     -0.358847    26A     -0.357128    27A     -0.354879
      28A     -0.348407    29A     -0.345401    30A     -0.337636

  @DF-RHF Final Energy:  -479.86846635438917

   => Energetics <=

    Nuclear Repulsion Energy =            263.6354799197008560
    One-Electron Energy =               -1200.9242828989190457
    Two-Electron Energy =                 457.4203366248290195
    Total Energy =                       -479.8684663543891702
 Dipole X            :         39.6503590          -39.1454820            0.5048770
 Dipole Y            :          8.7527461           -8.1184222            0.6343240
 Dipole Z            :        -28.3362485           28.5737494            0.2375009
 Magnitude           :                                                    0.8447925
  Basis Set: (AUG-CC-PVTZ AUX)
    Blend: AUG-CC-PVTZ-RI
	 Reference Energy          =    -479.8684663543891702 [Eh]
	 Singles Energy            =      -0.0000000000000000 [Eh]
	 Same-Spin Energy          =      -0.4320574368421895 [Eh]
	 Opposite-Spin Energy      =      -1.3140156733255752 [Eh]
	 Correlation Energy        =      -1.7460731101677647 [Eh]
	 Total Energy              =    -481.6145394645569127 [Eh]

	 ================> DF-SCS-MP2 Energies <==================
	-----------------------------------------------------------
	 SCS Same-Spin Scale       =       0.3333333333333333 [-]
	 SCS Opposite-Spin Scale   =       1.2000000000000000 [-]
	 SCS Same-Spin Energy      =      -0.1440191456140631 [Eh]
	 SCS Opposite-Spin Energy  =      -1.5768188079906902 [Eh]
	 SCS Correlation Energy    =      -1.7208379536047533 [Eh]
	 SCS Total Energy          =    -481.5893043079939275 [Eh]
	-----------------------------------------------------------

*** Psi4 exiting successfully. Buy a developer a beer!
