                               Psi4 1.8.2 release

  ==> Input File <==

--------------------------------------------------------------------------
MEMORY 60 GB

molecule dimer {
0 1
Gh(F)      0.000000     0.000000     0.000000
Gh(O)      0.267898     1.190999     2.490967
Gh(H)      0.231648     0.918893     1.585672
Gh(H)      1.150368     0.873921     2.774655
Gh(O)      1.989861     1.908491    -0.696683
Gh(H)      2.519841     1.786306     0.028333
Gh(H)      1.155472     1.444242    -0.489303
O         -0.232516     0.521451    -2.764163
H         -0.239694     0.176774    -1.911270
H         -0.781563    -0.064568    -3.269363
Gh(O)      2.028485    -1.193703     1.417716
Gh(H)      1.489509    -1.545613     2.154059
Gh(H)      1.368958    -0.882699     0.721738

units ang
no_reorient
no_com
symmetry c1
}

set {
basis        aug-cc-pVTZ
scf_type     df
}

energy("mp2")
--------------------------------------------------------------------------

    Molecular point group: c1

    Geometry (in Angstrom), charge = 0, multiplicity = 1:

       Center              X                  Y                   Z               Mass
    ------------   -----------------  -----------------  -----------------  -----------------
      Gh(F)           0.000000000000     0.000000000000     0.000000000000    18.998403162730
      Gh(O)           0.267898000000     1.190999000000     2.490967000000    15.994914619570
      Gh(H)           0.231648000000     0.918893000000     1.585672000000     1.007825032230
      Gh(H)           1.150368000000     0.873921000000     2.774655000000     1.007825032230
      Gh(O)           1.989861000000     1.908491000000    -0.696683000000    15.994914619570
      Gh(H)           2.519841000000     1.786306000000     0.028333000000     1.007825032230
      Gh(H)           1.155472000000     1.444242000000    -0.489303000000     1.007825032230
         O           -0.232516000000     0.521451000000    -2.764163000000    15.994914619570
         H           -0.239694000000     0.176774000000    -1.911270000000     1.007825032230
         H           -0.781563000000    -0.064568000000    -3.269363000000     1.007825032230
      Gh(O)           2.028485000000    -1.193703000000     1.417716000000    15.994914619570
      Gh(H)           1.489509000000    -1.545613000000     2.154059000000     1.007825032230
      Gh(H)           1.368958000000    -0.882699000000     0.721738000000     1.007825032230

  Charge       = 0
  Multiplicity = 1
  Basis Set: AUG-CC-PVTZ
    Blend: AUG-CC-PVTZ
  Basis Set: (AUG-CC-PVTZ AUX)
    Blend: AUG-CC-PVTZ-JKFIT

    Orbital Energies [Eh]
    ---------------------

    Doubly Occupied:

       1A    -20.562806     2A     -1.365686     3A     -0.731535
       4A     -0.588400     5A     -0.512223

  @DF-RHF Final Energy:   -76.06059808848875

   => Energetics <=

    Nuclear Repulsion Energy =              9.4211107532920249
    One-Electron Energy =                -123.4421146204726938
    Two-Electron Energy =                  37.9604057786919071
    Total Energy =                        -76.0605980884887600
 Dipole X            :          5.0707204           -5.4450285           -0.3743081
 Dipole Y            :         -8.7238151            8.0952352           -0.6285798
 Dipole Z            :         51.8179392          -51.5780658            0.2398734
 Magnitude           :                                                    0.7699080
  Basis Set: (AUG-CC-PVTZ AUX)
    Blend: AUG-CC-PVTZ-RI
	 Reference Energy          =     -76.0605980884887458 [Eh]
	 Singles Energy            =      -0.0000000000000000 [Eh]
	 Same-Spin Energy          =      -0.0679842514900423 [Eh]
	 Opposite-Spin Energy      =      -0.2146389196633829 [Eh]
	 Correlation Energy        =      -0.2826231711534252 [Eh]
	 Total Energy              =     -76.3432212596421778 [Eh]

	 ================> DF-SCS-MP2 Energies <==================
	-----------------------------------------------------------
	 SCS Same-Spin Scale       =       0.3333333333333333 [-]
	 SCS Opposite-Spin Scale   =       1.2000000000000000 [-]
	 SCS Same-Spin Energy      =      -0.0226614171633474 [Eh]
	 SCS Opposite-Spin Energy  =      -0.2575667035960594 [Eh]
	 SCS Correlation Energy    =      -0.2802281207594069 [Eh]
	 SCS Total Energy          =     -76.3408262092481493 [Eh]
	-----------------------------------------------------------

*** Psi4 exiting successfully. Buy a developer a beer!
