                               Psi4 1.8.2 release

  ==> Input File <==

--------------------------------------------------------------------------
MEMORY 60 GB

molecule dimer {
0 1
Gh(F)      0.000000     0.000000     0.000000
Gh(O)     -2.514233    -0.838589    -0.868966
Gh(H)     -2.777531    -0.864339    -1.789497
Gh(H)     -1.566044    -0.593973    -0.828615
Gh(O)     -0.782480     1.801604    -2.000038
Gh(H)     -1.732362     1.945839    -1.851762
Gh(H)     -0.584653     1.094475    -1.373167
O         -0.590907     2.720783     1.336329
H          0.319764     2.744529     0.971711
H         -0.949250     1.810129     1.212275
Gh(O)      2.242812     1.445091    -0.026596
Gh(H)      1.411790     1.013484    -0.212396
Gh(H)      2.372371     1.996144    -0.840441
Gh(O)      1.553258    -1.647504    -1.312027
Gh(H)      1.527789    -2.312558    -0.611092
Gh(H)      1.024731    -0.930018    -0.897315

units ang
no_reorient
no_com
symmetry c1
}

set {
basis        aug-cc-pVTZ
scf_type     df
}

energy("mp2")
--------------------------------------------------------------------------

    Molecular point group: c1

    Geometry (in Angstrom), charge = 0, multiplicity = 1:

       Center              X                  Y                   Z               Mass
    ------------   -----------------  -----------------  -----------------  -----------------
      Gh(F)           0.000000000000     0.000000000000     0.000000000000    18.998403162730
      Gh(O)          -2.514233000000    -0.838589000000    -0.868966000000    15.994914619570
      Gh(H)          -2.777531000000    -0.864339000000    -1.789497000000     1.007825032230
      Gh(H)          -1.566044000000    -0.593973000000    -0.828615000000     1.007825032230
      Gh(O)          -0.782480000000     1.801604000000    -2.000038000000    15.994914619570
      Gh(H)          -1.732362000000     1.945839000000    -1.851762000000     1.007825032230
      Gh(H)          -0.584653000000     1.094475000000    -1.373167000000     1.007825032230
         O           -0.590907000000     2.720783000000     1.336329000000    15.994914619570
         H            0.319764000000     2.744529000000     0.971711000000     1.007825032230
         H           -0.949250000000     1.810129000000     1.212275000000     1.007825032230
      Gh(O)           2.242812000000     1.445091000000    -0.026596000000    15.994914619570
      Gh(H)           1.411790000000     1.013484000000    -0.212396000000     1.007825032230
      Gh(H)           2.372371000000     1.996144000000    -0.840441000000     1.007825032230
      Gh(O)           1.553258000000    -1.647504000000    -1.312027000000    15.994914619570
      Gh(H)           1.527789000000    -2.312558000000    -0.611092000000     1.007825032230
      Gh(H)           1.024731000000    -0.930018000000    -0.897315000000     1.007825032230

  Charge       = 0
  Multiplicity = 1
  Basis Set: AUG-CC-PVTZ
    Blend: AUG-CC-PVTZ
  Basis Set: (AUG-CC-PVTZ AUX)
    Blend: AUG-CC-PVTZ-JKFIT

    Orbital Energies [Eh]
    ---------------------

    Doubly Occupied:

       1A    -20.570011     2A     -1.337741     3A     -0.710097
       4A     -0.572671     5A     -0.507036

  @DF-RHF Final Energy:   -76.05731185221364

   => Energetics <=

    Nuclear Repulsion Energy =              8.9378557253293902
    One-Electron Energy =                -122.5952197290354775
    Two-Electron Energy =                  37.6000521514924557
    Total Energy =                        -76.0573118522136440
 Dipole X            :         10.4887761          -10.1227753            0.3660008
 Dipole Y            :        -50.3256813           49.7393339           -0.5863474
 Dipole Z            :        -24.6529084           24.3295020           -0.3234064
 Magnitude           :                                                    0.7631196
  Basis Set: (AUG-CC-PVTZ AUX)
    Blend: AUG-CC-PVTZ-RI
	 Reference Energy          =     -76.0573118522136440 [Eh]
	 Singles Energy            =      -0.0000000000000000 [Eh]
	 Same-Spin Energy          =      -0.0687907459171690 [Eh]
	 Opposite-Spin Energy      =      -0.2169991846071557 [Eh]
	 Correlation Energy        =      -0.2857899305243248 [Eh]
	 Total Energy              =     -76.3431017827379748 [Eh]

	 ================> DF-SCS-MP2 Energies <==================
	-----------------------------------------------------------
	 SCS Same-Spin Scale       =       0.3333333333333333 [-]
	 SCS Opposite-Spin Scale   =       1.2000000000000000 [-]
	 SCS Same-Spin Energy      =      -0.0229302486390563 [Eh]
	 SCS Opposite-Spin Energy  =      -0.2603990215285868 [Eh]
	 SCS Correlation Energy    =      -0.2833292701676432 [Eh]
	 SCS Total Energy          =     -76.3406411223812853 [Eh]
	-----------------------------------------------------------

*** Psi4 exiting successfully. Buy a developer a beer!
