                               Psi4 1.8.2 release

  ==> Input File <==

--------------------------------------------------------------------------
MEMORY 60 GB

molecule dimer {
-1 1
F          0.000000     0.000000     0.000000
O         -0.080310    -1.847083     2.022993
H          0.457360    -2.626850     1.740577
H          0.018614    -1.169433     1.294985
O          2.837448     0.327763    -0.543030
H          1.880268     0.381752    -0.427617
H          3.126366     1.066889    -0.006077
O         -2.870208     0.106987    -0.242889
H         -1.947930     0.074098    -0.240484
H         -3.032889     0.359006     0.686018
O         -0.565191    -2.497966    -1.410818
H         -0.439203    -1.753445    -0.804045
H         -1.324202    -3.032814    -1.079231
O          0.554201     1.968228     1.715688
H         -0.376763     2.281724     1.957626
H          0.367929     1.318127     1.000096

units ang
no_reorient
no_com
symmetry c1
}

set {
basis        aug-cc-pVTZ
scf_type     df
}

energy("mp2")
--------------------------------------------------------------------------

    Molecular point group: c1

    Geometry (in Angstrom), charge = -1, multiplicity = 1:

       Center              X                  Y                   Z               Mass
    ------------   -----------------  -----------------  -----------------  -----------------
         F            0.000000000000     0.000000000000     0.000000000000    18.998403162730
         O           -0.080310000000    -1.847083000000     2.022993000000    15.994914619570
         H            0.457360000000    -2.626850000000     1.740577000000     1.007825032230
         H            0.018614000000    -1.169433000000     1.294985000000     1.007825032230
         O            2.837448000000     0.327763000000    -0.543030000000    15.994914619570
         H            1.880268000000     0.381752000000    -0.427617000000     1.007825032230
         H            3.126366000000     1.066889000000    -0.006077000000     1.007825032230
         O           -2.870208000000     0.106987000000    -0.242889000000    15.994914619570
         H           -1.947930000000     0.074098000000    -0.240484000000     1.007825032230
         H           -3.032889000000     0.359006000000     0.686018000000     1.007825032230
         O           -0.565191000000    -2.497966000000    -1.410818000000    15.994914619570
         H           -0.439203000000    -1.753445000000    -0.804045000000     1.007825032230
         H           -1.324202000000    -3.032814000000    -1.079231000000     1.007825032230
         O            0.554201000000     1.968228000000     1.715688000000    15.994914619570
         H           -0.376763000000     2.281724000000     1.957626000000     1.007825032230
         H            0.367929000000     1.318127000000     1.000096000000     1.007825032230

  Charge       = -1
  Multiplicity = 1
  Basis Set: AUG-CC-PVTZ
    Blend: AUG-CC-PVTZ
  Basis Set: (AUG-CC-PVTZ AUX)
    Blend: AUG-CC-PVTZ-JKFIT

    Orbital Energies [Eh]
    ---------------------

    Doubly Occupied:

       1A    -26.002407     2A    -20.415708     3A    -20.410818
       4A    -20.407146     5A    -20.406521     6A    -20.401339
       7A     -1.270511     8A     -1.211476     9A     -1.193452
      10A     -1.185316    11A     -1.172629    12A     -1.168509
      13A     -0.567597    14A     -0.559855    15A     -0.550470
      16A     -0.541115    17A     -0.536537    18A     -0.452952
      19A     -0.437099    20A     -0.435642    21A     -0.426252
      22A     -0.418373    23A     -0.365850    24A     -0.362468
      25A     -0.358748    26A     -0.353586    27A     -0.352016
      28A     -0.349440    29A     -0.342784    30A     -0.339134

  @DF-RHF Final Energy:  -479.85940311287715

   => Energetics <=

    Nuclear Repulsion Energy =            261.5880267927134355
    One-Electron Energy =               -1196.9033549261998814
    Two-Electron Energy =                 455.4559250206092997
    Total Energy =                       -479.8594031128771462
 Dipole X            :          3.6501499           -4.2763179           -0.6261680
 Dipole Y            :         35.8868444          -35.2197971            0.6670473
 Dipole Z            :        -30.8030231           31.0999787            0.2969556
 Magnitude           :                                                    0.9618842
  Basis Set: (AUG-CC-PVTZ AUX)
    Blend: AUG-CC-PVTZ-RI
	 Reference Energy          =    -479.8594031128771462 [Eh]
	 Singles Energy            =      -0.0000000000000000 [Eh]
	 Same-Spin Energy          =      -0.4331394694062154 [Eh]
	 Opposite-Spin Energy      =      -1.3177304517538877 [Eh]
	 Correlation Energy        =      -1.7508699211601031 [Eh]
	 Total Energy              =    -481.6102730340372773 [Eh]

	 ================> DF-SCS-MP2 Energies <==================
	-----------------------------------------------------------
	 SCS Same-Spin Scale       =       0.3333333333333333 [-]
	 SCS Opposite-Spin Scale   =       1.2000000000000000 [-]
	 SCS Same-Spin Energy      =      -0.1443798231354051 [Eh]
	 SCS Opposite-Spin Energy  =      -1.5812765421046653 [Eh]
	 SCS Correlation Energy    =      -1.7256563652400705 [Eh]
	 SCS Total Energy          =    -481.5850594781172163 [Eh]
	-----------------------------------------------------------

*** Psi4 exiting successfully. Buy a developer a beer!
