                               Psi4 1.9 release

  ==> Input File <==

--------------------------------------------------------------------------
MEMORY 60 GB

molecule dimer {
-1 1
F      0.000000     0.000000     0.000000
--
0 1
O      0.680826    -0.939261    -2.565720
H      0.776711    -0.509976    -1.665094
H      1.177620    -0.426589    -3.141786
O      2.494322     1.215623     0.856945
H      3.185249     1.015423     1.522625
H      1.828253     0.531859     0.918648
O      0.310218    -2.799566     0.371117
H      0.088505    -1.923298     0.173876
H      0.230665    -3.288922    -0.432281
O     -1.077882     0.253175     2.550768
H     -0.802564     0.336791     1.574496
H     -0.449028    -0.396209     2.897838
O     -0.031927     3.083942    -0.157883
H      0.456398     3.797739    -0.602452
H      0.246498     2.223721    -0.550204
O     -2.743171    -0.297210    -0.425433
H     -1.827612    -0.242352    -0.365725
H     -3.147919     0.492464     0.012583

units ang
no_reorient
no_com
symmetry c1
}

set {
basis        aug-cc-pVTZ
scf_type     df
}

energy("mp2", bsse_type="cp")
--------------------------------------------------------------------------

                               Psi4 1.9 release
    Molecular point group: c1
  Charge       = 0
  Multiplicity = 1
  Basis Set: AUG-CC-PVTZ
    Blend: AUG-CC-PVTZ
  Basis Set: (AUG-CC-PVTZ AUX)
    Blend: AUG-CC-PVTZ-JKFIT
  @DF-RHF Final Energy:  -456.33427593172109
    Total Energy =                       -456.3342759317210948
 Dipole X            :          3.8619815           -2.2263544            1.6356272
 Dipole Y            :        -10.4406880           10.8551065            0.4144185
 Dipole Z            :        -10.7433562           10.1683820           -0.5749742
 Magnitude           :                                                    1.7825864
  Basis Set: (AUG-CC-PVTZ AUX)
    Blend: AUG-CC-PVTZ-RI
	 Reference Energy          =    -456.3342759317210948 [Eh]
	 Singles Energy            =      -0.0000000000000000 [Eh]
	 Same-Spin Energy          =      -0.4134450197503605 [Eh]
	 Opposite-Spin Energy      =      -1.3006497453626045 [Eh]
	 Correlation Energy        =      -1.7140947651129650 [Eh]
	 Total Energy              =    -458.0483706968340698 [Eh]
	 SCS Total Energy          =    -458.0328706327396731 [Eh]
                               Psi4 1.9 release
    Molecular point group: c1
  Multiplicity = 1
  Basis Set: AUG-CC-PVTZ
    Blend: AUG-CC-PVTZ
  Basis Set: (AUG-CC-PVTZ AUX)
    Blend: AUG-CC-PVTZ-JKFIT
  @DF-RHF Final Energy:   -99.45113370364933
    Total Energy =                        -99.4511337036493330
  Basis Set: (AUG-CC-PVTZ AUX)
	 Singles Energy            =      -0.0000000000000000 [Eh]
	 Same-Spin Energy          =      -0.0820474050844281 [Eh]
	 Opposite-Spin Energy      =      -0.2300246096426610 [Eh]
	 Correlation Energy        =      -0.3120720147270891 [Eh]
	 Total Energy              =     -99.7632057183764260 [Eh]
	 SCS Total Energy          =     -99.7545123702486620 [Eh]
                               Psi4 1.9 release
    Molecular point group: c1

    Geometry (in Bohr), charge = -1, multiplicity = 1:

       Center              X                  Y                   Z               Mass
    ------------   -----------------  -----------------  -----------------  -----------------
         F            0.000000000000     0.000000000000     0.000000000000    18.998403162730
         O            1.286574679091    -1.774946050324    -4.848508114610    15.994914619570
         H            1.467771068630    -0.963714970556    -3.146571633143     1.007825032230
         H            2.225379279862    -0.806136378133    -5.937115084798     1.007825032230
         O            4.713585448704     2.297194541807     1.619391354580    15.994914619570
         H            6.019248251388     1.918871371491     2.877344241775     1.007825032230
         H            3.454897458047     1.005067847360     1.735993125700     1.007825032230
         O            0.586227059187    -5.290413010143     0.701309490502    15.994914619570
         H            0.167250210734    -3.634506477641     0.328578019790     1.007825032230
         H            0.435893676729    -6.215161827993    -0.816892699239     1.007825032230
         O           -2.036901775561     0.478431411813     4.820252929582    15.994914619570
         H           -1.516626158152     0.636442751519     2.975366225629     1.007825032230
         H           -0.848539942662    -0.748726498442     5.476120175944     1.007825032230
         O           -0.060333286007     5.827805766797    -0.298355629866    15.994914619570
         H            0.862467224207     7.176686605970    -1.138469283734     1.007825032230
         H            0.465813710473     4.202223669429    -1.039734873131     1.007825032230
         O           -5.183841905298    -0.561645501747    -0.803951854732    15.994914619570
         H           -3.453686143600    -0.457978905957    -0.691120087233     1.007825032230
         H           -5.948704775125     0.930622086647     0.023778423837     1.007825032230

  Charge       = -1
  Multiplicity = 1
  Basis Set: AUG-CC-PVTZ
    Blend: AUG-CC-PVTZ
  Basis Set: (AUG-CC-PVTZ AUX)
    Blend: AUG-CC-PVTZ-JKFIT

    Orbital Energies [Eh]
    ---------------------

    Doubly Occupied:

       1A    -25.994430     2A    -20.426859     3A    -20.422886
       4A    -20.412678     5A    -20.399169     6A    -20.392327
       7A    -20.389158     8A     -1.260537     9A     -1.206313
      10A     -1.203304    11A     -1.202626    12A     -1.194555
      13A     -1.179938    14A     -1.161546    15A     -0.580033
      16A     -0.577855    17A     -0.571565    18A     -0.566982
      19A     -0.559895    20A     -0.525497    21A     -0.442280
      22A     -0.438572    23A     -0.431263    24A     -0.428733
      25A     -0.418794    26A     -0.412498    27A     -0.372253
      28A     -0.364417    29A     -0.360133    30A     -0.355193
      31A     -0.354766    32A     -0.347410    33A     -0.342409
      34A     -0.337884    35A     -0.329753

  @DF-RHF Final Energy:  -555.91573614999550

   => Energetics <=

    Nuclear Repulsion Energy =            347.1741190784840114
    One-Electron Energy =               -1474.2506789540059344
    Two-Electron Energy =                 571.1608237255264839
    Total Energy =                       -555.9157361499954959
 Dipole X            :          3.9547180           -2.2263544            1.7283636
 Dipole Y            :        -10.3557477           10.8551065            0.4993588
 Dipole Z            :        -10.8790454           10.1683820           -0.7106634
 Magnitude           :                                                    1.9343326
  Basis Set: (AUG-CC-PVTZ AUX)
    Blend: AUG-CC-PVTZ-RI
	 Reference Energy          =    -555.9157361499954959 [Eh]
	 Singles Energy            =      -0.0000000000000000 [Eh]
	 Same-Spin Energy          =      -0.5011068210969601 [Eh]
	 Opposite-Spin Energy      =      -1.5307025452443861 [Eh]
	 Correlation Energy        =      -2.0318093663413461 [Eh]
	 Total Energy              =    -557.9475455163368451 [Eh]

	 ================> DF-SCS-MP2 Energies <==================
	-----------------------------------------------------------
	 SCS Same-Spin Scale       =       0.3333333333333333 [-]
	 SCS Opposite-Spin Scale   =       1.2000000000000000 [-]
	 SCS Same-Spin Energy      =      -0.1670356070323200 [Eh]
	 SCS Opposite-Spin Energy  =      -1.8368430542932632 [Eh]
	 SCS Correlation Energy    =      -2.0038786613255835 [Eh]
	 SCS Total Energy          =    -557.9196148113210256 [Eh]
	-----------------------------------------------------------

*** Psi4 exiting successfully. Buy a developer a beer!
