                               Psi4 1.8.2 release

  ==> Input File <==

--------------------------------------------------------------------------
MEMORY 60 GB

molecule dimer {
-1 1
F          0.000000     0.000000     0.000000
Gh(O)     -0.057118     2.692147    -0.976789
Gh(H)      0.731116     3.225705    -0.805216
Gh(H)      0.209827     1.795792    -0.774691
Gh(O)      0.486465    -2.407014     1.207865
Gh(H)      0.269082    -1.731333     0.576353
Gh(H)      1.158872    -2.081555     1.761537
Gh(O)      2.743152     0.252394     0.166207
Gh(H)      2.913143     0.164435    -0.786041
Gh(H)      1.744815     0.219563     0.238161
Gh(O)      0.021137     0.684540     2.677081
Gh(H)     -0.147829     0.359385     1.789779
Gh(H)     -0.892075     0.785151     3.140166
Gh(O)     -2.468711    -1.509440    -0.488093
Gh(H)     -1.632848    -1.124206    -0.091186
Gh(H)     -2.494928    -1.207266    -1.445224
Gh(O)     -0.643514    -0.967018    -2.526052
Gh(H)     -0.484782    -0.177777    -1.974885
Gh(H)     -0.087133    -1.668284    -2.070015

units ang
no_reorient
no_com
symmetry c1
}

set {
basis        aug-cc-pVTZ
scf_type     df
}

energy("mp2")
--------------------------------------------------------------------------

    Molecular point group: c1

    Geometry (in Angstrom), charge = -1, multiplicity = 1:

       Center              X                  Y                   Z               Mass
    ------------   -----------------  -----------------  -----------------  -----------------
         F            0.000000000000     0.000000000000     0.000000000000    18.998403162730
      Gh(O)          -0.057118000000     2.692147000000    -0.976789000000    15.994914619570
      Gh(H)           0.731116000000     3.225705000000    -0.805216000000     1.007825032230
      Gh(H)           0.209827000000     1.795792000000    -0.774691000000     1.007825032230
      Gh(O)           0.486465000000    -2.407014000000     1.207865000000    15.994914619570
      Gh(H)           0.269082000000    -1.731333000000     0.576353000000     1.007825032230
      Gh(H)           1.158872000000    -2.081555000000     1.761537000000     1.007825032230
      Gh(O)           2.743152000000     0.252394000000     0.166207000000    15.994914619570
      Gh(H)           2.913143000000     0.164435000000    -0.786041000000     1.007825032230
      Gh(H)           1.744815000000     0.219563000000     0.238161000000     1.007825032230
      Gh(O)           0.021137000000     0.684540000000     2.677081000000    15.994914619570
      Gh(H)          -0.147829000000     0.359385000000     1.789779000000     1.007825032230
      Gh(H)          -0.892075000000     0.785151000000     3.140166000000     1.007825032230
      Gh(O)          -2.468711000000    -1.509440000000    -0.488093000000    15.994914619570
      Gh(H)          -1.632848000000    -1.124206000000    -0.091186000000     1.007825032230
      Gh(H)          -2.494928000000    -1.207266000000    -1.445224000000     1.007825032230
      Gh(O)          -0.643514000000    -0.967018000000    -2.526052000000    15.994914619570
      Gh(H)          -0.484782000000    -0.177777000000    -1.974885000000     1.007825032230
      Gh(H)          -0.087133000000    -1.668284000000    -2.070015000000     1.007825032230

  Charge       = -1
  Multiplicity = 1
  Basis Set: AUG-CC-PVTZ
    Blend: AUG-CC-PVTZ
  Basis Set: (AUG-CC-PVTZ AUX)
    Blend: AUG-CC-PVTZ-JKFIT

    Orbital Energies [Eh]
    ---------------------

    Doubly Occupied:

       1A    -25.833504     2A     -1.075855     3A     -0.180906
       4A     -0.180900     5A     -0.180853

  @DF-RHF Final Energy:   -99.45115833179601

   => Energetics <=

    Nuclear Repulsion Energy =              0.0000000000000000
    One-Electron Energy =                -143.9982723498128223
    Two-Electron Energy =                  44.5471140180168135
    Total Energy =                        -99.4511583317960088
 Dipole X            :          0.0001274            0.0000000            0.0001274
 Dipole Y            :         -0.0000188            0.0000000           -0.0000188
 Dipole Z            :          0.0000225            0.0000000            0.0000225
 Magnitude           :                                                    0.0001307
  Basis Set: (AUG-CC-PVTZ AUX)
    Blend: AUG-CC-PVTZ-RI
	 Reference Energy          =     -99.4511583317960088 [Eh]
	 Singles Energy            =      -0.0000000000000000 [Eh]
	 Same-Spin Energy          =      -0.0820863154700235 [Eh]
	 Opposite-Spin Energy      =      -0.2303250681520339 [Eh]
	 Correlation Energy        =      -0.3124113836220573 [Eh]
	 Total Energy              =     -99.7635697154180718 [Eh]

	 ================> DF-SCS-MP2 Energies <==================
	-----------------------------------------------------------
	 SCS Same-Spin Scale       =       0.3333333333333333 [-]
	 SCS Opposite-Spin Scale   =       1.2000000000000000 [-]
	 SCS Same-Spin Energy      =      -0.0273621051566745 [Eh]
	 SCS Opposite-Spin Energy  =      -0.2763900817824406 [Eh]
	 SCS Correlation Energy    =      -0.3037521869391151 [Eh]
	 SCS Total Energy          =     -99.7549105187351302 [Eh]
	-----------------------------------------------------------

*** Psi4 exiting successfully. Buy a developer a beer!
