                               Psi4 1.8.2 release

  ==> Input File <==

--------------------------------------------------------------------------
MEMORY 60 GB

molecule dimer {
-1 1
F          0.000000     0.000000     0.000000
Gh(O)     -1.051876     0.397188    -2.664526
Gh(H)     -0.485530    -0.258494    -3.098839
Gh(H)     -0.784316     0.374530    -1.766571
Gh(O)     -0.548980    -2.889172    -0.876141
Gh(H)     -0.402675    -1.956604    -0.860721
Gh(H)      0.114136    -3.180631    -1.543791
Gh(O)      0.945837     1.626921     2.124282
Gh(H)      0.821758     1.095363     1.318237
Gh(H)      0.313788     1.263948     2.804817
Gh(O)      2.426736     0.456517    -1.371097
Gh(H)      2.283500     1.268623    -1.938041
Gh(H)      1.590392     0.293672    -0.864561
Gh(O)     -2.021952    -0.732353     1.474827
Gh(H)     -2.053094    -1.698175     1.306604
Gh(H)     -1.260753    -0.350683     0.971493
Gh(O)      2.023011    -1.613709     1.503423
Gh(H)      1.169042    -1.189349     1.339393
Gh(H)      1.933657    -2.225891     2.263621

units ang
no_reorient
no_com
symmetry c1
}

set {
basis        aug-cc-pVTZ
scf_type     df
}

energy("mp2")
--------------------------------------------------------------------------

    Molecular point group: c1

    Geometry (in Angstrom), charge = -1, multiplicity = 1:

       Center              X                  Y                   Z               Mass
    ------------   -----------------  -----------------  -----------------  -----------------
         F            0.000000000000     0.000000000000     0.000000000000    18.998403162730
      Gh(O)          -1.051876000000     0.397188000000    -2.664526000000    15.994914619570
      Gh(H)          -0.485530000000    -0.258494000000    -3.098839000000     1.007825032230
      Gh(H)          -0.784316000000     0.374530000000    -1.766571000000     1.007825032230
      Gh(O)          -0.548980000000    -2.889172000000    -0.876141000000    15.994914619570
      Gh(H)          -0.402675000000    -1.956604000000    -0.860721000000     1.007825032230
      Gh(H)           0.114136000000    -3.180631000000    -1.543791000000     1.007825032230
      Gh(O)           0.945837000000     1.626921000000     2.124282000000    15.994914619570
      Gh(H)           0.821758000000     1.095363000000     1.318237000000     1.007825032230
      Gh(H)           0.313788000000     1.263948000000     2.804817000000     1.007825032230
      Gh(O)           2.426736000000     0.456517000000    -1.371097000000    15.994914619570
      Gh(H)           2.283500000000     1.268623000000    -1.938041000000     1.007825032230
      Gh(H)           1.590392000000     0.293672000000    -0.864561000000     1.007825032230
      Gh(O)          -2.021952000000    -0.732353000000     1.474827000000    15.994914619570
      Gh(H)          -2.053094000000    -1.698175000000     1.306604000000     1.007825032230
      Gh(H)          -1.260753000000    -0.350683000000     0.971493000000     1.007825032230
      Gh(O)           2.023011000000    -1.613709000000     1.503423000000    15.994914619570
      Gh(H)           1.169042000000    -1.189349000000     1.339393000000     1.007825032230
      Gh(H)           1.933657000000    -2.225891000000     2.263621000000     1.007825032230

  Charge       = -1
  Multiplicity = 1
  Basis Set: AUG-CC-PVTZ
    Blend: AUG-CC-PVTZ
  Basis Set: (AUG-CC-PVTZ AUX)
    Blend: AUG-CC-PVTZ-JKFIT

    Orbital Energies [Eh]
    ---------------------

    Doubly Occupied:

       1A    -25.833542     2A     -1.075867     3A     -0.180915
       4A     -0.180903     5A     -0.180863

  @DF-RHF Final Energy:   -99.45115557814856

   => Energetics <=

    Nuclear Repulsion Energy =              0.0000000000000000
    One-Electron Energy =                -143.9981242903334078
    Two-Electron Energy =                  44.5469687121848494
    Total Energy =                        -99.4511555781485583
 Dipole X            :          0.0000853            0.0000000            0.0000853
 Dipole Y            :         -0.0001450            0.0000000           -0.0001450
 Dipole Z            :          0.0000316            0.0000000            0.0000316
 Magnitude           :                                                    0.0001712
  Basis Set: (AUG-CC-PVTZ AUX)
    Blend: AUG-CC-PVTZ-RI
	 Reference Energy          =     -99.4511555781485583 [Eh]
	 Singles Energy            =      -0.0000000000000000 [Eh]
	 Same-Spin Energy          =      -0.0820701144630986 [Eh]
	 Opposite-Spin Energy      =      -0.2303455462221511 [Eh]
	 Correlation Energy        =      -0.3124156606852497 [Eh]
	 Total Energy              =     -99.7635712388338050 [Eh]

	 ================> DF-SCS-MP2 Energies <==================
	-----------------------------------------------------------
	 SCS Same-Spin Scale       =       0.3333333333333333 [-]
	 SCS Opposite-Spin Scale   =       1.2000000000000000 [-]
	 SCS Same-Spin Energy      =      -0.0273567048210329 [Eh]
	 SCS Opposite-Spin Energy  =      -0.2764146554665813 [Eh]
	 SCS Correlation Energy    =      -0.3037713602876141 [Eh]
	 SCS Total Energy          =     -99.7549269384361708 [Eh]
	-----------------------------------------------------------

*** Psi4 exiting successfully. Buy a developer a beer!
