                               Psi4 1.9 release

  ==> Input File <==

--------------------------------------------------------------------------
MEMORY 60 GB

molecule dimer {
-1 1
F      0.000000     0.000000     0.000000
--
0 1
O      1.051129     1.096357     2.694346
H      0.619287     1.901551     2.882839
H      0.909597     0.954000     1.767452
O      1.736119     1.777929    -1.101982
H      1.243908     1.941691    -1.896130
H      1.299520     1.022179    -0.669957
O     -0.450907    -2.751484    -0.302061
H     -0.441612    -3.080057     0.625078
H     -0.079139    -1.885185    -0.236471
O     -1.073336    -0.475456    -2.416481
H     -1.819131     0.195421    -2.500612
H     -0.639424    -0.295340    -1.571394
O     -1.530930     2.318994    -0.767106
H     -0.855521     1.628887    -0.576701
H     -1.755147     2.231506    -1.684517
O     -1.347398    -0.607075     2.261043
H     -0.798765    -0.276198     1.560294
H     -0.935135    -1.323906     2.841048

units ang
no_reorient
no_com
symmetry c1
}

set {
basis        aug-cc-pVTZ
scf_type     df
}

energy("mp2", bsse_type="cp")
--------------------------------------------------------------------------

                               Psi4 1.9 release
    Molecular point group: c1
  Charge       = 0
  Multiplicity = 1
  Basis Set: AUG-CC-PVTZ
    Blend: AUG-CC-PVTZ
  Basis Set: (AUG-CC-PVTZ AUX)
    Blend: AUG-CC-PVTZ-JKFIT
  @DF-RHF Final Energy:  -456.31594992393786
    Total Energy =                       -456.3159499239378647
 Dipole X            :         30.4714425          -30.5647063           -0.0932638
 Dipole Y            :        -25.9952386           26.2457807            0.2505420
 Dipole Z            :         -6.7109907            6.5819180           -0.1290727
 Magnitude           :                                                    0.2968656
  Basis Set: (AUG-CC-PVTZ AUX)
    Blend: AUG-CC-PVTZ-RI
	 Reference Energy          =    -456.3159499239378647 [Eh]
	 Singles Energy            =      -0.0000000000000000 [Eh]
	 Same-Spin Energy          =      -0.4158428811689626 [Eh]
	 Opposite-Spin Energy      =      -1.3055731796523726 [Eh]
	 Correlation Energy        =      -1.7214160608213351 [Eh]
	 Total Energy              =    -458.0373659847592194 [Eh]
	 SCS Total Energy          =    -458.0212520332436839 [Eh]
                               Psi4 1.9 release
    Molecular point group: c1
  Multiplicity = 1
  Basis Set: AUG-CC-PVTZ
    Blend: AUG-CC-PVTZ
  Basis Set: (AUG-CC-PVTZ AUX)
    Blend: AUG-CC-PVTZ-JKFIT
  @DF-RHF Final Energy:   -99.45115808715870
    Total Energy =                        -99.4511580871587171
  Basis Set: (AUG-CC-PVTZ AUX)
	 Singles Energy            =      -0.0000000000000000 [Eh]
	 Same-Spin Energy          =      -0.0820999337824917 [Eh]
	 Opposite-Spin Energy      =      -0.2305249723408519 [Eh]
	 Correlation Energy        =      -0.3126249061233436 [Eh]
	 Total Energy              =     -99.7637829932820495 [Eh]
	 SCS Total Energy          =     -99.7551546985618955 [Eh]
                               Psi4 1.9 release
    Molecular point group: c1

    Geometry (in Bohr), charge = -1, multiplicity = 1:

       Center              X                  Y                   Z               Mass
    ------------   -----------------  -----------------  -----------------  -----------------
         F            0.000000000000     0.000000000000     0.000000000000    18.998403162730
         O            1.986345932526     2.071814465729     5.091576027223    15.994914619570
         H            1.170282823056     3.593410603590     5.447776173789     1.007825032230
         H            1.718889214538     1.802798723687     3.340000219893     1.007825032230
         O            3.280789431204     3.359798880509    -2.082444175184    15.994914619570
         H            2.350645445266     3.669264210266    -3.583166398264     1.007825032230
         H            2.455736894555     1.931638361194    -1.266035245833     1.007825032230
         O           -0.852090738052    -5.199551198579    -0.570812563182    15.994914619570
         H           -0.834525733716    -5.820464180799     1.181226227049     1.007825032230
         H           -0.149551035843    -3.562483345821    -0.446865426613     1.007825032230
         O           -2.028311080594    -0.898481624706    -4.566487277372    15.994914619570
         H           -3.437659376330     0.369292169163    -4.725471826033     1.007825032230
         H           -1.208336238045    -0.558111713893    -2.969504295188     1.007825032230
         O           -2.893038417247     4.382263546580    -1.449620249195    15.994914619570
         H           -1.616700384578     3.078150319319    -1.089806946278     1.007825032230
         H           -3.316747139919     4.216935187316    -3.183275783678     1.007825032230
         O           -2.546213201990    -1.147205487612     4.272752027884    15.994914619570
         H           -1.509447088601    -0.521938576399     2.948528335195     1.007825032230
         H           -1.767149040330    -2.501819755850     5.368802629280     1.007825032230

  Charge       = -1
  Multiplicity = 1
  Basis Set: AUG-CC-PVTZ
    Blend: AUG-CC-PVTZ
  Basis Set: (AUG-CC-PVTZ AUX)
    Blend: AUG-CC-PVTZ-JKFIT

    Orbital Energies [Eh]
    ---------------------

    Doubly Occupied:

       1A    -26.022143     2A    -20.423987     3A    -20.420187
       4A    -20.409366     5A    -20.407966     6A    -20.404739
       7A    -20.396621     8A     -1.294646     9A     -1.221202
      10A     -1.208871    11A     -1.196932    12A     -1.189723
      13A     -1.180972    14A     -1.170962    15A     -0.590520
      16A     -0.582164    17A     -0.573263    18A     -0.566503
      19A     -0.561302    20A     -0.546311    21A     -0.460657
      22A     -0.451025    23A     -0.442253    24A     -0.432246
      25A     -0.423626    26A     -0.405798    27A     -0.381177
      28A     -0.379736    29A     -0.374021    30A     -0.370290
      31A     -0.365251    32A     -0.354257    33A     -0.350014
      34A     -0.346506    35A     -0.333523

  @DF-RHF Final Energy:  -555.91545588751137

   => Energetics <=

    Nuclear Repulsion Energy =            360.4544291007573520
    One-Electron Energy =               -1500.2622420445595708
    Two-Electron Energy =                 583.8923570562908480
    Total Energy =                       -555.9154558875113707
 Dipole X            :         30.7482155          -30.5647063            0.1835092
 Dipole Y            :        -26.1749045           26.2457807            0.0708761
 Dipole Z            :         -6.5608305            6.5819180            0.0210875
 Magnitude           :                                                    0.1978478
  Basis Set: (AUG-CC-PVTZ AUX)
    Blend: AUG-CC-PVTZ-RI
	 Reference Energy          =    -555.9154558875113707 [Eh]
	 Singles Energy            =      -0.0000000000000000 [Eh]
	 Same-Spin Energy          =      -0.5037855903795807 [Eh]
	 Opposite-Spin Energy      =      -1.5347209958727046 [Eh]
	 Correlation Energy        =      -2.0385065862522853 [Eh]
	 Total Energy              =    -557.9539624737636814 [Eh]

	 ================> DF-SCS-MP2 Energies <==================
	-----------------------------------------------------------
	 SCS Same-Spin Scale       =       0.3333333333333333 [-]
	 SCS Opposite-Spin Scale   =       1.2000000000000000 [-]
	 SCS Same-Spin Energy      =      -0.1679285301265269 [Eh]
	 SCS Opposite-Spin Energy  =      -1.8416651950472454 [Eh]
	 SCS Correlation Energy    =      -2.0095937251737723 [Eh]
	 SCS Total Energy          =    -557.9250496126851431 [Eh]
	-----------------------------------------------------------

*** Psi4 exiting successfully. Buy a developer a beer!
