                               Psi4 1.9 release

  ==> Input File <==

--------------------------------------------------------------------------
MEMORY 60 GB

molecule dimer {
-1 1
F      0.000000     0.000000     0.000000
--
0 1
O     -0.533187     2.775168     0.632670
H      0.295886     3.282857     0.735170
H     -0.295187     1.845584     0.468372
O      1.234959     1.939079    -1.505495
H      0.841673     1.153378    -1.117670
H      1.897476     2.286047    -0.880775
O     -0.240420    -2.398413     1.233884
H     -0.215194    -1.544907     0.708591
H     -0.201083    -3.097122     0.599028
O     -2.770068     0.194255    -0.484586
H     -1.879200     0.202821    -0.161510
H     -3.260491    -0.522595    -0.053105
O     -0.063457    -1.551951    -2.197817
H      0.007654    -0.846794    -1.528243
H     -0.969421    -2.020789    -2.142271

units ang
no_reorient
no_com
symmetry c1
}

set {
basis        aug-cc-pVTZ
scf_type     df
}

energy("mp2", bsse_type="cp")
--------------------------------------------------------------------------

                               Psi4 1.9 release
    Molecular point group: c1
  Charge       = 0
  Multiplicity = 1
  Basis Set: AUG-CC-PVTZ
    Blend: AUG-CC-PVTZ
  Basis Set: (AUG-CC-PVTZ AUX)
    Blend: AUG-CC-PVTZ-JKFIT
  @DF-RHF Final Energy:  -380.26329514540146
    Total Energy =                       -380.2632951454014574
 Dipole X            :         43.5615098          -43.0012301            0.5602797
 Dipole Y            :        -16.6026969           15.8804722           -0.7222247
 Dipole Z            :         42.1557970          -41.4665722            0.6892248
 Magnitude           :                                                    1.1447938
  Basis Set: (AUG-CC-PVTZ AUX)
    Blend: AUG-CC-PVTZ-RI
	 Reference Energy          =    -380.2632951454014574 [Eh]
	 Singles Energy            =      -0.0000000000000000 [Eh]
	 Same-Spin Energy          =      -0.3463020964166645 [Eh]
	 Opposite-Spin Energy      =      -1.0885409999078026 [Eh]
	 Correlation Energy        =      -1.4348430963244672 [Eh]
	 Total Energy              =    -381.6981382417259283 [Eh]
	 SCS Total Energy          =    -381.6849783774297293 [Eh]
                               Psi4 1.9 release
    Molecular point group: c1
  Multiplicity = 1
  Basis Set: AUG-CC-PVTZ
    Blend: AUG-CC-PVTZ
  Basis Set: (AUG-CC-PVTZ AUX)
    Blend: AUG-CC-PVTZ-JKFIT
  @DF-RHF Final Energy:   -99.45112117345985
    Total Energy =                        -99.4511211734598533
  Basis Set: (AUG-CC-PVTZ AUX)
	 Singles Energy            =      -0.0000000000000000 [Eh]
	 Same-Spin Energy          =      -0.0820780184393152 [Eh]
	 Opposite-Spin Energy      =      -0.2302912966299167 [Eh]
	 Correlation Energy        =      -0.3123693150692319 [Eh]
	 Total Energy              =     -99.7634904885290865 [Eh]
	 SCS Total Energy          =     -99.7548300688955294 [Eh]
                               Psi4 1.9 release
    Molecular point group: c1

    Geometry (in Bohr), charge = -1, multiplicity = 1:

       Center              X                  Y                   Z               Mass
    ------------   -----------------  -----------------  -----------------  -----------------
         F            0.000000000000     0.000000000000     0.000000000000    18.998403162730
         O           -1.007577403654     5.244307472135     1.195573027793    15.994914619570
         H            0.559143504357     6.203700639042     1.389269955653     1.007825032230
         H           -0.557822585796     3.487648301527     0.885094804833     1.007825032230
         O            2.333734286169     3.664328245627    -2.844973233246    15.994914619570
         H            1.590531457192     2.179568539128    -2.112090198640     1.007825032230
         H            3.585709969629     4.320002739924    -1.664423528150     1.007825032230
         O           -0.454327955083    -4.532343705738     2.331702830584    15.994914619570
         H           -0.406657723842    -2.919451119303     1.339042924964     1.007825032230
         H           -0.379991798485    -5.852712357130     1.131998861481     1.007825032230
         O           -5.234669868895     0.367088748501    -0.915734824231    15.994914619570
         H           -3.551173334960     0.383276142491    -0.305209666523     1.007825032230
         H           -6.161435024520    -0.987561424534    -0.100353905892     1.007825032230
         O           -0.119916350743    -2.932762350130    -4.153272203875    15.994914619570
         H            0.014463963764    -1.600208744681    -2.887960723148     1.007825032230
         H           -1.831940190267    -3.818737767338    -4.048305476511     1.007825032230

  Charge       = -1
  Multiplicity = 1
  Basis Set: AUG-CC-PVTZ
    Blend: AUG-CC-PVTZ
  Basis Set: (AUG-CC-PVTZ AUX)
    Blend: AUG-CC-PVTZ-JKFIT

    Orbital Energies [Eh]
    ---------------------

    Doubly Occupied:

       1A    -26.006350     2A    -20.403897     3A    -20.402038
       4A    -20.401431     5A    -20.400712     6A    -20.396267
       7A     -1.277160     8A     -1.190821     9A     -1.187813
      10A     -1.177682    11A     -1.177036    12A     -1.164086
      13A     -0.572261    14A     -0.569564    15A     -0.555247
      16A     -0.548934    17A     -0.543804    18A     -0.440011
      19A     -0.424726    20A     -0.422805    21A     -0.416072
      22A     -0.409140    23A     -0.366727    24A     -0.361856
      25A     -0.355916    26A     -0.352907    27A     -0.349572
      28A     -0.341207    29A     -0.338408    30A     -0.330619

  @DF-RHF Final Energy:  -479.85024069387646

   => Energetics <=

    Nuclear Repulsion Energy =            269.4058648634658084
    One-Electron Energy =               -1212.7420682478252729
    Two-Electron Energy =                 463.4859626904830066
    Total Energy =                       -479.8502406938764580
 Dipole X            :         43.8660594          -43.0012301            0.8648293
 Dipole Y            :        -16.5356971           15.8804722           -0.6552249
 Dipole Z            :         42.4992360          -41.4665722            1.0326638
 Magnitude           :                                                    1.4978798
  Basis Set: (AUG-CC-PVTZ AUX)
    Blend: AUG-CC-PVTZ-RI
	 Reference Energy          =    -479.8502406938764580 [Eh]
	 Singles Energy            =      -0.0000000000000000 [Eh]
	 Same-Spin Energy          =      -0.4340030386320552 [Eh]
	 Opposite-Spin Energy      =      -1.3177236559455243 [Eh]
	 Correlation Energy        =      -1.7517266945775796 [Eh]
	 Total Energy              =    -481.6019673884540566 [Eh]

	 ================> DF-SCS-MP2 Energies <==================
	-----------------------------------------------------------
	 SCS Same-Spin Scale       =       0.3333333333333333 [-]
	 SCS Opposite-Spin Scale   =       1.2000000000000000 [-]
	 SCS Same-Spin Energy      =      -0.1446676795440184 [Eh]
	 SCS Opposite-Spin Energy  =      -1.5812683871346291 [Eh]
	 SCS Correlation Energy    =      -1.7259360666786474 [Eh]
	 SCS Total Energy          =    -481.5761767605550858 [Eh]
	-----------------------------------------------------------

*** Psi4 exiting successfully. Buy a developer a beer!
