                               Psi4 1.8.2 release

  ==> Input File <==

--------------------------------------------------------------------------
MEMORY 60 GB

molecule dimer {
0 1
Gh(F)      0.000000     0.000000     0.000000
Gh(O)     -1.487872    -0.217420    -2.363753
Gh(H)     -1.846266    -1.101990    -2.303354
Gh(H)     -0.867098    -0.126949    -1.620883
Gh(O)     -1.868663    -2.007774     0.548444
Gh(H)     -1.271309    -1.335933     0.538696
Gh(H)     -2.725726    -1.478875     0.632794
O         -2.203007     1.637413     0.887644
H         -1.407326     1.184148     0.615864
H         -1.872138     2.526221     0.987551
Gh(O)      1.801115     0.959619    -2.091262
Gh(H)      2.347007     1.699909    -1.793638
Gh(H)      1.430991     0.615917    -1.275322
Gh(O)      1.566564    -2.169919     0.460736
Gh(H)      1.039338    -1.344244     0.290975
Gh(H)      1.396974    -2.309900     1.415673

units ang
no_reorient
no_com
symmetry c1
}

set {
basis        aug-cc-pVTZ
scf_type     df
}

energy("mp2")
--------------------------------------------------------------------------

    Molecular point group: c1

    Geometry (in Angstrom), charge = 0, multiplicity = 1:

       Center              X                  Y                   Z               Mass
    ------------   -----------------  -----------------  -----------------  -----------------
      Gh(F)           0.000000000000     0.000000000000     0.000000000000    18.998403162730
      Gh(O)          -1.487872000000    -0.217420000000    -2.363753000000    15.994914619570
      Gh(H)          -1.846266000000    -1.101990000000    -2.303354000000     1.007825032230
      Gh(H)          -0.867098000000    -0.126949000000    -1.620883000000     1.007825032230
      Gh(O)          -1.868663000000    -2.007774000000     0.548444000000    15.994914619570
      Gh(H)          -1.271309000000    -1.335933000000     0.538696000000     1.007825032230
      Gh(H)          -2.725726000000    -1.478875000000     0.632794000000     1.007825032230
         O           -2.203007000000     1.637413000000     0.887644000000    15.994914619570
         H           -1.407326000000     1.184148000000     0.615864000000     1.007825032230
         H           -1.872138000000     2.526221000000     0.987551000000     1.007825032230
      Gh(O)           1.801115000000     0.959619000000    -2.091262000000    15.994914619570
      Gh(H)           2.347007000000     1.699909000000    -1.793638000000     1.007825032230
      Gh(H)           1.430991000000     0.615917000000    -1.275322000000     1.007825032230
      Gh(O)           1.566564000000    -2.169919000000     0.460736000000    15.994914619570
      Gh(H)           1.039338000000    -1.344244000000     0.290975000000     1.007825032230
      Gh(H)           1.396974000000    -2.309900000000     1.415673000000     1.007825032230

  Charge       = 0
  Multiplicity = 1
  Basis Set: AUG-CC-PVTZ
    Blend: AUG-CC-PVTZ
  Basis Set: (AUG-CC-PVTZ AUX)
    Blend: AUG-CC-PVTZ-JKFIT

    Orbital Energies [Eh]
    ---------------------

    Doubly Occupied:

       1A    -20.568312     2A     -1.357964     3A     -0.711376
       4A     -0.593267     5A     -0.511713

  @DF-RHF Final Energy:   -76.06013548999705

   => Energetics <=

    Nuclear Repulsion Energy =              9.2315858571426528
    One-Electron Energy =                -123.0981756954265620
    Two-Electron Energy =                  37.8064543482868629
    Total Energy =                        -76.0601354899970516
 Dipole X            :         40.2446292          -39.5019279            0.7427014
 Dipole Y            :        -31.4785053           31.7656782            0.2871729
 Dipole Z            :        -16.5623970           16.4492477           -0.1131493
 Magnitude           :                                                    0.8042863
  Basis Set: (AUG-CC-PVTZ AUX)
    Blend: AUG-CC-PVTZ-RI
	 Reference Energy          =     -76.0601354899970516 [Eh]
	 Singles Energy            =      -0.0000000000000000 [Eh]
	 Same-Spin Energy          =      -0.0684461966188418 [Eh]
	 Opposite-Spin Energy      =      -0.2160875119078062 [Eh]
	 Correlation Energy        =      -0.2845337085266479 [Eh]
	 Total Energy              =     -76.3446691985237038 [Eh]

	 ================> DF-SCS-MP2 Energies <==================
	-----------------------------------------------------------
	 SCS Same-Spin Scale       =       0.3333333333333333 [-]
	 SCS Opposite-Spin Scale   =       1.2000000000000000 [-]
	 SCS Same-Spin Energy      =      -0.0228153988729472 [Eh]
	 SCS Opposite-Spin Energy  =      -0.2593050142893674 [Eh]
	 SCS Correlation Energy    =      -0.2821204131623147 [Eh]
	 SCS Total Energy          =     -76.3422559031593693 [Eh]
	-----------------------------------------------------------

*** Psi4 exiting successfully. Buy a developer a beer!
