                               Psi4 1.8.2 release

  ==> Input File <==

--------------------------------------------------------------------------
MEMORY 60 GB

molecule dimer {
0 1
Gh(F)      0.000000     0.000000     0.000000
Gh(O)     -0.080310    -1.847083     2.022993
Gh(H)      0.457360    -2.626850     1.740577
Gh(H)      0.018614    -1.169433     1.294985
Gh(O)      2.837448     0.327763    -0.543030
Gh(H)      1.880268     0.381752    -0.427617
Gh(H)      3.126366     1.066889    -0.006077
O         -2.870208     0.106987    -0.242889
H         -1.947930     0.074098    -0.240484
H         -3.032889     0.359006     0.686018
Gh(O)     -0.565191    -2.497966    -1.410818
Gh(H)     -0.439203    -1.753445    -0.804045
Gh(H)     -1.324202    -3.032814    -1.079231
Gh(O)      0.554201     1.968228     1.715688
Gh(H)     -0.376763     2.281724     1.957626
Gh(H)      0.367929     1.318127     1.000096

units ang
no_reorient
no_com
symmetry c1
}

set {
basis        aug-cc-pVTZ
scf_type     df
}

energy("mp2")
--------------------------------------------------------------------------

    Molecular point group: c1

    Geometry (in Angstrom), charge = 0, multiplicity = 1:

       Center              X                  Y                   Z               Mass
    ------------   -----------------  -----------------  -----------------  -----------------
      Gh(F)           0.000000000000     0.000000000000     0.000000000000    18.998403162730
      Gh(O)          -0.080310000000    -1.847083000000     2.022993000000    15.994914619570
      Gh(H)           0.457360000000    -2.626850000000     1.740577000000     1.007825032230
      Gh(H)           0.018614000000    -1.169433000000     1.294985000000     1.007825032230
      Gh(O)           2.837448000000     0.327763000000    -0.543030000000    15.994914619570
      Gh(H)           1.880268000000     0.381752000000    -0.427617000000     1.007825032230
      Gh(H)           3.126366000000     1.066889000000    -0.006077000000     1.007825032230
         O           -2.870208000000     0.106987000000    -0.242889000000    15.994914619570
         H           -1.947930000000     0.074098000000    -0.240484000000     1.007825032230
         H           -3.032889000000     0.359006000000     0.686018000000     1.007825032230
      Gh(O)          -0.565191000000    -2.497966000000    -1.410818000000    15.994914619570
      Gh(H)          -0.439203000000    -1.753445000000    -0.804045000000     1.007825032230
      Gh(H)          -1.324202000000    -3.032814000000    -1.079231000000     1.007825032230
      Gh(O)           0.554201000000     1.968228000000     1.715688000000    15.994914619570
      Gh(H)          -0.376763000000     2.281724000000     1.957626000000     1.007825032230
      Gh(H)           0.367929000000     1.318127000000     1.000096000000     1.007825032230

  Charge       = 0
  Multiplicity = 1
  Basis Set: AUG-CC-PVTZ
    Blend: AUG-CC-PVTZ
  Basis Set: (AUG-CC-PVTZ AUX)
    Blend: AUG-CC-PVTZ-JKFIT

    Orbital Energies [Eh]
    ---------------------

    Doubly Occupied:

       1A    -20.567468     2A     -1.361709     3A     -0.713087
       4A     -0.595072     5A     -0.512330

  @DF-RHF Final Energy:   -76.05865263076856

   => Energetics <=

    Nuclear Repulsion Energy =              9.2878677125154887
    One-Electron Energy =                -123.1937071918851956
    Two-Electron Energy =                  37.8471868486011473
    Total Energy =                        -76.0586526307685631
 Dipole X            :         53.3132627          -52.8036401            0.5096225
 Dipole Y            :         -2.2929881            2.4358570            0.1428689
 Dipole Z            :          3.4381323           -2.8300123            0.6081200
 Magnitude           :                                                    0.8061864
  Basis Set: (AUG-CC-PVTZ AUX)
    Blend: AUG-CC-PVTZ-RI
	 Reference Energy          =     -76.0586526307685631 [Eh]
	 Singles Energy            =      -0.0000000000000000 [Eh]
	 Same-Spin Energy          =      -0.0683672866517258 [Eh]
	 Opposite-Spin Energy      =      -0.2160773005253148 [Eh]
	 Correlation Energy        =      -0.2844445871770406 [Eh]
	 Total Energy              =     -76.3430972179455978 [Eh]

	 ================> DF-SCS-MP2 Energies <==================
	-----------------------------------------------------------
	 SCS Same-Spin Scale       =       0.3333333333333333 [-]
	 SCS Opposite-Spin Scale   =       1.2000000000000000 [-]
	 SCS Same-Spin Energy      =      -0.0227890955505753 [Eh]
	 SCS Opposite-Spin Energy  =      -0.2592927606303778 [Eh]
	 SCS Correlation Energy    =      -0.2820818561809531 [Eh]
	 SCS Total Energy          =     -76.3407344869495148 [Eh]
	-----------------------------------------------------------

*** Psi4 exiting successfully. Buy a developer a beer!
