                               Psi4 1.8.2 release

  ==> Input File <==

--------------------------------------------------------------------------
MEMORY 60 GB

molecule dimer {
0 1
Gh(F)      0.000000     0.000000     0.000000
O         -1.206754     1.445995    -2.000126
H         -0.743175     0.893122    -1.337335
H         -0.759524     1.330264    -2.863753
Gh(O)      1.095483    -0.322767     2.616674
Gh(H)      0.673548    -0.212929     1.764286
Gh(H)      0.520481     0.121453     3.208852
Gh(O)     -2.290620    -0.209671     1.348500
Gh(H)     -2.963418    -0.750440     0.872484
Gh(H)     -1.471779    -0.213731     0.855990
Gh(O)      0.125449     2.911282     1.072482
Gh(H)     -0.291998     2.122485     1.520867
Gh(H)      0.238880     2.637426     0.191158
Gh(O)      0.042032    -2.844174    -0.084119
Gh(H)     -0.661379    -3.010993     0.545538
Gh(H)      0.052740    -1.870059    -0.098146
Gh(O)      2.622328     0.650013    -0.846197
Gh(H)      1.754348     0.759921    -0.394475
Gh(H)      2.674742     1.478542    -1.440090

units ang
no_reorient
no_com
symmetry c1
}

set {
basis        aug-cc-pVTZ
scf_type     df
}

energy("mp2")
--------------------------------------------------------------------------

    Molecular point group: c1

    Geometry (in Angstrom), charge = 0, multiplicity = 1:

       Center              X                  Y                   Z               Mass
    ------------   -----------------  -----------------  -----------------  -----------------
      Gh(F)           0.000000000000     0.000000000000     0.000000000000    18.998403162730
         O           -1.206754000000     1.445995000000    -2.000126000000    15.994914619570
         H           -0.743175000000     0.893122000000    -1.337335000000     1.007825032230
         H           -0.759524000000     1.330264000000    -2.863753000000     1.007825032230
      Gh(O)           1.095483000000    -0.322767000000     2.616674000000    15.994914619570
      Gh(H)           0.673548000000    -0.212929000000     1.764286000000     1.007825032230
      Gh(H)           0.520481000000     0.121453000000     3.208852000000     1.007825032230
      Gh(O)          -2.290620000000    -0.209671000000     1.348500000000    15.994914619570
      Gh(H)          -2.963418000000    -0.750440000000     0.872484000000     1.007825032230
      Gh(H)          -1.471779000000    -0.213731000000     0.855990000000     1.007825032230
      Gh(O)           0.125449000000     2.911282000000     1.072482000000    15.994914619570
      Gh(H)          -0.291998000000     2.122485000000     1.520867000000     1.007825032230
      Gh(H)           0.238880000000     2.637426000000     0.191158000000     1.007825032230
      Gh(O)           0.042032000000    -2.844174000000    -0.084119000000    15.994914619570
      Gh(H)          -0.661379000000    -3.010993000000     0.545538000000     1.007825032230
      Gh(H)           0.052740000000    -1.870059000000    -0.098146000000     1.007825032230
      Gh(O)           2.622328000000     0.650013000000    -0.846197000000    15.994914619570
      Gh(H)           1.754348000000     0.759921000000    -0.394475000000     1.007825032230
      Gh(H)           2.674742000000     1.478542000000    -1.440090000000     1.007825032230

  Charge       = 0
  Multiplicity = 1
  Basis Set: AUG-CC-PVTZ
    Blend: AUG-CC-PVTZ
  Basis Set: (AUG-CC-PVTZ AUX)
    Blend: AUG-CC-PVTZ-JKFIT

    Orbital Energies [Eh]
    ---------------------

    Doubly Occupied:

       1A    -20.569172     2A     -1.339689     3A     -0.712480
       4A     -0.573292     5A     -0.507345

  @DF-RHF Final Energy:   -76.05805012790711

   => Energetics <=

    Nuclear Repulsion Energy =              8.9766592867141508
    One-Electron Energy =                -122.6654571202344783
    Two-Electron Energy =                  37.6307477056132171
    Total Energy =                        -76.0580501279071086
 Dipole X            :         21.6872803          -21.0831660            0.6041142
 Dipole Y            :        -26.5056751           26.0618668           -0.4438083
 Dipole Z            :         38.0433521          -38.1764286           -0.1330765
 Magnitude           :                                                    0.7613338
  Basis Set: (AUG-CC-PVTZ AUX)
    Blend: AUG-CC-PVTZ-RI
	 Reference Energy          =     -76.0580501279071086 [Eh]
	 Singles Energy            =      -0.0000000000000000 [Eh]
	 Same-Spin Energy          =      -0.0687549773458781 [Eh]
	 Opposite-Spin Energy      =      -0.2172656196107991 [Eh]
	 Correlation Energy        =      -0.2860205969566773 [Eh]
	 Total Energy              =     -76.3440707248637835 [Eh]

	 ================> DF-SCS-MP2 Energies <==================
	-----------------------------------------------------------
	 SCS Same-Spin Scale       =       0.3333333333333333 [-]
	 SCS Opposite-Spin Scale   =       1.2000000000000000 [-]
	 SCS Same-Spin Energy      =      -0.0229183257819594 [Eh]
	 SCS Opposite-Spin Energy  =      -0.2607187435329589 [Eh]
	 SCS Correlation Energy    =      -0.2836370693149183 [Eh]
	 SCS Total Energy          =     -76.3416871972220292 [Eh]
	-----------------------------------------------------------

*** Psi4 exiting successfully. Buy a developer a beer!
