                               Psi4 1.8.2 release

  ==> Input File <==

--------------------------------------------------------------------------
MEMORY 60 GB

molecule dimer {
0 1
Gh(F)      0.000000     0.000000     0.000000
Gh(O)      0.242114    -1.452934     2.415504
Gh(H)     -0.616381    -1.882187     2.541181
Gh(H)      0.305655    -0.919337     1.625439
Gh(O)      0.723027     0.126597    -2.933588
Gh(H)      0.475233     0.093507    -2.011106
Gh(H)      1.577772    -0.349467    -3.059852
Gh(O)     -3.014078     0.047971    -0.335833
Gh(H)     -3.042120     0.986298    -0.534262
Gh(H)     -2.130844    -0.132734    -0.089201
O          2.661578    -0.504624    -0.408960
H          3.011063    -0.602591     0.481752
H          1.722111    -0.375198    -0.373612
Gh(O)      1.830655     1.719823     1.752473
Gh(H)      2.368893     0.936770     1.814979
Gh(H)      1.174412     1.527972     1.038808
Gh(O)     -0.230721    -2.491145    -1.068143
Gh(H)      0.708270    -2.537811    -1.376508
Gh(H)     -0.245774    -1.611418    -0.675802

units ang
no_reorient
no_com
symmetry c1
}

set {
basis        aug-cc-pVTZ
scf_type     df
}

energy("mp2")
--------------------------------------------------------------------------

    Molecular point group: c1

    Geometry (in Angstrom), charge = 0, multiplicity = 1:

       Center              X                  Y                   Z               Mass
    ------------   -----------------  -----------------  -----------------  -----------------
      Gh(F)           0.000000000000     0.000000000000     0.000000000000    18.998403162730
      Gh(O)           0.242114000000    -1.452934000000     2.415504000000    15.994914619570
      Gh(H)          -0.616381000000    -1.882187000000     2.541181000000     1.007825032230
      Gh(H)           0.305655000000    -0.919337000000     1.625439000000     1.007825032230
      Gh(O)           0.723027000000     0.126597000000    -2.933588000000    15.994914619570
      Gh(H)           0.475233000000     0.093507000000    -2.011106000000     1.007825032230
      Gh(H)           1.577772000000    -0.349467000000    -3.059852000000     1.007825032230
      Gh(O)          -3.014078000000     0.047971000000    -0.335833000000    15.994914619570
      Gh(H)          -3.042120000000     0.986298000000    -0.534262000000     1.007825032230
      Gh(H)          -2.130844000000    -0.132734000000    -0.089201000000     1.007825032230
         O            2.661578000000    -0.504624000000    -0.408960000000    15.994914619570
         H            3.011063000000    -0.602591000000     0.481752000000     1.007825032230
         H            1.722111000000    -0.375198000000    -0.373612000000     1.007825032230
      Gh(O)           1.830655000000     1.719823000000     1.752473000000    15.994914619570
      Gh(H)           2.368893000000     0.936770000000     1.814979000000     1.007825032230
      Gh(H)           1.174412000000     1.527972000000     1.038808000000     1.007825032230
      Gh(O)          -0.230721000000    -2.491145000000    -1.068143000000    15.994914619570
      Gh(H)           0.708270000000    -2.537811000000    -1.376508000000     1.007825032230
      Gh(H)          -0.245774000000    -1.611418000000    -0.675802000000     1.007825032230

  Charge       = 0
  Multiplicity = 1
  Basis Set: AUG-CC-PVTZ
    Blend: AUG-CC-PVTZ
  Basis Set: (AUG-CC-PVTZ AUX)
    Blend: AUG-CC-PVTZ-JKFIT

    Orbital Energies [Eh]
    ---------------------

    Doubly Occupied:

       1A    -20.564294     2A     -1.350715     3A     -0.728729
       4A     -0.574850     5A     -0.508879

  @DF-RHF Final Energy:   -76.06041794042083

   => Energetics <=

    Nuclear Repulsion Energy =              9.2008197417415243
    One-Electron Energy =                -123.0675400236685135
    Two-Electron Energy =                  37.8063023415061394
    Total Energy =                        -76.0604179404208480
 Dipole X            :        -49.5827129           49.1816304           -0.4010825
 Dipole Y            :          9.4982736           -9.4765627            0.0217110
 Dipole Z            :          6.6039619           -5.9782242            0.6257377
 Magnitude           :                                                    0.7435631
  Basis Set: (AUG-CC-PVTZ AUX)
    Blend: AUG-CC-PVTZ-RI
	 Reference Energy          =     -76.0604179404208338 [Eh]
	 Singles Energy            =      -0.0000000000000000 [Eh]
	 Same-Spin Energy          =      -0.0683504513948780 [Eh]
	 Opposite-Spin Energy      =      -0.2162387204978388 [Eh]
	 Correlation Energy        =      -0.2845891718927168 [Eh]
	 Total Energy              =     -76.3450071123135530 [Eh]

	 ================> DF-SCS-MP2 Energies <==================
	-----------------------------------------------------------
	 SCS Same-Spin Scale       =       0.3333333333333333 [-]
	 SCS Opposite-Spin Scale   =       1.2000000000000000 [-]
	 SCS Same-Spin Energy      =      -0.0227834837982927 [Eh]
	 SCS Opposite-Spin Energy  =      -0.2594864645974065 [Eh]
	 SCS Correlation Energy    =      -0.2822699483956992 [Eh]
	 SCS Total Energy          =     -76.3426878888165277 [Eh]
	-----------------------------------------------------------

*** Psi4 exiting successfully. Buy a developer a beer!
