                               Psi4 1.8.2 release

  ==> Input File <==

--------------------------------------------------------------------------
MEMORY 60 GB

molecule dimer {
-1 1
F          0.000000     0.000000     0.000000
Gh(O)     -0.080310    -1.847083     2.022993
Gh(H)      0.457360    -2.626850     1.740577
Gh(H)      0.018614    -1.169433     1.294985
Gh(O)      2.837448     0.327763    -0.543030
Gh(H)      1.880268     0.381752    -0.427617
Gh(H)      3.126366     1.066889    -0.006077
Gh(O)     -2.870208     0.106987    -0.242889
Gh(H)     -1.947930     0.074098    -0.240484
Gh(H)     -3.032889     0.359006     0.686018
Gh(O)     -0.565191    -2.497966    -1.410818
Gh(H)     -0.439203    -1.753445    -0.804045
Gh(H)     -1.324202    -3.032814    -1.079231
Gh(O)      0.554201     1.968228     1.715688
Gh(H)     -0.376763     2.281724     1.957626
Gh(H)      0.367929     1.318127     1.000096

units ang
no_reorient
no_com
symmetry c1
}

set {
basis        aug-cc-pVTZ
scf_type     df
}

energy("mp2")
--------------------------------------------------------------------------

    Molecular point group: c1

    Geometry (in Angstrom), charge = -1, multiplicity = 1:

       Center              X                  Y                   Z               Mass
    ------------   -----------------  -----------------  -----------------  -----------------
         F            0.000000000000     0.000000000000     0.000000000000    18.998403162730
      Gh(O)          -0.080310000000    -1.847083000000     2.022993000000    15.994914619570
      Gh(H)           0.457360000000    -2.626850000000     1.740577000000     1.007825032230
      Gh(H)           0.018614000000    -1.169433000000     1.294985000000     1.007825032230
      Gh(O)           2.837448000000     0.327763000000    -0.543030000000    15.994914619570
      Gh(H)           1.880268000000     0.381752000000    -0.427617000000     1.007825032230
      Gh(H)           3.126366000000     1.066889000000    -0.006077000000     1.007825032230
      Gh(O)          -2.870208000000     0.106987000000    -0.242889000000    15.994914619570
      Gh(H)          -1.947930000000     0.074098000000    -0.240484000000     1.007825032230
      Gh(H)          -3.032889000000     0.359006000000     0.686018000000     1.007825032230
      Gh(O)          -0.565191000000    -2.497966000000    -1.410818000000    15.994914619570
      Gh(H)          -0.439203000000    -1.753445000000    -0.804045000000     1.007825032230
      Gh(H)          -1.324202000000    -3.032814000000    -1.079231000000     1.007825032230
      Gh(O)           0.554201000000     1.968228000000     1.715688000000    15.994914619570
      Gh(H)          -0.376763000000     2.281724000000     1.957626000000     1.007825032230
      Gh(H)           0.367929000000     1.318127000000     1.000096000000     1.007825032230

  Charge       = -1
  Multiplicity = 1
  Basis Set: AUG-CC-PVTZ
    Blend: AUG-CC-PVTZ
  Basis Set: (AUG-CC-PVTZ AUX)
    Blend: AUG-CC-PVTZ-JKFIT

    Orbital Energies [Eh]
    ---------------------

    Doubly Occupied:

       1A    -25.833566     2A     -1.075886     3A     -0.180932
       4A     -0.180898     5A     -0.180883

  @DF-RHF Final Energy:   -99.45111654872443

   => Energetics <=

    Nuclear Repulsion Energy =              0.0000000000000000
    One-Electron Energy =                -143.9978939517576748
    Two-Electron Energy =                  44.5467774030332393
    Total Energy =                        -99.4511165487244284
 Dipole X            :         -0.0000463            0.0000000           -0.0000463
 Dipole Y            :         -0.0001028            0.0000000           -0.0001028
 Dipole Z            :          0.0002102            0.0000000            0.0002102
 Magnitude           :                                                    0.0002385
  Basis Set: (AUG-CC-PVTZ AUX)
    Blend: AUG-CC-PVTZ-RI
	 Reference Energy          =     -99.4511165487244284 [Eh]
	 Singles Energy            =      -0.0000000000000000 [Eh]
	 Same-Spin Energy          =      -0.0820563744628384 [Eh]
	 Opposite-Spin Energy      =      -0.2301562060541181 [Eh]
	 Correlation Energy        =      -0.3122125805169566 [Eh]
	 Total Energy              =     -99.7633291292413844 [Eh]

	 ================> DF-SCS-MP2 Energies <==================
	-----------------------------------------------------------
	 SCS Same-Spin Scale       =       0.3333333333333333 [-]
	 SCS Opposite-Spin Scale   =       1.2000000000000000 [-]
	 SCS Same-Spin Energy      =      -0.0273521248209461 [Eh]
	 SCS Opposite-Spin Energy  =      -0.2761874472649418 [Eh]
	 SCS Correlation Energy    =      -0.3035395720858879 [Eh]
	 SCS Total Energy          =     -99.7546561208103100 [Eh]
	-----------------------------------------------------------

*** Psi4 exiting successfully. Buy a developer a beer!
