                               Psi4 1.8.2 release

  ==> Input File <==

--------------------------------------------------------------------------
MEMORY 60 GB

molecule dimer {
0 1
Gh(F)      0.000000     0.000000     0.000000
Gh(O)      1.793472    -2.266511    -0.092888
Gh(H)      1.763845    -2.397327     0.845606
Gh(H)      0.978558    -1.723771    -0.253568
Gh(O)      0.660188     0.993220     2.493564
Gh(H)     -0.122404     1.069889     3.027976
Gh(H)      0.503953     0.186710     1.959817
Gh(O)     -0.690392    -1.471906    -2.361938
Gh(H)     -0.556917    -1.124097    -1.508427
Gh(H)     -0.721481    -2.433572    -2.323726
Gh(O)      1.530549     1.044253    -2.077763
Gh(H)      1.110398     1.449909    -2.804950
Gh(H)      0.839571     0.812979    -1.396290
O         -2.357393     1.196648    -0.494342
H         -2.542465     1.666648     0.313393
H         -1.569354     0.722806    -0.305017

units ang
no_reorient
no_com
symmetry c1
}

set {
basis        aug-cc-pVTZ
scf_type     df
}

energy("mp2")
--------------------------------------------------------------------------

    Molecular point group: c1

    Geometry (in Angstrom), charge = 0, multiplicity = 1:

       Center              X                  Y                   Z               Mass
    ------------   -----------------  -----------------  -----------------  -----------------
      Gh(F)           0.000000000000     0.000000000000     0.000000000000    18.998403162730
      Gh(O)           1.793472000000    -2.266511000000    -0.092888000000    15.994914619570
      Gh(H)           1.763845000000    -2.397327000000     0.845606000000     1.007825032230
      Gh(H)           0.978558000000    -1.723771000000    -0.253568000000     1.007825032230
      Gh(O)           0.660188000000     0.993220000000     2.493564000000    15.994914619570
      Gh(H)          -0.122404000000     1.069889000000     3.027976000000     1.007825032230
      Gh(H)           0.503953000000     0.186710000000     1.959817000000     1.007825032230
      Gh(O)          -0.690392000000    -1.471906000000    -2.361938000000    15.994914619570
      Gh(H)          -0.556917000000    -1.124097000000    -1.508427000000     1.007825032230
      Gh(H)          -0.721481000000    -2.433572000000    -2.323726000000     1.007825032230
      Gh(O)           1.530549000000     1.044253000000    -2.077763000000    15.994914619570
      Gh(H)           1.110398000000     1.449909000000    -2.804950000000     1.007825032230
      Gh(H)           0.839571000000     0.812979000000    -1.396290000000     1.007825032230
         O           -2.357393000000     1.196648000000    -0.494342000000    15.994914619570
         H           -2.542465000000     1.666648000000     0.313393000000     1.007825032230
         H           -1.569354000000     0.722806000000    -0.305017000000     1.007825032230

  Charge       = 0
  Multiplicity = 1
  Basis Set: AUG-CC-PVTZ
    Blend: AUG-CC-PVTZ
  Basis Set: (AUG-CC-PVTZ AUX)
    Blend: AUG-CC-PVTZ-JKFIT

    Orbital Energies [Eh]
    ---------------------

    Doubly Occupied:

       1A    -20.565306     2A     -1.360058     3A     -0.723055
       4A     -0.588191     5A     -0.511476

  @DF-RHF Final Energy:   -76.06100379133534

   => Energetics <=

    Nuclear Repulsion Energy =              9.3081805017168726
    One-Electron Energy =                -123.2421965150089704
    Two-Electron Energy =                  37.8730122219567562
    Total Energy =                        -76.0610037913353381
 Dipole X            :         43.8140860          -43.4088289            0.4052571
 Dipole Y            :        -22.6106417           22.6061096           -0.0045322
 Dipole Z            :          8.1238932           -7.4575396            0.6663537
 Magnitude           :                                                    0.7799238
  Basis Set: (AUG-CC-PVTZ AUX)
    Blend: AUG-CC-PVTZ-RI
	 Reference Energy          =     -76.0610037913353381 [Eh]
	 Singles Energy            =      -0.0000000000000000 [Eh]
	 Same-Spin Energy          =      -0.0682209992998403 [Eh]
	 Opposite-Spin Energy      =      -0.2155645876724518 [Eh]
	 Correlation Energy        =      -0.2837855869722921 [Eh]
	 Total Energy              =     -76.3447893783076239 [Eh]

	 ================> DF-SCS-MP2 Energies <==================
	-----------------------------------------------------------
	 SCS Same-Spin Scale       =       0.3333333333333333 [-]
	 SCS Opposite-Spin Scale   =       1.2000000000000000 [-]
	 SCS Same-Spin Energy      =      -0.0227403330999468 [Eh]
	 SCS Opposite-Spin Energy  =      -0.2586775052069422 [Eh]
	 SCS Correlation Energy    =      -0.2814178383068889 [Eh]
	 SCS Total Energy          =     -76.3424216296422316 [Eh]
	-----------------------------------------------------------

*** Psi4 exiting successfully. Buy a developer a beer!
