                               Psi4 1.8.2 release

  ==> Input File <==

--------------------------------------------------------------------------
MEMORY 60 GB

molecule dimer {
0 1
Gh(F)      0.000000     0.000000     0.000000
O         -1.168925    -2.673082    -0.156407
H         -0.532814    -1.976025     0.030081
H         -0.770947    -3.520667    -0.293653
Gh(O)      1.082029     2.520347    -0.603439
Gh(H)      0.672508     1.677488    -0.480498
Gh(H)      0.457772     2.981546    -1.209019
Gh(O)     -0.925839     1.844347     1.960486
Gh(H)     -1.580309     2.274669     1.443794
Gh(H)     -0.581606     1.043570     1.437507
Gh(O)     -2.619341     0.361552    -1.053879
Gh(H)     -1.651449     0.465340    -0.947193
Gh(H)     -2.854127     1.241772    -0.755563
Gh(O)      1.854349    -0.472305    -2.337972
Gh(H)      2.829300    -0.270573    -2.277932
Gh(H)      1.410065    -0.078132    -1.605965
Gh(O)      1.344018    -1.431921     1.858566
Gh(H)      2.072652    -1.020212     2.353761
Gh(H)      0.950753    -0.724812     1.238400

units ang
no_reorient
no_com
symmetry c1
}

set {
basis        aug-cc-pVTZ
scf_type     df
}

energy("mp2")
--------------------------------------------------------------------------

    Molecular point group: c1

    Geometry (in Angstrom), charge = 0, multiplicity = 1:

       Center              X                  Y                   Z               Mass
    ------------   -----------------  -----------------  -----------------  -----------------
      Gh(F)           0.000000000000     0.000000000000     0.000000000000    18.998403162730
         O           -1.168925000000    -2.673082000000    -0.156407000000    15.994914619570
         H           -0.532814000000    -1.976025000000     0.030081000000     1.007825032230
         H           -0.770947000000    -3.520667000000    -0.293653000000     1.007825032230
      Gh(O)           1.082029000000     2.520347000000    -0.603439000000    15.994914619570
      Gh(H)           0.672508000000     1.677488000000    -0.480498000000     1.007825032230
      Gh(H)           0.457772000000     2.981546000000    -1.209019000000     1.007825032230
      Gh(O)          -0.925839000000     1.844347000000     1.960486000000    15.994914619570
      Gh(H)          -1.580309000000     2.274669000000     1.443794000000     1.007825032230
      Gh(H)          -0.581606000000     1.043570000000     1.437507000000     1.007825032230
      Gh(O)          -2.619341000000     0.361552000000    -1.053879000000    15.994914619570
      Gh(H)          -1.651449000000     0.465340000000    -0.947193000000     1.007825032230
      Gh(H)          -2.854127000000     1.241772000000    -0.755563000000     1.007825032230
      Gh(O)           1.854349000000    -0.472305000000    -2.337972000000    15.994914619570
      Gh(H)           2.829300000000    -0.270573000000    -2.277932000000     1.007825032230
      Gh(H)           1.410065000000    -0.078132000000    -1.605965000000     1.007825032230
      Gh(O)           1.344018000000    -1.431921000000     1.858566000000    15.994914619570
      Gh(H)           2.072652000000    -1.020212000000     2.353761000000     1.007825032230
      Gh(H)           0.950753000000    -0.724812000000     1.238400000000     1.007825032230

  Charge       = 0
  Multiplicity = 1
  Basis Set: AUG-CC-PVTZ
    Blend: AUG-CC-PVTZ
  Basis Set: (AUG-CC-PVTZ AUX)
    Blend: AUG-CC-PVTZ-JKFIT

    Orbital Energies [Eh]
    ---------------------

    Doubly Occupied:

       1A    -20.562377     2A     -1.348927     3A     -0.736007
       4A     -0.568033     5A     -0.507889

  @DF-RHF Final Energy:   -76.05931923483300

   => Energetics <=

    Nuclear Repulsion Energy =              9.2058312512246854
    One-Electron Energy =                -123.0838329570973286
    Two-Electron Energy =                  37.8186824710396365
    Total Energy =                        -76.0593192348330120
 Dipole X            :         20.8449755          -20.1353361            0.7096394
 Dipole Y            :         50.6934068          -50.7983856           -0.1049788
 Dipole Z            :          2.8962553           -2.8626100            0.0336452
 Magnitude           :                                                    0.7181508
  Basis Set: (AUG-CC-PVTZ AUX)
    Blend: AUG-CC-PVTZ-RI
	 Reference Energy          =     -76.0593192348329978 [Eh]
	 Singles Energy            =      -0.0000000000000000 [Eh]
	 Same-Spin Energy          =      -0.0682740971950879 [Eh]
	 Opposite-Spin Energy      =      -0.2153632415233182 [Eh]
	 Correlation Energy        =      -0.2836373387184061 [Eh]
	 Total Energy              =     -76.3429565735514046 [Eh]

	 ================> DF-SCS-MP2 Energies <==================
	-----------------------------------------------------------
	 SCS Same-Spin Scale       =       0.3333333333333333 [-]
	 SCS Opposite-Spin Scale   =       1.2000000000000000 [-]
	 SCS Same-Spin Energy      =      -0.0227580323983626 [Eh]
	 SCS Opposite-Spin Energy  =      -0.2584358898279818 [Eh]
	 SCS Correlation Energy    =      -0.2811939222263444 [Eh]
	 SCS Total Energy          =     -76.3405131570593483 [Eh]
	-----------------------------------------------------------

*** Psi4 exiting successfully. Buy a developer a beer!
