                               Psi4 1.9 release

  ==> Input File <==

--------------------------------------------------------------------------
MEMORY 60 GB

molecule dimer {
-1 1
F      0.000000     0.000000     0.000000
--
0 1
O     -2.422908     0.436443    -1.499482
H     -1.583421     0.540873    -1.128320
H     -3.067179     0.942256    -0.943592
O     -1.782269    -1.451054     1.490475
H     -1.155844    -0.872265     0.947767
H     -2.169082    -0.755494     2.122596
O      1.567395     0.658397    -2.101903
H      1.968802    -0.162329    -2.355360
H      1.332041     0.650555    -1.175808
O     -0.388868    -1.935975    -2.120670
H      0.312952    -1.834528    -2.762104
H     -0.331122    -1.285311    -1.418455
O      1.307341    -2.198390     1.234552
H      0.748192    -1.574726     0.741286
H      0.754588    -2.889530     1.584528
O     -0.030587     1.864002     2.308776
H      0.162209     1.252108     1.618688
H      0.368553     1.392861     3.076085

units ang
no_reorient
no_com
symmetry c1
}

set {
basis        aug-cc-pVTZ
scf_type     df
}

energy("mp2", bsse_type="cp")
--------------------------------------------------------------------------

                               Psi4 1.9 release
    Molecular point group: c1
  Charge       = 0
  Multiplicity = 1
  Basis Set: AUG-CC-PVTZ
    Blend: AUG-CC-PVTZ
  Basis Set: (AUG-CC-PVTZ AUX)
    Blend: AUG-CC-PVTZ-JKFIT
  @DF-RHF Final Energy:  -456.32486015367158
    Total Energy =                       -456.3248601536715796
 Dipole X            :         31.8981450          -31.4799630            0.4181820
 Dipole Y            :         48.7113774          -48.3923825            0.3189949
 Dipole Z            :         10.9159814           -9.8241287            1.0918528
 Magnitude           :                                                    1.2119309
  Basis Set: (AUG-CC-PVTZ AUX)
    Blend: AUG-CC-PVTZ-RI
	 Reference Energy          =    -456.3248601536715796 [Eh]
	 Singles Energy            =      -0.0000000000000000 [Eh]
	 Same-Spin Energy          =      -0.4152914221929874 [Eh]
	 Opposite-Spin Energy      =      -1.3046154211789156 [Eh]
	 Correlation Energy        =      -1.7199068433719029 [Eh]
	 Total Energy              =    -458.0447669970434958 [Eh]
	 SCS Total Energy          =    -458.0288291331506230 [Eh]
                               Psi4 1.9 release
    Molecular point group: c1
  Multiplicity = 1
  Basis Set: AUG-CC-PVTZ
    Blend: AUG-CC-PVTZ
  Basis Set: (AUG-CC-PVTZ AUX)
    Blend: AUG-CC-PVTZ-JKFIT
  @DF-RHF Final Energy:   -99.45115373360161
    Total Energy =                        -99.4511537336016005
  Basis Set: (AUG-CC-PVTZ AUX)
	 Singles Energy            =      -0.0000000000000000 [Eh]
	 Same-Spin Energy          =      -0.0820764222326778 [Eh]
	 Opposite-Spin Energy      =      -0.2302684727028359 [Eh]
	 Correlation Energy        =      -0.3123448949355137 [Eh]
	 Total Energy              =     -99.7634986285371355 [Eh]
	 SCS Total Energy          =     -99.7548347082559133 [Eh]
                               Psi4 1.9 release
    Molecular point group: c1

    Geometry (in Bohr), charge = -1, multiplicity = 1:

       Center              X                  Y                   Z               Mass
    ------------   -----------------  -----------------  -----------------  -----------------
         F            0.000000000000     0.000000000000     0.000000000000    18.998403162730
         O           -4.578632547181     0.824757739373    -2.833610310054    15.994914619570
         H           -2.992232031299     1.022101838655    -2.132215781877     1.007825032230
         H           -5.796128287756     1.780605780069    -1.783130454173     1.007825032230
         O           -3.368000291894    -2.742094653250     2.816589546842    15.994914619570
         H           -2.184228603754    -1.648341958822     1.791020060747     1.007825032230
         H           -4.098970923660    -1.427676749427     4.011125114992     1.007825032230
         O            2.961947280412     1.244190011823    -3.972021012278    15.994914619570
         H            3.720496575254    -0.306757352219    -4.450985326858     1.007825032230
         H            2.517192677881     1.229370779547    -2.221955096122     1.007825032230
         O           -0.734854018955    -3.658462535733    -4.007485502475    15.994914619570
         H            0.591393570414    -3.466755489484    -5.219620090032     1.007825032230
         H           -0.625729894114    -2.428885776038    -2.680491471286     1.007825032230
         O            2.470516442582    -4.154355016945     2.332965167636    15.994914619570
         H            1.413877969259    -2.975800862638     1.400827520636     1.007825032230
         H            1.425964657557    -5.460420331294     2.994323958119     1.007825032230
         O           -0.057801052999     3.522453277306     4.362954325030    15.994914619570
         H            0.306530585084     2.366141199495     3.058877002565     1.007825032230
         H            0.696464232716     2.632125820831     5.812958188629     1.007825032230

  Charge       = -1
  Multiplicity = 1
  Basis Set: AUG-CC-PVTZ
    Blend: AUG-CC-PVTZ
  Basis Set: (AUG-CC-PVTZ AUX)
    Blend: AUG-CC-PVTZ-JKFIT

    Orbital Energies [Eh]
    ---------------------

    Doubly Occupied:

       1A    -26.011364     2A    -20.432040     3A    -20.410538
       4A    -20.408255     5A    -20.405098     6A    -20.402743
       7A    -20.396473     8A     -1.280092     9A     -1.217455
      10A     -1.200609    11A     -1.193986    12A     -1.188797
      13A     -1.183694    14A     -1.167512    15A     -0.585926
      16A     -0.576831    17A     -0.571097    18A     -0.569386
      19A     -0.561473    20A     -0.528314    21A     -0.461297
      22A     -0.440582    23A     -0.428911    24A     -0.426386
      25A     -0.422444    26A     -0.413624    27A     -0.377178
      28A     -0.372196    29A     -0.367673    30A     -0.365501
      31A     -0.354229    32A     -0.352016    33A     -0.347338
      34A     -0.341500    35A     -0.340623

  @DF-RHF Final Energy:  -555.91843763372128

   => Energetics <=

    Nuclear Repulsion Energy =            356.8469152509013043
    One-Electron Energy =               -1493.3243283722956676
    Two-Electron Energy =                 580.5589754876731376
    Total Energy =                       -555.9184376337212825
 Dipole X            :         32.1452871          -31.4799630            0.6653241
 Dipole Y            :         49.1563189          -48.3923825            0.7639364
 Dipole Z            :         10.8553377           -9.8241287            1.0312090
 Magnitude           :                                                    1.4455611
  Basis Set: (AUG-CC-PVTZ AUX)
    Blend: AUG-CC-PVTZ-RI
	 Reference Energy          =    -555.9184376337212825 [Eh]
	 Singles Energy            =      -0.0000000000000000 [Eh]
	 Same-Spin Energy          =      -0.5029235981826107 [Eh]
	 Opposite-Spin Energy      =      -1.5338677414808013 [Eh]
	 Correlation Energy        =      -2.0367913396634121 [Eh]
	 Total Energy              =    -557.9552289733846919 [Eh]

	 ================> DF-SCS-MP2 Energies <==================
	-----------------------------------------------------------
	 SCS Same-Spin Scale       =       0.3333333333333333 [-]
	 SCS Opposite-Spin Scale   =       1.2000000000000000 [-]
	 SCS Same-Spin Energy      =      -0.1676411993942035 [Eh]
	 SCS Opposite-Spin Energy  =      -1.8406412897769615 [Eh]
	 SCS Correlation Energy    =      -2.0082824891711653 [Eh]
	 SCS Total Energy          =    -557.9267201228924478 [Eh]
	-----------------------------------------------------------

*** Psi4 exiting successfully. Buy a developer a beer!
