                               Psi4 1.8.2 release

  ==> Input File <==

--------------------------------------------------------------------------
MEMORY 60 GB

molecule dimer {
0 1
Gh(F)      0.000000     0.000000     0.000000
Gh(O)     -0.318921     0.096636     2.907600
Gh(H)     -0.209107     0.035971     1.908927
Gh(H)      0.113370     0.903125     3.133819
Gh(O)     -1.624836     2.111763    -0.674676
Gh(H)     -1.136960     1.329449    -0.328407
Gh(H)     -1.463411     2.236115    -1.611825
O          1.830939     2.016220     1.109031
H          1.608996     1.925541     2.025625
H          1.143692     1.515686     0.601146
Gh(O)      1.707563     0.850050    -2.001594
Gh(H)      1.699145     1.727491    -2.482621
Gh(H)      0.964886     0.694880    -1.390422
Gh(O)     -2.207657    -1.687922    -0.160566
Gh(H)     -1.466453    -1.044049    -0.029828
Gh(H)     -3.021094    -1.262992     0.163198

units ang
no_reorient
no_com
symmetry c1
}

set {
basis        aug-cc-pVTZ
scf_type     df
}

energy("mp2")
--------------------------------------------------------------------------

    Molecular point group: c1

    Geometry (in Angstrom), charge = 0, multiplicity = 1:

       Center              X                  Y                   Z               Mass
    ------------   -----------------  -----------------  -----------------  -----------------
      Gh(F)           0.000000000000     0.000000000000     0.000000000000    18.998403162730
      Gh(O)          -0.318921000000     0.096636000000     2.907600000000    15.994914619570
      Gh(H)          -0.209107000000     0.035971000000     1.908927000000     1.007825032230
      Gh(H)           0.113370000000     0.903125000000     3.133819000000     1.007825032230
      Gh(O)          -1.624836000000     2.111763000000    -0.674676000000    15.994914619570
      Gh(H)          -1.136960000000     1.329449000000    -0.328407000000     1.007825032230
      Gh(H)          -1.463411000000     2.236115000000    -1.611825000000     1.007825032230
         O            1.830939000000     2.016220000000     1.109031000000    15.994914619570
         H            1.608996000000     1.925541000000     2.025625000000     1.007825032230
         H            1.143692000000     1.515686000000     0.601146000000     1.007825032230
      Gh(O)           1.707563000000     0.850050000000    -2.001594000000    15.994914619570
      Gh(H)           1.699145000000     1.727491000000    -2.482621000000     1.007825032230
      Gh(H)           0.964886000000     0.694880000000    -1.390422000000     1.007825032230
      Gh(O)          -2.207657000000    -1.687922000000    -0.160566000000    15.994914619570
      Gh(H)          -1.466453000000    -1.044049000000    -0.029828000000     1.007825032230
      Gh(H)          -3.021094000000    -1.262992000000     0.163198000000     1.007825032230

  Charge       = 0
  Multiplicity = 1
  Basis Set: AUG-CC-PVTZ
    Blend: AUG-CC-PVTZ
  Basis Set: (AUG-CC-PVTZ AUX)
    Blend: AUG-CC-PVTZ-JKFIT

    Orbital Energies [Eh]
    ---------------------

    Doubly Occupied:

       1A    -20.568128     2A     -1.346577     3A     -0.715417
       4A     -0.578493     5A     -0.508786

  @DF-RHF Final Energy:   -76.05880127370824

   => Energetics <=

    Nuclear Repulsion Energy =              9.0836031996761228
    One-Electron Energy =                -122.8500036506854087
    Two-Electron Energy =                  37.7075991773010344
    Total Energy =                        -76.0588012737082551
 Dipole X            :        -33.4840508           32.8816125           -0.6024383
 Dipole Y            :        -37.3750292           36.9838054           -0.3912237
 Dipole Z            :        -21.4521258           21.7299966            0.2778708
 Magnitude           :                                                    0.7701948
  Basis Set: (AUG-CC-PVTZ AUX)
    Blend: AUG-CC-PVTZ-RI
	 Reference Energy          =     -76.0588012737082408 [Eh]
	 Singles Energy            =      -0.0000000000000000 [Eh]
	 Same-Spin Energy          =      -0.0685766789899775 [Eh]
	 Opposite-Spin Energy      =      -0.2166598456797037 [Eh]
	 Correlation Energy        =      -0.2852365246696812 [Eh]
	 Total Energy              =     -76.3440377983779257 [Eh]

	 ================> DF-SCS-MP2 Energies <==================
	-----------------------------------------------------------
	 SCS Same-Spin Scale       =       0.3333333333333333 [-]
	 SCS Opposite-Spin Scale   =       1.2000000000000000 [-]
	 SCS Same-Spin Energy      =      -0.0228588929966592 [Eh]
	 SCS Opposite-Spin Energy  =      -0.2599918148156444 [Eh]
	 SCS Correlation Energy    =      -0.2828507078123036 [Eh]
	 SCS Total Energy          =     -76.3416519815205419 [Eh]
	-----------------------------------------------------------

*** Psi4 exiting successfully. Buy a developer a beer!
