                               Psi4 1.9 release

  ==> Input File <==

--------------------------------------------------------------------------
MEMORY 60 GB

molecule dimer {
-1 1
F      0.000000     0.000000     0.000000
--
0 1
O     -1.206754     1.445995    -2.000126
H     -0.743175     0.893122    -1.337335
H     -0.759524     1.330264    -2.863753
O      1.095483    -0.322767     2.616674
H      0.673548    -0.212929     1.764286
H      0.520481     0.121453     3.208852
O     -2.290620    -0.209671     1.348500
H     -2.963418    -0.750440     0.872484
H     -1.471779    -0.213731     0.855990
O      0.125449     2.911282     1.072482
H     -0.291998     2.122485     1.520867
H      0.238880     2.637426     0.191158
O      0.042032    -2.844174    -0.084119
H     -0.661379    -3.010993     0.545538
H      0.052740    -1.870059    -0.098146
O      2.622328     0.650013    -0.846197
H      1.754348     0.759921    -0.394475
H      2.674742     1.478542    -1.440090

units ang
no_reorient
no_com
symmetry c1
}

set {
basis        aug-cc-pVTZ
scf_type     df
}

energy("mp2", bsse_type="cp")
--------------------------------------------------------------------------

                               Psi4 1.9 release
    Molecular point group: c1
  Charge       = 0
  Multiplicity = 1
  Basis Set: AUG-CC-PVTZ
    Blend: AUG-CC-PVTZ
  Basis Set: (AUG-CC-PVTZ AUX)
    Blend: AUG-CC-PVTZ-JKFIT
  @DF-RHF Final Energy:  -456.32662346612329
    Total Energy =                       -456.3266234661232943
 Dipole X            :         -5.1738404            4.0190884           -1.1547520
 Dipole Y            :        -30.8756099           30.8601441           -0.0154658
 Dipole Z            :        -38.0776688           37.1956456           -0.8820232
 Magnitude           :                                                    1.4531539
  Basis Set: (AUG-CC-PVTZ AUX)
    Blend: AUG-CC-PVTZ-RI
	 Reference Energy          =    -456.3266234661232943 [Eh]
	 Singles Energy            =      -0.0000000000000000 [Eh]
	 Same-Spin Energy          =      -0.4153930839197217 [Eh]
	 Opposite-Spin Energy      =      -1.3061866654023575 [Eh]
	 Correlation Energy        =      -1.7215797493220792 [Eh]
	 Total Energy              =    -458.0482032154453691 [Eh]
	 SCS Total Energy          =    -458.0325118259127066 [Eh]
                               Psi4 1.9 release
    Molecular point group: c1
  Multiplicity = 1
  Basis Set: AUG-CC-PVTZ
    Blend: AUG-CC-PVTZ
  Basis Set: (AUG-CC-PVTZ AUX)
    Blend: AUG-CC-PVTZ-JKFIT
  @DF-RHF Final Energy:   -99.45114453511277
    Total Energy =                        -99.4511445351127747
  Basis Set: (AUG-CC-PVTZ AUX)
	 Singles Energy            =      -0.0000000000000000 [Eh]
	 Same-Spin Energy          =      -0.0820839790343289 [Eh]
	 Opposite-Spin Energy      =      -0.2304642402428050 [Eh]
	 Correlation Energy        =      -0.3125482192771339 [Eh]
	 Total Energy              =     -99.7636927543899077 [Eh]
	 SCS Total Energy          =     -99.7550629497489183 [Eh]
                               Psi4 1.9 release
    Molecular point group: c1

    Geometry (in Bohr), charge = -1, multiplicity = 1:

       Center              X                  Y                   Z               Mass
    ------------   -----------------  -----------------  -----------------  -----------------
         F            0.000000000000     0.000000000000     0.000000000000    18.998403162730
         O           -2.280434560801     2.732534528781    -3.779690356407    15.994914619570
         H           -1.404397213287     1.687755976621    -2.527196887989     1.007825032230
         H           -1.435292345712     2.513834634556    -5.411708860958     1.007825032230
         O            2.070162845095    -0.609941232336     4.944797219606    15.994914619570
         H            1.272821252350    -0.402377494168     3.334017346979     1.007825032230
         H            0.983566543504     0.229512907115     6.063851457128     1.007825032230
         O           -4.328644457496    -0.396220766451     2.548295680180    15.994914619570
         H           -5.600048415252    -1.418126073589     1.648755808844     1.007825032230
         H           -2.781259227200    -0.403893054520     1.617586666131     1.007825032230
         O            0.237064252713     5.501525653975     2.026697254483    15.994914619570
         H           -0.551796249181     4.010915355392     2.874022103247     1.007825032230
         H            0.451417776849     4.984012816162     0.361236266690     1.007825032230
         O            0.079428968505    -5.374709913148    -0.158961871947    15.994914619570
         H           -1.249825175129    -5.689952135671     1.030917411030     1.007825032230
         H            0.099664155857    -3.533899348448    -0.185469060309     1.007825032230
         O            4.955481731120     1.228346547987    -1.599080578184    15.994914619570
         H            3.315237248745     1.436042566984    -0.745449713340     1.007825032230
         H            5.054529836259     2.794039444987    -2.721375696011     1.007825032230

  Charge       = -1
  Multiplicity = 1
  Basis Set: AUG-CC-PVTZ
    Blend: AUG-CC-PVTZ
  Basis Set: (AUG-CC-PVTZ AUX)
    Blend: AUG-CC-PVTZ-JKFIT

    Orbital Energies [Eh]
    ---------------------

    Doubly Occupied:

       1A    -26.018431     2A    -20.426356     3A    -20.424191
       4A    -20.418598     5A    -20.415163     6A    -20.408530
       7A    -20.407897     8A     -1.288883     9A     -1.210875
      10A     -1.204930    11A     -1.196287    12A     -1.193770
      13A     -1.192735    14A     -1.183434    15A     -0.582400
      16A     -0.576417    17A     -0.573219    18A     -0.566506
      19A     -0.551601    20A     -0.544193    21A     -0.454191
      22A     -0.447107    23A     -0.441163    24A     -0.436611
      25A     -0.433402    26A     -0.431313    27A     -0.377375
      28A     -0.374874    29A     -0.372015    30A     -0.370809
      31A     -0.361793    32A     -0.358859    33A     -0.357449
      34A     -0.354500    35A     -0.351203

  @DF-RHF Final Energy:  -555.92548693635877

   => Energetics <=

    Nuclear Repulsion Energy =            353.6699225995975553
    One-Electron Energy =               -1486.5766479341073136
    Two-Electron Energy =                 576.9812383981509356
    Total Energy =                       -555.9254869363587659
 Dipole X            :         -5.0177213            4.0190884           -0.9986329
 Dipole Y            :        -30.9510211           30.8601441           -0.0908769
 Dipole Z            :        -38.2423202           37.1956456           -1.0466746
 Magnitude           :                                                    1.4495013
  Basis Set: (AUG-CC-PVTZ AUX)
    Blend: AUG-CC-PVTZ-RI
	 Reference Energy          =    -555.9254869363587659 [Eh]
	 Singles Energy            =      -0.0000000000000000 [Eh]
	 Same-Spin Energy          =      -0.5030261337728803 [Eh]
	 Opposite-Spin Energy      =      -1.5351381788837015 [Eh]
	 Correlation Energy        =      -2.0381643126565816 [Eh]
	 Total Energy              =    -557.9636512490153564 [Eh]

	 ================> DF-SCS-MP2 Energies <==================
	-----------------------------------------------------------
	 SCS Same-Spin Scale       =       0.3333333333333333 [-]
	 SCS Opposite-Spin Scale   =       1.2000000000000000 [-]
	 SCS Same-Spin Energy      =      -0.1676753779242934 [Eh]
	 SCS Opposite-Spin Energy  =      -1.8421658146604418 [Eh]
	 SCS Correlation Energy    =      -2.0098411925847355 [Eh]
	 SCS Total Energy          =    -557.9353281289435245 [Eh]
	-----------------------------------------------------------

*** Psi4 exiting successfully. Buy a developer a beer!
