                               Psi4 1.8.2 release

  ==> Input File <==

--------------------------------------------------------------------------
MEMORY 60 GB

molecule dimer {
0 1
Gh(F)      0.000000     0.000000     0.000000
Gh(O)     -1.168925    -2.673082    -0.156407
Gh(H)     -0.532814    -1.976025     0.030081
Gh(H)     -0.770947    -3.520667    -0.293653
Gh(O)      1.082029     2.520347    -0.603439
Gh(H)      0.672508     1.677488    -0.480498
Gh(H)      0.457772     2.981546    -1.209019
O         -0.925839     1.844347     1.960486
H         -1.580309     2.274669     1.443794
H         -0.581606     1.043570     1.437507
Gh(O)     -2.619341     0.361552    -1.053879
Gh(H)     -1.651449     0.465340    -0.947193
Gh(H)     -2.854127     1.241772    -0.755563
Gh(O)      1.854349    -0.472305    -2.337972
Gh(H)      2.829300    -0.270573    -2.277932
Gh(H)      1.410065    -0.078132    -1.605965
Gh(O)      1.344018    -1.431921     1.858566
Gh(H)      2.072652    -1.020212     2.353761
Gh(H)      0.950753    -0.724812     1.238400

units ang
no_reorient
no_com
symmetry c1
}

set {
basis        aug-cc-pVTZ
scf_type     df
}

energy("mp2")
--------------------------------------------------------------------------

    Molecular point group: c1

    Geometry (in Angstrom), charge = 0, multiplicity = 1:

       Center              X                  Y                   Z               Mass
    ------------   -----------------  -----------------  -----------------  -----------------
      Gh(F)           0.000000000000     0.000000000000     0.000000000000    18.998403162730
      Gh(O)          -1.168925000000    -2.673082000000    -0.156407000000    15.994914619570
      Gh(H)          -0.532814000000    -1.976025000000     0.030081000000     1.007825032230
      Gh(H)          -0.770947000000    -3.520667000000    -0.293653000000     1.007825032230
      Gh(O)           1.082029000000     2.520347000000    -0.603439000000    15.994914619570
      Gh(H)           0.672508000000     1.677488000000    -0.480498000000     1.007825032230
      Gh(H)           0.457772000000     2.981546000000    -1.209019000000     1.007825032230
         O           -0.925839000000     1.844347000000     1.960486000000    15.994914619570
         H           -1.580309000000     2.274669000000     1.443794000000     1.007825032230
         H           -0.581606000000     1.043570000000     1.437507000000     1.007825032230
      Gh(O)          -2.619341000000     0.361552000000    -1.053879000000    15.994914619570
      Gh(H)          -1.651449000000     0.465340000000    -0.947193000000     1.007825032230
      Gh(H)          -2.854127000000     1.241772000000    -0.755563000000     1.007825032230
      Gh(O)           1.854349000000    -0.472305000000    -2.337972000000    15.994914619570
      Gh(H)           2.829300000000    -0.270573000000    -2.277932000000     1.007825032230
      Gh(H)           1.410065000000    -0.078132000000    -1.605965000000     1.007825032230
      Gh(O)           1.344018000000    -1.431921000000     1.858566000000    15.994914619570
      Gh(H)           2.072652000000    -1.020212000000     2.353761000000     1.007825032230
      Gh(H)           0.950753000000    -0.724812000000     1.238400000000     1.007825032230

  Charge       = 0
  Multiplicity = 1
  Basis Set: AUG-CC-PVTZ
    Blend: AUG-CC-PVTZ
  Basis Set: (AUG-CC-PVTZ AUX)
    Blend: AUG-CC-PVTZ-JKFIT

    Orbital Energies [Eh]
    ---------------------

    Doubly Occupied:

       1A    -20.568522     2A     -1.342170     3A     -0.714209
       4A     -0.573214     5A     -0.507631

  @DF-RHF Final Energy:   -76.05565633402173

   => Energetics <=

    Nuclear Repulsion Energy =              9.0101730976561019
    One-Electron Energy =                -122.7201618486408989
    Two-Electron Energy =                  37.6543324169630580
    Total Energy =                        -76.0556563340217338
 Dipole X            :         17.8684339          -18.0820844           -0.2136505
 Dipole Y            :        -34.3904145           34.1530486           -0.2373659
 Dipole Z            :        -35.7742947           35.0831227           -0.6911720
 Magnitude           :                                                    0.7613855
  Basis Set: (AUG-CC-PVTZ AUX)
    Blend: AUG-CC-PVTZ-RI
	 Reference Energy          =     -76.0556563340217338 [Eh]
	 Singles Energy            =      -0.0000000000000000 [Eh]
	 Same-Spin Energy          =      -0.0686831422477917 [Eh]
	 Opposite-Spin Energy      =      -0.2170097813691506 [Eh]
	 Correlation Energy        =      -0.2856929236169423 [Eh]
	 Total Energy              =     -76.3413492576386830 [Eh]

	 ================> DF-SCS-MP2 Energies <==================
	-----------------------------------------------------------
	 SCS Same-Spin Scale       =       0.3333333333333333 [-]
	 SCS Opposite-Spin Scale   =       1.2000000000000000 [-]
	 SCS Same-Spin Energy      =      -0.0228943807492639 [Eh]
	 SCS Opposite-Spin Energy  =      -0.2604117376429807 [Eh]
	 SCS Correlation Energy    =      -0.2833061183922446 [Eh]
	 SCS Total Energy          =     -76.3389624524139805 [Eh]
	-----------------------------------------------------------

*** Psi4 exiting successfully. Buy a developer a beer!
