                               Psi4 1.9 release

  ==> Input File <==

--------------------------------------------------------------------------
MEMORY 60 GB

molecule dimer {
-1 1
F      0.000000     0.000000     0.000000
--
0 1
O      2.300634    -1.333306    -0.902108
H      1.393934    -1.048189    -0.537281
H      2.196325    -1.676113    -1.778413
O     -0.721455     0.039200     2.664180
H     -0.478323    -0.147144     1.721719
H     -0.301277    -0.711256     3.142866
O     -1.968178     1.181669    -1.178721
H     -2.732253     0.755644    -0.806522
H     -1.213738     0.822443    -0.721049
O     -2.147115    -1.870979    -0.798426
H     -1.363119    -1.488592    -0.414049
H     -2.860249    -1.280709    -0.613524
O      0.601987     2.534872     1.009589
H      0.625186     1.602289     0.786548
H      1.072015     2.565401     1.876249

units ang
no_reorient
no_com
symmetry c1
}

set {
basis        aug-cc-pVTZ
scf_type     df
}

energy("mp2", bsse_type="cp")
--------------------------------------------------------------------------

                               Psi4 1.9 release
    Molecular point group: c1
  Charge       = 0
  Multiplicity = 1
  Basis Set: AUG-CC-PVTZ
    Blend: AUG-CC-PVTZ
  Basis Set: (AUG-CC-PVTZ AUX)
    Blend: AUG-CC-PVTZ-JKFIT
  @DF-RHF Final Energy:  -380.27060431209122
    Total Energy =                       -380.2706043120912227
 Dipole X            :         36.2557838          -36.1589929            0.0967909
 Dipole Y            :         -8.2422673            7.1912054           -1.0510619
 Dipole Z            :        -16.3134984           17.0314515            0.7179531
 Magnitude           :                                                    1.2765407
  Basis Set: (AUG-CC-PVTZ AUX)
    Blend: AUG-CC-PVTZ-RI
	 Reference Energy          =    -380.2706043120912227 [Eh]
	 Singles Energy            =      -0.0000000000000000 [Eh]
	 Same-Spin Energy          =      -0.3453871578712360 [Eh]
	 Opposite-Spin Energy      =      -1.0865600941794806 [Eh]
	 Correlation Energy        =      -1.4319472520507166 [Eh]
	 Total Energy              =    -381.7025515641419133 [Eh]
	 SCS Total Energy          =    -381.6896054777303675 [Eh]
                               Psi4 1.9 release
    Molecular point group: c1
  Multiplicity = 1
  Basis Set: AUG-CC-PVTZ
    Blend: AUG-CC-PVTZ
  Basis Set: (AUG-CC-PVTZ AUX)
    Blend: AUG-CC-PVTZ-JKFIT
  @DF-RHF Final Energy:   -99.45112336005529
    Total Energy =                        -99.4511233600552771
  Basis Set: (AUG-CC-PVTZ AUX)
	 Singles Energy            =      -0.0000000000000000 [Eh]
	 Same-Spin Energy          =      -0.0820684729572657 [Eh]
	 Opposite-Spin Energy      =      -0.2303034980437382 [Eh]
	 Correlation Energy        =      -0.3123719710010040 [Eh]
	 Total Energy              =     -99.7634953310562906 [Eh]
	 SCS Total Energy          =     -99.7548437153601952 [Eh]
                               Psi4 1.9 release
    Molecular point group: c1

    Geometry (in Bohr), charge = -1, multiplicity = 1:

       Center              X                  Y                   Z               Mass
    ------------   -----------------  -----------------  -----------------  -----------------
         F            0.000000000000     0.000000000000     0.000000000000    18.998403162730
         O            4.347568174917    -2.519583181430    -1.704737055585    15.994914619570
         H            2.634153496964    -1.980790137718    -1.015313942412     1.007825032230
         H            4.150452732496    -3.167394525319    -3.360713507954     1.007825032230
         O           -1.363352361842     0.074077264118     5.034570548922    15.994914619570
         H           -0.903899469507    -0.278061861004     3.253577374997     1.007825032230
         H           -0.569331017900    -1.344079045089     5.939155989013     1.007825032230
         O           -3.719317386151     2.233030780944    -2.227459868326    15.994914619570
         H           -5.163209875461     1.427960208345    -1.524105694156     1.007825032230
         H           -2.293632408061     1.554192023800    -1.362585133035     1.007825032230
         O           -4.057459309862    -3.535637896483    -1.508806471445    15.994914619570
         H           -2.575921586408    -2.813031192548    -0.782439212520     1.007825032230
         H           -5.405087260615    -2.420189256409    -1.159392331395     1.007825032230
         O            1.137590561086     4.790213843092     1.907846709275    15.994914619570
         H            1.181430317470     3.027887383834     1.486360304527     1.007825032230
         H            2.025814752383     4.847905291976     3.545596753164     1.007825032230

  Charge       = -1
  Multiplicity = 1
  Basis Set: AUG-CC-PVTZ
    Blend: AUG-CC-PVTZ
  Basis Set: (AUG-CC-PVTZ AUX)
    Blend: AUG-CC-PVTZ-JKFIT

    Orbital Energies [Eh]
    ---------------------

    Doubly Occupied:

       1A    -26.003641     2A    -20.416902     3A    -20.414394
       4A    -20.405080     5A    -20.396368     6A    -20.378566
       7A     -1.274723     8A     -1.211910     9A     -1.185661
      10A     -1.179819    11A     -1.175378    12A     -1.173956
      13A     -0.585929    14A     -0.561566    15A     -0.552441
      16A     -0.547585    17A     -0.537095    18A     -0.450967
      19A     -0.437962    20A     -0.424763    21A     -0.420089
      22A     -0.410941    23A     -0.370341    24A     -0.363195
      25A     -0.360964    26A     -0.353198    27A     -0.349426
      28A     -0.345241    29A     -0.336412    30A     -0.326934

  @DF-RHF Final Energy:  -479.85470095868845

   => Energetics <=

    Nuclear Repulsion Energy =            265.3635331213361042
    One-Electron Energy =               -1204.5335647521073952
    Two-Electron Energy =                 459.3153306720828368
    Total Energy =                       -479.8547009586884542
 Dipole X            :         36.5378244          -36.1589929            0.3788315
 Dipole Y            :         -8.3062825            7.1912054           -1.1150772
 Dipole Z            :        -16.4911712           17.0314515            0.5402803
 Magnitude           :                                                    1.2956903
  Basis Set: (AUG-CC-PVTZ AUX)
    Blend: AUG-CC-PVTZ-RI
	 Reference Energy          =    -479.8547009586884542 [Eh]
	 Singles Energy            =      -0.0000000000000000 [Eh]
	 Same-Spin Energy          =      -0.4332402097069131 [Eh]
	 Opposite-Spin Energy      =      -1.3159994799527663 [Eh]
	 Correlation Energy        =      -1.7492396896596794 [Eh]
	 Total Energy              =    -481.6039406483481571 [Eh]

	 ================> DF-SCS-MP2 Energies <==================
	-----------------------------------------------------------
	 SCS Same-Spin Scale       =       0.3333333333333333 [-]
	 SCS Opposite-Spin Scale   =       1.2000000000000000 [-]
	 SCS Same-Spin Energy      =      -0.1444134032356377 [Eh]
	 SCS Opposite-Spin Energy  =      -1.5791993759433196 [Eh]
	 SCS Correlation Energy    =      -1.7236127791789573 [Eh]
	 SCS Total Energy          =    -481.5783137378674041 [Eh]
	-----------------------------------------------------------

*** Psi4 exiting successfully. Buy a developer a beer!
