                               Psi4 1.8.2 release

  ==> Input File <==

--------------------------------------------------------------------------
MEMORY 60 GB

molecule dimer {
-1 1
F          0.000000     0.000000     0.000000
O          0.242114    -1.452934     2.415504
H         -0.616381    -1.882187     2.541181
H          0.305655    -0.919337     1.625439
O          0.723027     0.126597    -2.933588
H          0.475233     0.093507    -2.011106
H          1.577772    -0.349467    -3.059852
O         -3.014078     0.047971    -0.335833
H         -3.042120     0.986298    -0.534262
H         -2.130844    -0.132734    -0.089201
O          2.661578    -0.504624    -0.408960
H          3.011063    -0.602591     0.481752
H          1.722111    -0.375198    -0.373612
O          1.830655     1.719823     1.752473
H          2.368893     0.936770     1.814979
H          1.174412     1.527972     1.038808
O         -0.230721    -2.491145    -1.068143
H          0.708270    -2.537811    -1.376508
H         -0.245774    -1.611418    -0.675802

units ang
no_reorient
no_com
symmetry c1
}

set {
basis        aug-cc-pVTZ
scf_type     df
}

energy("mp2")
--------------------------------------------------------------------------

    Molecular point group: c1

    Geometry (in Angstrom), charge = -1, multiplicity = 1:

       Center              X                  Y                   Z               Mass
    ------------   -----------------  -----------------  -----------------  -----------------
         F            0.000000000000     0.000000000000     0.000000000000    18.998403162730
         O            0.242114000000    -1.452934000000     2.415504000000    15.994914619570
         H           -0.616381000000    -1.882187000000     2.541181000000     1.007825032230
         H            0.305655000000    -0.919337000000     1.625439000000     1.007825032230
         O            0.723027000000     0.126597000000    -2.933588000000    15.994914619570
         H            0.475233000000     0.093507000000    -2.011106000000     1.007825032230
         H            1.577772000000    -0.349467000000    -3.059852000000     1.007825032230
         O           -3.014078000000     0.047971000000    -0.335833000000    15.994914619570
         H           -3.042120000000     0.986298000000    -0.534262000000     1.007825032230
         H           -2.130844000000    -0.132734000000    -0.089201000000     1.007825032230
         O            2.661578000000    -0.504624000000    -0.408960000000    15.994914619570
         H            3.011063000000    -0.602591000000     0.481752000000     1.007825032230
         H            1.722111000000    -0.375198000000    -0.373612000000     1.007825032230
         O            1.830655000000     1.719823000000     1.752473000000    15.994914619570
         H            2.368893000000     0.936770000000     1.814979000000     1.007825032230
         H            1.174412000000     1.527972000000     1.038808000000     1.007825032230
         O           -0.230721000000    -2.491145000000    -1.068143000000    15.994914619570
         H            0.708270000000    -2.537811000000    -1.376508000000     1.007825032230
         H           -0.245774000000    -1.611418000000    -0.675802000000     1.007825032230

  Charge       = -1
  Multiplicity = 1
  Basis Set: AUG-CC-PVTZ
    Blend: AUG-CC-PVTZ
  Basis Set: (AUG-CC-PVTZ AUX)
    Blend: AUG-CC-PVTZ-JKFIT

    Orbital Energies [Eh]
    ---------------------

    Doubly Occupied:

       1A    -26.015764     2A    -20.426289     3A    -20.425340
       4A    -20.420031     5A    -20.418810     6A    -20.410244
       7A    -20.402263     8A     -1.282897     9A     -1.217575
      10A     -1.214489    11A     -1.206320    12A     -1.197606
      13A     -1.194607    14A     -1.182208    15A     -0.602279
      16A     -0.587765    17A     -0.584119    18A     -0.575589
      19A     -0.572374    20A     -0.542777    21A     -0.462933
      22A     -0.446879    23A     -0.443995    24A     -0.437991
      25A     -0.430475    26A     -0.423383    27A     -0.380240
      28A     -0.373280    29A     -0.369840    30A     -0.369140
      31A     -0.366680    32A     -0.364434    33A     -0.362212
      34A     -0.356912    35A     -0.342220

  @DF-RHF Final Energy:  -555.92766125188746

   => Energetics <=

    Nuclear Repulsion Energy =            354.9154741842065164
    One-Electron Energy =               -1488.8663458904266008
    Two-Electron Energy =                 578.0232104543326841
    Total Energy =                       -555.9276612518874572
 Dipole X            :        -43.2669306           43.4805006            0.2135699
 Dipole Y            :         48.3778645          -47.8113787            0.5664858
 Dipole Z            :         10.3026697           -9.9145615            0.3881082
 Magnitude           :                                                    0.7191288
  Basis Set: (AUG-CC-PVTZ AUX)
    Blend: AUG-CC-PVTZ-RI
	 Reference Energy          =    -555.9276612518874572 [Eh]
	 Singles Energy            =      -0.0000000000000000 [Eh]
	 Same-Spin Energy          =      -0.5018421525162232 [Eh]
	 Opposite-Spin Energy      =      -1.5319014631635273 [Eh]
	 Correlation Energy        =      -2.0337436156797506 [Eh]
	 Total Energy              =    -557.9614048675672393 [Eh]

	 ================> DF-SCS-MP2 Energies <==================
	-----------------------------------------------------------
	 SCS Same-Spin Scale       =       0.3333333333333333 [-]
	 SCS Opposite-Spin Scale   =       1.2000000000000000 [-]
	 SCS Same-Spin Energy      =      -0.1672807175054077 [Eh]
	 SCS Opposite-Spin Energy  =      -1.8382817557962325 [Eh]
	 SCS Correlation Energy    =      -2.0055624733016404 [Eh]
	 SCS Total Energy          =    -557.9332237251891229 [Eh]
	-----------------------------------------------------------

*** Psi4 exiting successfully. Buy a developer a beer!
