                               Psi4 1.8.2 release

  ==> Input File <==

--------------------------------------------------------------------------
MEMORY 60 GB

molecule dimer {
-1 1
F          0.000000     0.000000     0.000000
O          0.201552     2.379442     1.269283
H          1.013565     2.687047     0.939558
H          0.155342     1.525594     0.845189
O          0.236368    -1.899810    -2.155158
H          0.057747    -2.671067    -1.620418
H          0.039340    -1.225771    -1.496507
O         -1.902528    -1.173327     1.751797
H         -2.408246    -0.467276     2.231861
H         -1.241179    -0.782759     1.178792
O         -2.154508     1.404000    -1.305374
H         -1.492883     0.912606    -0.734862
H         -1.805542     2.277133    -1.424237
O          1.499428    -1.231164     1.872563
H          0.915236    -1.644768     2.531361
H          1.009227    -0.739951     1.204952

units ang
no_reorient
no_com
symmetry c1
}

set {
basis        aug-cc-pVTZ
scf_type     df
}

energy("mp2")
--------------------------------------------------------------------------

    Molecular point group: c1

    Geometry (in Angstrom), charge = -1, multiplicity = 1:

       Center              X                  Y                   Z               Mass
    ------------   -----------------  -----------------  -----------------  -----------------
         F            0.000000000000     0.000000000000     0.000000000000    18.998403162730
         O            0.201552000000     2.379442000000     1.269283000000    15.994914619570
         H            1.013565000000     2.687047000000     0.939558000000     1.007825032230
         H            0.155342000000     1.525594000000     0.845189000000     1.007825032230
         O            0.236368000000    -1.899810000000    -2.155158000000    15.994914619570
         H            0.057747000000    -2.671067000000    -1.620418000000     1.007825032230
         H            0.039340000000    -1.225771000000    -1.496507000000     1.007825032230
         O           -1.902528000000    -1.173327000000     1.751797000000    15.994914619570
         H           -2.408246000000    -0.467276000000     2.231861000000     1.007825032230
         H           -1.241179000000    -0.782759000000     1.178792000000     1.007825032230
         O           -2.154508000000     1.404000000000    -1.305374000000    15.994914619570
         H           -1.492883000000     0.912606000000    -0.734862000000     1.007825032230
         H           -1.805542000000     2.277133000000    -1.424237000000     1.007825032230
         O            1.499428000000    -1.231164000000     1.872563000000    15.994914619570
         H            0.915236000000    -1.644768000000     2.531361000000     1.007825032230
         H            1.009227000000    -0.739951000000     1.204952000000     1.007825032230

  Charge       = -1
  Multiplicity = 1
  Basis Set: AUG-CC-PVTZ
    Blend: AUG-CC-PVTZ
  Basis Set: (AUG-CC-PVTZ AUX)
    Blend: AUG-CC-PVTZ-JKFIT

    Orbital Energies [Eh]
    ---------------------

    Doubly Occupied:

       1A    -26.007120     2A    -20.414370     3A    -20.404708
       4A    -20.404032     5A    -20.402633     6A    -20.391671
       7A     -1.276603     8A     -1.206131     9A     -1.194061
      10A     -1.190669    11A     -1.183504    12A     -1.173671
      13A     -0.573205    14A     -0.566722    15A     -0.565091
      16A     -0.552291    17A     -0.543435    18A     -0.451351
      19A     -0.440054    20A     -0.430151    21A     -0.429050
      22A     -0.411438    23A     -0.365322    24A     -0.362220
      25A     -0.358847    26A     -0.357128    27A     -0.354879
      28A     -0.348407    29A     -0.345401    30A     -0.337636

  @DF-RHF Final Energy:  -479.86846635453895

   => Energetics <=

    Nuclear Repulsion Energy =            263.6354799197008560
    One-Electron Energy =               -1200.9242828989047212
    Two-Electron Energy =                 457.4203366246649125
    Total Energy =                       -479.8684663545389526
 Dipole X            :         39.6503590          -39.1454820            0.5048770
 Dipole Y            :          8.7527461           -8.1184222            0.6343240
 Dipole Z            :        -28.3362485           28.5737494            0.2375009
 Magnitude           :                                                    0.8447925
  Basis Set: (AUG-CC-PVTZ AUX)
    Blend: AUG-CC-PVTZ-RI
	 Reference Energy          =    -479.8684663545389526 [Eh]
	 Singles Energy            =      -0.0000000000000000 [Eh]
	 Same-Spin Energy          =      -0.4320574368420200 [Eh]
	 Opposite-Spin Energy      =      -1.3140156733239958 [Eh]
	 Correlation Energy        =      -1.7460731101660159 [Eh]
	 Total Energy              =    -481.6145394647049898 [Eh]

	 ================> DF-SCS-MP2 Energies <==================
	-----------------------------------------------------------
	 SCS Same-Spin Scale       =       0.3333333333333333 [-]
	 SCS Opposite-Spin Scale   =       1.2000000000000000 [-]
	 SCS Same-Spin Energy      =      -0.1440191456140067 [Eh]
	 SCS Opposite-Spin Energy  =      -1.5768188079887950 [Eh]
	 SCS Correlation Energy    =      -1.7208379536028018 [Eh]
	 SCS Total Energy          =    -481.5893043081417773 [Eh]
	-----------------------------------------------------------

*** Psi4 exiting successfully. Buy a developer a beer!
