                               Psi4 1.8.2 release

  ==> Input File <==

--------------------------------------------------------------------------
MEMORY 60 GB

molecule dimer {
-1 1
Cl         0.000000     0.000000     0.000000
Gh(O)      2.094734     2.420118    -0.988704
Gh(H)      2.288132     3.072303    -0.322075
Gh(H)      1.277471     1.962329    -0.721292
Gh(O)      1.301190    -0.283191    -2.893486
Gh(H)      0.711077     0.041554    -3.544511
Gh(H)      0.857715    -0.109161    -2.051104
Gh(O)     -1.945290     2.393035     1.309219
Gh(H)     -2.923087     2.279788     1.331312
Gh(H)     -1.540510     1.545688     0.980189
Gh(O)      0.845936    -3.031399    -0.329358
Gh(H)      0.345432    -2.188035    -0.437677
Gh(H)      1.647577    -2.766488    -0.821843
Gh(O)      1.967141     1.310230     2.500265
Gh(H)      1.474350     0.935107     1.769862
Gh(H)      2.839433     0.878062     2.441727

units ang
no_reorient
no_com
symmetry c1
}

set {
basis        aug-cc-pVTZ
scf_type     df
}

energy("mp2")
--------------------------------------------------------------------------

    Molecular point group: c1

    Geometry (in Angstrom), charge = -1, multiplicity = 1:

       Center              X                  Y                   Z               Mass
    ------------   -----------------  -----------------  -----------------  -----------------
         CL           0.000000000000     0.000000000000     0.000000000000    34.968852682000
      Gh(O)           2.094734000000     2.420118000000    -0.988704000000    15.994914619570
      Gh(H)           2.288132000000     3.072303000000    -0.322075000000     1.007825032230
      Gh(H)           1.277471000000     1.962329000000    -0.721292000000     1.007825032230
      Gh(O)           1.301190000000    -0.283191000000    -2.893486000000    15.994914619570
      Gh(H)           0.711077000000     0.041554000000    -3.544511000000     1.007825032230
      Gh(H)           0.857715000000    -0.109161000000    -2.051104000000     1.007825032230
      Gh(O)          -1.945290000000     2.393035000000     1.309219000000    15.994914619570
      Gh(H)          -2.923087000000     2.279788000000     1.331312000000     1.007825032230
      Gh(H)          -1.540510000000     1.545688000000     0.980189000000     1.007825032230
      Gh(O)           0.845936000000    -3.031399000000    -0.329358000000    15.994914619570
      Gh(H)           0.345432000000    -2.188035000000    -0.437677000000     1.007825032230
      Gh(H)           1.647577000000    -2.766488000000    -0.821843000000     1.007825032230
      Gh(O)           1.967141000000     1.310230000000     2.500265000000    15.994914619570
      Gh(H)           1.474350000000     0.935107000000     1.769862000000     1.007825032230
      Gh(H)           2.839433000000     0.878062000000     2.441727000000     1.007825032230

  Charge       = -1
  Multiplicity = 1
  Basis Set: AUG-CC-PVTZ
    Blend: AUG-CC-PVTZ
  Basis Set: (AUG-CC-PVTZ AUX)
    Blend: AUG-CC-PVTZ-JKFIT

    Orbital Energies [Eh]
    ---------------------

    Doubly Occupied:

       1A   -104.507218     2A    -10.230047     3A     -7.696123
       4A     -7.696106     5A     -7.696085     6A     -0.733466
       7A     -0.150311     8A     -0.150304     9A     -0.150302

  @DF-RHF Final Energy:  -459.57357678868323

   => Energetics <=

    Nuclear Repulsion Energy =              0.0000000000000000
    One-Electron Energy =                -641.1272423620247309
    Two-Electron Energy =                 181.5536655733415614
    Total Energy =                       -459.5735767886831695
 Dipole X            :          0.0004215            0.0000000            0.0004215
 Dipole Y            :          0.0000866            0.0000000            0.0000866
 Dipole Z            :          0.0000871            0.0000000            0.0000871
 Magnitude           :                                                    0.0004390
  Basis Set: (AUG-CC-PVTZ AUX)
    Blend: AUG-CC-PVTZ-RI
	 Reference Energy          =    -459.5735767886832264 [Eh]
	 Singles Energy            =      -0.0000000000000000 [Eh]
	 Same-Spin Energy          =      -0.0635245357763954 [Eh]
	 Opposite-Spin Energy      =      -0.1838234261738037 [Eh]
	 Correlation Energy        =      -0.2473479619501990 [Eh]
	 Total Energy              =    -459.8209247506334236 [Eh]

	 ================> DF-SCS-MP2 Energies <==================
	-----------------------------------------------------------
	 SCS Same-Spin Scale       =       0.3333333333333333 [-]
	 SCS Opposite-Spin Scale   =       1.2000000000000000 [-]
	 SCS Same-Spin Energy      =      -0.0211748452587985 [Eh]
	 SCS Opposite-Spin Energy  =      -0.2205881114085644 [Eh]
	 SCS Correlation Energy    =      -0.2417629566673628 [Eh]
	 SCS Total Energy          =    -459.8153397453505704 [Eh]
	-----------------------------------------------------------

*** Psi4 exiting successfully. Buy a developer a beer!
