                               Psi4 1.8.2 release

  ==> Input File <==

--------------------------------------------------------------------------
MEMORY 60 GB

molecule dimer {
0 1
Gh(Cl)     0.000000     0.000000     0.000000
Gh(O)      2.247823     1.054428     2.091133
Gh(H)      1.975481     0.561471     1.348335
Gh(H)      2.892441     0.520458     2.606351
Gh(O)      0.349162    -2.885324     1.690405
Gh(H)      0.406239    -3.703972     1.217566
Gh(H)      0.590132    -2.160564     1.081020
O          1.622947     1.853072    -2.013003
H          2.373746     1.475204    -2.405921
H          1.243024     1.154997    -1.444838

units ang
no_reorient
no_com
symmetry c1
}

set {
basis        aug-cc-pVTZ
scf_type     df
}

energy("mp2")
--------------------------------------------------------------------------

    Molecular point group: c1

    Geometry (in Angstrom), charge = 0, multiplicity = 1:

       Center              X                  Y                   Z               Mass
    ------------   -----------------  -----------------  -----------------  -----------------
      Gh(CL)          0.000000000000     0.000000000000     0.000000000000    34.968852682000
      Gh(O)           2.247823000000     1.054428000000     2.091133000000    15.994914619570
      Gh(H)           1.975481000000     0.561471000000     1.348335000000     1.007825032230
      Gh(H)           2.892441000000     0.520458000000     2.606351000000     1.007825032230
      Gh(O)           0.349162000000    -2.885324000000     1.690405000000    15.994914619570
      Gh(H)           0.406239000000    -3.703972000000     1.217566000000     1.007825032230
      Gh(H)           0.590132000000    -2.160564000000     1.081020000000     1.007825032230
         O            1.622947000000     1.853072000000    -2.013003000000    15.994914619570
         H            2.373746000000     1.475204000000    -2.405921000000     1.007825032230
         H            1.243024000000     1.154997000000    -1.444838000000     1.007825032230

  Charge       = 0
  Multiplicity = 1
  Basis Set: AUG-CC-PVTZ
    Blend: AUG-CC-PVTZ
  Basis Set: (AUG-CC-PVTZ AUX)
    Blend: AUG-CC-PVTZ-JKFIT

    Orbital Energies [Eh]
    ---------------------

    Doubly Occupied:

       1A    -20.565678     2A     -1.355862     3A     -0.722906
       4A     -0.583390     5A     -0.510476

  @DF-RHF Final Energy:   -76.05970350446464

   => Energetics <=

    Nuclear Repulsion Energy =              9.2445109826756688
    One-Electron Energy =                -123.1318029393356568
    Two-Electron Energy =                  37.8275884521953500
    Total Energy =                        -76.0597035044646361
 Dipole X            :        -31.1156246           31.3701075            0.2544829
 Dipole Y            :        -33.7043244           32.9847481           -0.7195763
 Dipole Z            :         37.8212785          -37.7090748            0.1122037
 Magnitude           :                                                    0.7714540
  Basis Set: (AUG-CC-PVTZ AUX)
    Blend: AUG-CC-PVTZ-RI
	 Reference Energy          =     -76.0597035044646361 [Eh]
	 Singles Energy            =      -0.0000000000000000 [Eh]
	 Same-Spin Energy          =      -0.0682642174633195 [Eh]
	 Opposite-Spin Energy      =      -0.2153577124764222 [Eh]
	 Correlation Energy        =      -0.2836219299397417 [Eh]
	 Total Energy              =     -76.3433254344043775 [Eh]

	 ================> DF-SCS-MP2 Energies <==================
	-----------------------------------------------------------
	 SCS Same-Spin Scale       =       0.3333333333333333 [-]
	 SCS Opposite-Spin Scale   =       1.2000000000000000 [-]
	 SCS Same-Spin Energy      =      -0.0227547391544398 [Eh]
	 SCS Opposite-Spin Energy  =      -0.2584292549717066 [Eh]
	 SCS Correlation Energy    =      -0.2811839941261465 [Eh]
	 SCS Total Energy          =     -76.3408874985907886 [Eh]
	-----------------------------------------------------------

*** Psi4 exiting successfully. Buy a developer a beer!
