                               Psi4 1.8.2 release

  ==> Input File <==

--------------------------------------------------------------------------
MEMORY 60 GB

molecule dimer {
-1 1
Cl         0.000000     0.000000     0.000000
O         -3.036540    -1.130948     0.571455
H         -2.816521    -0.349188     0.044649
H         -4.001200    -1.116491     0.759985
O          2.042900     1.983750     1.557742
H          1.377876     1.644053     0.979838
H          2.348539     2.811821     1.186573
O         -1.201565     2.176958     2.115980
H         -0.858161     1.779863     1.307099
H         -0.662453     1.807091     2.819899
O          0.655515    -1.917276     2.650823
H          0.870212    -1.423797     1.789194
H         -0.239017    -1.790514     2.917007
O         -0.319376     2.472691    -2.034529
H         -0.223367     1.847408    -1.233402
H         -0.065493     3.291772    -1.721202
O          2.365589    -1.192386    -1.524898
H          2.063632    -1.946725    -1.022722
H          1.713985    -0.498279    -1.350896

units ang
no_reorient
no_com
symmetry c1
}

set {
basis        aug-cc-pVTZ
scf_type     df
}

energy("mp2")
--------------------------------------------------------------------------

    Molecular point group: c1

    Geometry (in Angstrom), charge = -1, multiplicity = 1:

       Center              X                  Y                   Z               Mass
    ------------   -----------------  -----------------  -----------------  -----------------
         CL           0.000000000000     0.000000000000     0.000000000000    34.968852682000
         O           -3.036540000000    -1.130948000000     0.571455000000    15.994914619570
         H           -2.816521000000    -0.349188000000     0.044649000000     1.007825032230
         H           -4.001200000000    -1.116491000000     0.759985000000     1.007825032230
         O            2.042900000000     1.983750000000     1.557742000000    15.994914619570
         H            1.377876000000     1.644053000000     0.979838000000     1.007825032230
         H            2.348539000000     2.811821000000     1.186573000000     1.007825032230
         O           -1.201565000000     2.176958000000     2.115980000000    15.994914619570
         H           -0.858161000000     1.779863000000     1.307099000000     1.007825032230
         H           -0.662453000000     1.807091000000     2.819899000000     1.007825032230
         O            0.655515000000    -1.917276000000     2.650823000000    15.994914619570
         H            0.870212000000    -1.423797000000     1.789194000000     1.007825032230
         H           -0.239017000000    -1.790514000000     2.917007000000     1.007825032230
         O           -0.319376000000     2.472691000000    -2.034529000000    15.994914619570
         H           -0.223367000000     1.847408000000    -1.233402000000     1.007825032230
         H           -0.065493000000     3.291772000000    -1.721202000000     1.007825032230
         O            2.365589000000    -1.192386000000    -1.524898000000    15.994914619570
         H            2.063632000000    -1.946725000000    -1.022722000000     1.007825032230
         H            1.713985000000    -0.498279000000    -1.350896000000     1.007825032230

  Charge       = -1
  Multiplicity = 1
  Basis Set: AUG-CC-PVTZ
    Blend: AUG-CC-PVTZ
  Basis Set: (AUG-CC-PVTZ AUX)
    Blend: AUG-CC-PVTZ-JKFIT

    Orbital Energies [Eh]
    ---------------------

    Doubly Occupied:

       1A   -104.600528     2A    -20.445881     3A    -20.428592
       4A    -20.425710     5A    -20.421891     6A    -20.416605
       7A    -20.405983     8A    -10.326426     9A     -7.792539
      10A     -7.792442    11A     -7.792411    12A     -1.221873
      13A     -1.219019    14A     -1.214111    15A     -1.208105
      16A     -1.193988    17A     -1.191709    18A     -0.849494
      19A     -0.595348    20A     -0.591774    21A     -0.578397
      22A     -0.574824    23A     -0.573111    24A     -0.561054
      25A     -0.452460    26A     -0.451245    27A     -0.447335
      28A     -0.446613    29A     -0.434088    30A     -0.424290
      31A     -0.385685    32A     -0.380824    33A     -0.372198
      34A     -0.364503    35A     -0.359994    36A     -0.353866
      37A     -0.259856    38A     -0.256619    39A     -0.254217

  @DF-RHF Final Energy:  -915.98413408924216

   => Energetics <=

    Nuclear Repulsion Energy =            399.4426994735488847
    One-Electron Energy =               -2074.7224475859211452
    Two-Electron Energy =                 759.2956140231301561
    Total Energy =                       -915.9841340892421613
 Dipole X            :         -7.9431756            6.7278332           -1.2153425
 Dipole Y            :        -47.2474428           47.6198247            0.3723819
 Dipole Z            :        -62.9716338           62.6795813           -0.2920525
 Magnitude           :                                                    1.3042317
  Basis Set: (AUG-CC-PVTZ AUX)
    Blend: AUG-CC-PVTZ-RI
	 Reference Energy          =    -915.9841340892421613 [Eh]
	 Singles Energy            =      -0.0000000000000000 [Eh]
	 Same-Spin Energy          =      -0.4872484360534342 [Eh]
	 Opposite-Spin Energy      =      -1.4911816440169374 [Eh]
	 Correlation Energy        =      -1.9784300800703716 [Eh]
	 Total Energy              =    -917.9625641693124862 [Eh]

	 ================> DF-SCS-MP2 Energies <==================
	-----------------------------------------------------------
	 SCS Same-Spin Scale       =       0.3333333333333333 [-]
	 SCS Opposite-Spin Scale   =       1.2000000000000000 [-]
	 SCS Same-Spin Energy      =      -0.1624161453511447 [Eh]
	 SCS Opposite-Spin Energy  =      -1.7894179728203248 [Eh]
	 SCS Correlation Energy    =      -1.9518341181714696 [Eh]
	 SCS Total Energy          =    -917.9359682074136799 [Eh]
	-----------------------------------------------------------

*** Psi4 exiting successfully. Buy a developer a beer!
