                               Psi4 1.8.2 release

  ==> Input File <==

--------------------------------------------------------------------------
MEMORY 60 GB

molecule dimer {
-1 1
Cl         0.000000     0.000000     0.000000
O          1.643517    -2.671033    -0.571244
H          1.442644    -3.447881     0.013578
H          0.828471    -2.107925    -0.378806
O         -2.118199    -2.087345     0.884562
H         -1.644371    -1.233785     0.607522
H         -3.051365    -1.880592     0.681310
O          0.599442     1.213303     2.922861
H          0.626392     1.960370     2.295878
H          0.540948     0.461657     2.407060
O         -2.500190     1.554417     0.736574
H         -1.721962     1.048901     0.477950
H         -3.117665     1.113809     0.151889
O          0.419712     0.008157    -3.275042
H         -0.472377     0.059341    -3.781707
H          0.155255    -0.226504    -2.409947

units ang
no_reorient
no_com
symmetry c1
}

set {
basis        aug-cc-pVTZ
scf_type     df
}

energy("mp2")
--------------------------------------------------------------------------

    Molecular point group: c1

    Geometry (in Angstrom), charge = -1, multiplicity = 1:

       Center              X                  Y                   Z               Mass
    ------------   -----------------  -----------------  -----------------  -----------------
         CL           0.000000000000     0.000000000000     0.000000000000    34.968852682000
         O            1.643517000000    -2.671033000000    -0.571244000000    15.994914619570
         H            1.442644000000    -3.447881000000     0.013578000000     1.007825032230
         H            0.828471000000    -2.107925000000    -0.378806000000     1.007825032230
         O           -2.118199000000    -2.087345000000     0.884562000000    15.994914619570
         H           -1.644371000000    -1.233785000000     0.607522000000     1.007825032230
         H           -3.051365000000    -1.880592000000     0.681310000000     1.007825032230
         O            0.599442000000     1.213303000000     2.922861000000    15.994914619570
         H            0.626392000000     1.960370000000     2.295878000000     1.007825032230
         H            0.540948000000     0.461657000000     2.407060000000     1.007825032230
         O           -2.500190000000     1.554417000000     0.736574000000    15.994914619570
         H           -1.721962000000     1.048901000000     0.477950000000     1.007825032230
         H           -3.117665000000     1.113809000000     0.151889000000     1.007825032230
         O            0.419712000000     0.008157000000    -3.275042000000    15.994914619570
         H           -0.472377000000     0.059341000000    -3.781707000000     1.007825032230
         H            0.155255000000    -0.226504000000    -2.409947000000     1.007825032230

  Charge       = -1
  Multiplicity = 1
  Basis Set: AUG-CC-PVTZ
    Blend: AUG-CC-PVTZ
  Basis Set: (AUG-CC-PVTZ AUX)
    Blend: AUG-CC-PVTZ-JKFIT

    Orbital Energies [Eh]
    ---------------------

    Doubly Occupied:

       1A   -104.597562     2A    -20.430605     3A    -20.426504
       4A    -20.421766     5A    -20.415962     6A    -20.410983
       7A    -10.323788     8A     -7.789865     9A     -7.789812
      10A     -7.789772    11A     -1.209573    12A     -1.208670
      13A     -1.204837    14A     -1.193995    15A     -1.184160
      16A     -0.848826    17A     -0.577362    18A     -0.565084
      19A     -0.555347    20A     -0.552718    21A     -0.534883
      22A     -0.459655    23A     -0.446120    24A     -0.442468
      25A     -0.439926    26A     -0.437805    27A     -0.370643
      28A     -0.367703    29A     -0.362503    30A     -0.360501
      31A     -0.357547    32A     -0.256126    33A     -0.254505
      34A     -0.253628

  @DF-RHF Final Energy:  -839.91014783902529

   => Energetics <=

    Nuclear Repulsion Energy =            307.0746460311875126
    One-Electron Energy =               -1784.2871739470490411
    Two-Electron Energy =                 637.3023800768362435
    Total Energy =                       -839.9101478390252851
 Dipole X            :         40.6825412          -41.6869312           -1.0043901
 Dipole Y            :         38.1259557          -38.0073378            0.1186179
 Dipole Z            :        -11.5741974           10.6701779           -0.9040195
 Magnitude           :                                                    1.3565106
  Basis Set: (AUG-CC-PVTZ AUX)
    Blend: AUG-CC-PVTZ-RI
	 Reference Energy          =    -839.9101478390252851 [Eh]
	 Singles Energy            =      -0.0000000000000000 [Eh]
	 Same-Spin Energy          =      -0.4195321562989419 [Eh]
	 Opposite-Spin Energy      =      -1.2790085320610267 [Eh]
	 Correlation Energy        =      -1.6985406883599685 [Eh]
	 Total Energy              =    -841.6086885273851976 [Eh]

	 ================> DF-SCS-MP2 Energies <==================
	-----------------------------------------------------------
	 SCS Same-Spin Scale       =       0.3333333333333333 [-]
	 SCS Opposite-Spin Scale   =       1.2000000000000000 [-]
	 SCS Same-Spin Energy      =      -0.1398440520996473 [Eh]
	 SCS Opposite-Spin Energy  =      -1.5348102384732321 [Eh]
	 SCS Correlation Energy    =      -1.6746542905728794 [Eh]
	 SCS Total Energy          =    -841.5848021295981880 [Eh]
	-----------------------------------------------------------

*** Psi4 exiting successfully. Buy a developer a beer!
