                               Psi4 1.8.2 release

  ==> Input File <==

--------------------------------------------------------------------------
MEMORY 60 GB

molecule dimer {
-1 1
Cl         0.000000     0.000000     0.000000
O         -0.530148    -2.541396     2.339857
H          0.120897    -3.202570     2.327133
H         -0.132628    -1.880997     1.716211
O         -3.000928    -1.352034     0.154153
H         -2.071433    -1.106112     0.036891
H         -3.306104    -0.958508     1.007444
O          1.266958    -0.619388    -2.939972
H          1.004602    -0.223763    -2.097255
H          2.223231    -0.656263    -2.974201
O          1.279146    -2.624031    -0.164319
H          0.765925    -1.837237    -0.085508
H          0.822661    -3.176240    -0.835511
O          2.570326     0.754051     2.126946
H          2.553981     1.080305     3.025190
H          1.674012     0.429569     1.888366

units ang
no_reorient
no_com
symmetry c1
}

set {
basis        aug-cc-pVTZ
scf_type     df
}

energy("mp2")
--------------------------------------------------------------------------

    Molecular point group: c1

    Geometry (in Angstrom), charge = -1, multiplicity = 1:

       Center              X                  Y                   Z               Mass
    ------------   -----------------  -----------------  -----------------  -----------------
         CL           0.000000000000     0.000000000000     0.000000000000    34.968852682000
         O           -0.530148000000    -2.541396000000     2.339857000000    15.994914619570
         H            0.120897000000    -3.202570000000     2.327133000000     1.007825032230
         H           -0.132628000000    -1.880997000000     1.716211000000     1.007825032230
         O           -3.000928000000    -1.352034000000     0.154153000000    15.994914619570
         H           -2.071433000000    -1.106112000000     0.036891000000     1.007825032230
         H           -3.306104000000    -0.958508000000     1.007444000000     1.007825032230
         O            1.266958000000    -0.619388000000    -2.939972000000    15.994914619570
         H            1.004602000000    -0.223763000000    -2.097255000000     1.007825032230
         H            2.223231000000    -0.656263000000    -2.974201000000     1.007825032230
         O            1.279146000000    -2.624031000000    -0.164319000000    15.994914619570
         H            0.765925000000    -1.837237000000    -0.085508000000     1.007825032230
         H            0.822661000000    -3.176240000000    -0.835511000000     1.007825032230
         O            2.570326000000     0.754051000000     2.126946000000    15.994914619570
         H            2.553981000000     1.080305000000     3.025190000000     1.007825032230
         H            1.674012000000     0.429569000000     1.888366000000     1.007825032230

  Charge       = -1
  Multiplicity = 1
  Basis Set: AUG-CC-PVTZ
    Blend: AUG-CC-PVTZ
  Basis Set: (AUG-CC-PVTZ AUX)
    Blend: AUG-CC-PVTZ-JKFIT

    Orbital Energies [Eh]
    ---------------------

    Doubly Occupied:

       1A   -104.591327     2A    -20.431671     3A    -20.418012
       4A    -20.414012     5A    -20.410515     6A    -20.400990
       7A    -10.317061     8A     -7.783172     9A     -7.783102
      10A     -7.783071    11A     -1.210652    12A     -1.209083
      13A     -1.199093    14A     -1.191714    15A     -1.185176
      16A     -0.839800    17A     -0.585433    18A     -0.574385
      19A     -0.569899    20A     -0.559094    21A     -0.555963
      22A     -0.449630    23A     -0.441838    24A     -0.431157
      25A     -0.429407    26A     -0.424603    27A     -0.374596
      28A     -0.369368    29A     -0.362659    30A     -0.351613
      31A     -0.344976    32A     -0.249802    33A     -0.247423
      34A     -0.245476

  @DF-RHF Final Energy:  -839.92445099312499

   => Energetics <=

    Nuclear Repulsion Energy =            309.8110292099140679
    One-Electron Energy =               -1789.9994115587060151
    Two-Electron Energy =                 640.2639313556669549
    Total Energy =                       -839.9244509931249922
 Dipole X            :        -30.6641019           30.8743001            0.2101981
 Dipole Y            :        119.7883104         -118.2858950            1.5024153
 Dipole Z            :        -30.0126992           30.5041103            0.4914111
 Magnitude           :                                                    1.5946536
  Basis Set: (AUG-CC-PVTZ AUX)
    Blend: AUG-CC-PVTZ-RI
	 Reference Energy          =    -839.9244509931249922 [Eh]
	 Singles Energy            =      -0.0000000000000000 [Eh]
	 Same-Spin Energy          =      -0.4175261161861228 [Eh]
	 Opposite-Spin Energy      =      -1.2742842631871503 [Eh]
	 Correlation Energy        =      -1.6918103793732731 [Eh]
	 Total Energy              =    -841.6162613724982293 [Eh]

	 ================> DF-SCS-MP2 Energies <==================
	-----------------------------------------------------------
	 SCS Same-Spin Scale       =       0.3333333333333333 [-]
	 SCS Opposite-Spin Scale   =       1.2000000000000000 [-]
	 SCS Same-Spin Energy      =      -0.1391753720620409 [Eh]
	 SCS Opposite-Spin Energy  =      -1.5291411158245802 [Eh]
	 SCS Correlation Energy    =      -1.6683164878866212 [Eh]
	 SCS Total Energy          =    -841.5927674810116059 [Eh]
	-----------------------------------------------------------

*** Psi4 exiting successfully. Buy a developer a beer!
