                               Psi4 1.8.2 release

  ==> Input File <==

--------------------------------------------------------------------------
MEMORY 60 GB

molecule dimer {
0 1
Gh(Cl)     0.000000     0.000000     0.000000
Gh(O)     -0.817706    -1.131136     2.882151
Gh(H)     -0.479632    -0.733470     2.050849
Gh(H)     -1.773167    -1.194569     2.786172
O         -2.015567     2.443093     0.216964
H         -1.560235     3.293927     0.320489
H         -1.315197     1.816524     0.339732
Gh(O)     -2.013641    -2.278996    -0.054481
Gh(H)     -2.837161    -1.968892    -0.423141
Gh(H)     -1.488194    -1.516586     0.086967
Gh(O)      1.634075     1.411723    -2.619944
Gh(H)      0.729499     1.577369    -2.303553
Gh(H)      1.533034     1.888078    -3.433836

units ang
no_reorient
no_com
symmetry c1
}

set {
basis        aug-cc-pVTZ
scf_type     df
}

energy("mp2")
--------------------------------------------------------------------------

    Molecular point group: c1

    Geometry (in Angstrom), charge = 0, multiplicity = 1:

       Center              X                  Y                   Z               Mass
    ------------   -----------------  -----------------  -----------------  -----------------
      Gh(CL)          0.000000000000     0.000000000000     0.000000000000    34.968852682000
      Gh(O)          -0.817706000000    -1.131136000000     2.882151000000    15.994914619570
      Gh(H)          -0.479632000000    -0.733470000000     2.050849000000     1.007825032230
      Gh(H)          -1.773167000000    -1.194569000000     2.786172000000     1.007825032230
         O           -2.015567000000     2.443093000000     0.216964000000    15.994914619570
         H           -1.560235000000     3.293927000000     0.320489000000     1.007825032230
         H           -1.315197000000     1.816524000000     0.339732000000     1.007825032230
      Gh(O)          -2.013641000000    -2.278996000000    -0.054481000000    15.994914619570
      Gh(H)          -2.837161000000    -1.968892000000    -0.423141000000     1.007825032230
      Gh(H)          -1.488194000000    -1.516586000000     0.086967000000     1.007825032230
      Gh(O)           1.634075000000     1.411723000000    -2.619944000000    15.994914619570
      Gh(H)           0.729499000000     1.577369000000    -2.303553000000     1.007825032230
      Gh(H)           1.533034000000     1.888078000000    -3.433836000000     1.007825032230

  Charge       = 0
  Multiplicity = 1
  Basis Set: AUG-CC-PVTZ
    Blend: AUG-CC-PVTZ
  Basis Set: (AUG-CC-PVTZ AUX)
    Blend: AUG-CC-PVTZ-JKFIT

    Orbital Energies [Eh]
    ---------------------

    Doubly Occupied:

       1A    -20.568270     2A     -1.354063     3A     -0.713166
       4A     -0.588141     5A     -0.510752

  @DF-RHF Final Energy:   -76.06006457737958

   => Energetics <=

    Nuclear Repulsion Energy =              9.1821446788712144
    One-Electron Energy =                -123.0156304161677809
    Two-Electron Energy =                  37.7734211599169925
    Total Energy =                        -76.0600645773795776
 Dipole X            :         36.6697571          -35.9047359            0.7650212
 Dipole Y            :        -46.4476272           46.5915661            0.1439390
 Dipole Z            :         -4.3776068            4.5276572            0.1500504
 Magnitude           :                                                    0.7927742
  Basis Set: (AUG-CC-PVTZ AUX)
    Blend: AUG-CC-PVTZ-RI
	 Reference Energy          =     -76.0600645773795776 [Eh]
	 Singles Energy            =      -0.0000000000000000 [Eh]
	 Same-Spin Energy          =      -0.0684543785978089 [Eh]
	 Opposite-Spin Energy      =      -0.2159232738465746 [Eh]
	 Correlation Energy        =      -0.2843776524443835 [Eh]
	 Total Energy              =     -76.3444422298239544 [Eh]

	 ================> DF-SCS-MP2 Energies <==================
	-----------------------------------------------------------
	 SCS Same-Spin Scale       =       0.3333333333333333 [-]
	 SCS Opposite-Spin Scale   =       1.2000000000000000 [-]
	 SCS Same-Spin Energy      =      -0.0228181261992696 [Eh]
	 SCS Opposite-Spin Energy  =      -0.2591079286158895 [Eh]
	 SCS Correlation Energy    =      -0.2819260548151592 [Eh]
	 SCS Total Energy          =     -76.3419906321947366 [Eh]
	-----------------------------------------------------------

*** Psi4 exiting successfully. Buy a developer a beer!
