                               Psi4 1.8.2 release

  ==> Input File <==

--------------------------------------------------------------------------
MEMORY 60 GB

molecule dimer {
-1 1
Cl         0.000000     0.000000     0.000000
Gh(O)      0.601726    -2.589847     1.985255
Gh(H)      0.625102    -1.734398     1.410853
Gh(H)      0.202443    -2.311978     2.805266
Gh(O)      1.654373     2.108704     2.134861
Gh(H)      1.639621     3.020507     1.745273
Gh(H)      1.118820     1.502198     1.596433
Gh(O)     -1.660561     0.569143     2.400854
Gh(H)     -1.309075     0.235507     1.599810
Gh(H)     -1.163770     0.257029     3.177412
Gh(O)     -1.490632    -2.685195    -0.853034
Gh(H)     -1.987793    -3.157702    -0.165193
Gh(H)     -0.816107    -2.123214    -0.480627
Gh(O)      3.208264     0.379661    -0.437533
Gh(H)      3.780426     0.542681     0.324217
Gh(H)      2.259776     0.321939    -0.255342

units ang
no_reorient
no_com
symmetry c1
}

set {
basis        aug-cc-pVTZ
scf_type     df
}

energy("mp2")
--------------------------------------------------------------------------

    Molecular point group: c1

    Geometry (in Angstrom), charge = -1, multiplicity = 1:

       Center              X                  Y                   Z               Mass
    ------------   -----------------  -----------------  -----------------  -----------------
         CL           0.000000000000     0.000000000000     0.000000000000    34.968852682000
      Gh(O)           0.601726000000    -2.589847000000     1.985255000000    15.994914619570
      Gh(H)           0.625102000000    -1.734398000000     1.410853000000     1.007825032230
      Gh(H)           0.202443000000    -2.311978000000     2.805266000000     1.007825032230
      Gh(O)           1.654373000000     2.108704000000     2.134861000000    15.994914619570
      Gh(H)           1.639621000000     3.020507000000     1.745273000000     1.007825032230
      Gh(H)           1.118820000000     1.502198000000     1.596433000000     1.007825032230
      Gh(O)          -1.660561000000     0.569143000000     2.400854000000    15.994914619570
      Gh(H)          -1.309075000000     0.235507000000     1.599810000000     1.007825032230
      Gh(H)          -1.163770000000     0.257029000000     3.177412000000     1.007825032230
      Gh(O)          -1.490632000000    -2.685195000000    -0.853034000000    15.994914619570
      Gh(H)          -1.987793000000    -3.157702000000    -0.165193000000     1.007825032230
      Gh(H)          -0.816107000000    -2.123214000000    -0.480627000000     1.007825032230
      Gh(O)           3.208264000000     0.379661000000    -0.437533000000    15.994914619570
      Gh(H)           3.780426000000     0.542681000000     0.324217000000     1.007825032230
      Gh(H)           2.259776000000     0.321939000000    -0.255342000000     1.007825032230

  Charge       = -1
  Multiplicity = 1
  Basis Set: AUG-CC-PVTZ
    Blend: AUG-CC-PVTZ
  Basis Set: (AUG-CC-PVTZ AUX)
    Blend: AUG-CC-PVTZ-JKFIT

    Orbital Energies [Eh]
    ---------------------

    Doubly Occupied:

       1A   -104.507332     2A    -10.230080     3A     -7.696154
       4A     -7.696136     5A     -7.696121     6A     -0.733467
       7A     -0.150310     8A     -0.150306     9A     -0.150304

  @DF-RHF Final Energy:  -459.57358246755848

   => Energetics <=

    Nuclear Repulsion Energy =              0.0000000000000000
    One-Electron Energy =                -641.1267601136019039
    Two-Electron Energy =                 181.5531776460434514
    Total Energy =                       -459.5735824675584809
 Dipole X            :          0.0002096            0.0000000            0.0002096
 Dipole Y            :         -0.0001467            0.0000000           -0.0001467
 Dipole Z            :          0.0004285            0.0000000            0.0004285
 Magnitude           :                                                    0.0004990
  Basis Set: (AUG-CC-PVTZ AUX)
    Blend: AUG-CC-PVTZ-RI
	 Reference Energy          =    -459.5735824675584809 [Eh]
	 Singles Energy            =      -0.0000000000000000 [Eh]
	 Same-Spin Energy          =      -0.0636185648088238 [Eh]
	 Opposite-Spin Energy      =      -0.1842325824461213 [Eh]
	 Correlation Energy        =      -0.2478511472549450 [Eh]
	 Total Energy              =    -459.8214336148134294 [Eh]

	 ================> DF-SCS-MP2 Energies <==================
	-----------------------------------------------------------
	 SCS Same-Spin Scale       =       0.3333333333333333 [-]
	 SCS Opposite-Spin Scale   =       1.2000000000000000 [-]
	 SCS Same-Spin Energy      =      -0.0212061882696079 [Eh]
	 SCS Opposite-Spin Energy  =      -0.2210790989353455 [Eh]
	 SCS Correlation Energy    =      -0.2422852872049534 [Eh]
	 SCS Total Energy          =    -459.8158677547634170 [Eh]
	-----------------------------------------------------------

*** Psi4 exiting successfully. Buy a developer a beer!
