                               Psi4 1.8.2 release

  ==> Input File <==

--------------------------------------------------------------------------
MEMORY 60 GB

molecule dimer {
-1 1
Cl         0.000000     0.000000     0.000000
Gh(O)      0.523611    -3.326317    -0.270829
Gh(H)      1.371760    -3.541864    -0.752050
Gh(H)      0.520142    -2.413760    -0.485172
Gh(O)     -0.566034    -1.015128    -2.856991
Gh(H)     -1.423681    -1.463563    -2.743114
Gh(H)     -0.308453    -0.737514    -1.960884
Gh(O)      1.763372     1.458735    -2.322450
Gh(H)      1.440294     0.911291    -1.581146
Gh(H)      2.304948     0.879717    -2.772692
Gh(O)     -2.397826    -1.807276     1.763323
Gh(H)     -1.510550    -2.113811     1.658959
Gh(H)     -2.434657    -1.289060     0.981632

units ang
no_reorient
no_com
symmetry c1
}

set {
basis        aug-cc-pVTZ
scf_type     df
}

energy("mp2")
--------------------------------------------------------------------------

    Molecular point group: c1

    Geometry (in Angstrom), charge = -1, multiplicity = 1:

       Center              X                  Y                   Z               Mass
    ------------   -----------------  -----------------  -----------------  -----------------
         CL           0.000000000000     0.000000000000     0.000000000000    34.968852682000
      Gh(O)           0.523611000000    -3.326317000000    -0.270829000000    15.994914619570
      Gh(H)           1.371760000000    -3.541864000000    -0.752050000000     1.007825032230
      Gh(H)           0.520142000000    -2.413760000000    -0.485172000000     1.007825032230
      Gh(O)          -0.566034000000    -1.015128000000    -2.856991000000    15.994914619570
      Gh(H)          -1.423681000000    -1.463563000000    -2.743114000000     1.007825032230
      Gh(H)          -0.308453000000    -0.737514000000    -1.960884000000     1.007825032230
      Gh(O)           1.763372000000     1.458735000000    -2.322450000000    15.994914619570
      Gh(H)           1.440294000000     0.911291000000    -1.581146000000     1.007825032230
      Gh(H)           2.304948000000     0.879717000000    -2.772692000000     1.007825032230
      Gh(O)          -2.397826000000    -1.807276000000     1.763323000000    15.994914619570
      Gh(H)          -1.510550000000    -2.113811000000     1.658959000000     1.007825032230
      Gh(H)          -2.434657000000    -1.289060000000     0.981632000000     1.007825032230

  Charge       = -1
  Multiplicity = 1
  Basis Set: AUG-CC-PVTZ
    Blend: AUG-CC-PVTZ
  Basis Set: (AUG-CC-PVTZ AUX)
    Blend: AUG-CC-PVTZ-JKFIT

    Orbital Energies [Eh]
    ---------------------

    Doubly Occupied:

       1A   -104.507024     2A    -10.230003     3A     -7.696079
       4A     -7.696050     5A     -7.696041     6A     -0.733477
       7A     -0.150320     8A     -0.150313     9A     -0.150307

  @DF-RHF Final Energy:  -459.57355663814667

   => Energetics <=

    Nuclear Repulsion Energy =              0.0000000000000000
    One-Electron Energy =                -641.1278983491898771
    Two-Electron Energy =                 181.5543417110432642
    Total Energy =                       -459.5735566381466128
 Dipole X            :          0.0000345            0.0000000            0.0000345
 Dipole Y            :         -0.0001828            0.0000000           -0.0001828
 Dipole Z            :         -0.0004881            0.0000000           -0.0004881
 Magnitude           :                                                    0.0005224
  Basis Set: (AUG-CC-PVTZ AUX)
    Blend: AUG-CC-PVTZ-RI
	 Reference Energy          =    -459.5735566381466697 [Eh]
	 Singles Energy            =      -0.0000000000000000 [Eh]
	 Same-Spin Energy          =      -0.0632893488645450 [Eh]
	 Opposite-Spin Energy      =      -0.1827851631420124 [Eh]
	 Correlation Energy        =      -0.2460745120065574 [Eh]
	 Total Energy              =    -459.8196311501532136 [Eh]

	 ================> DF-SCS-MP2 Energies <==================
	-----------------------------------------------------------
	 SCS Same-Spin Scale       =       0.3333333333333333 [-]
	 SCS Opposite-Spin Scale   =       1.2000000000000000 [-]
	 SCS Same-Spin Energy      =      -0.0210964496215150 [Eh]
	 SCS Opposite-Spin Energy  =      -0.2193421957704148 [Eh]
	 SCS Correlation Energy    =      -0.2404386453919298 [Eh]
	 SCS Total Energy          =    -459.8139952835385884 [Eh]
	-----------------------------------------------------------

*** Psi4 exiting successfully. Buy a developer a beer!
