                               Psi4 1.8.2 release

  ==> Input File <==

--------------------------------------------------------------------------
MEMORY 60 GB

molecule dimer {
0 1
Gh(Cl)     0.000000     0.000000     0.000000
Gh(O)      2.811402     1.308917    -0.646326
Gh(H)      3.234332     1.474802     0.204983
Gh(H)      1.945733     1.073091    -0.492024
Gh(O)     -0.273559     0.917934     3.152329
Gh(H)      0.136827     0.212370     3.671469
Gh(H)     -0.689970     0.389828     2.431398
O          1.522141    -0.653873    -2.674542
H          1.073915    -0.132792    -3.377375
H          0.886423    -0.702472    -1.962450
Gh(O)     -2.674822     0.576166    -1.781221
Gh(H)     -1.954057     0.567322    -1.167115
Gh(H)     -2.728762     1.502340    -2.123526
Gh(O)      0.142016    -3.064361    -0.765164
Gh(H)      0.999542    -3.491946    -0.855143
Gh(H)      0.263409    -2.296723    -0.197218

units ang
no_reorient
no_com
symmetry c1
}

set {
basis        aug-cc-pVTZ
scf_type     df
}

energy("mp2")
--------------------------------------------------------------------------

    Molecular point group: c1

    Geometry (in Angstrom), charge = 0, multiplicity = 1:

       Center              X                  Y                   Z               Mass
    ------------   -----------------  -----------------  -----------------  -----------------
      Gh(CL)          0.000000000000     0.000000000000     0.000000000000    34.968852682000
      Gh(O)           2.811402000000     1.308917000000    -0.646326000000    15.994914619570
      Gh(H)           3.234332000000     1.474802000000     0.204983000000     1.007825032230
      Gh(H)           1.945733000000     1.073091000000    -0.492024000000     1.007825032230
      Gh(O)          -0.273559000000     0.917934000000     3.152329000000    15.994914619570
      Gh(H)           0.136827000000     0.212370000000     3.671469000000     1.007825032230
      Gh(H)          -0.689970000000     0.389828000000     2.431398000000     1.007825032230
         O            1.522141000000    -0.653873000000    -2.674542000000    15.994914619570
         H            1.073915000000    -0.132792000000    -3.377375000000     1.007825032230
         H            0.886423000000    -0.702472000000    -1.962450000000     1.007825032230
      Gh(O)          -2.674822000000     0.576166000000    -1.781221000000    15.994914619570
      Gh(H)          -1.954057000000     0.567322000000    -1.167115000000     1.007825032230
      Gh(H)          -2.728762000000     1.502340000000    -2.123526000000     1.007825032230
      Gh(O)           0.142016000000    -3.064361000000    -0.765164000000    15.994914619570
      Gh(H)           0.999542000000    -3.491946000000    -0.855143000000     1.007825032230
      Gh(H)           0.263409000000    -2.296723000000    -0.197218000000     1.007825032230

  Charge       = 0
  Multiplicity = 1
  Basis Set: AUG-CC-PVTZ
    Blend: AUG-CC-PVTZ
  Basis Set: (AUG-CC-PVTZ AUX)
    Blend: AUG-CC-PVTZ-JKFIT

    Orbital Energies [Eh]
    ---------------------

    Doubly Occupied:

       1A    -20.569032     2A     -1.347235     3A     -0.711828
       4A     -0.581802     5A     -0.509255

  @DF-RHF Final Energy:   -76.05928874455702

   => Energetics <=

    Nuclear Repulsion Energy =              9.0798480367883929
    One-Electron Energy =                -122.8399668305427497
    Two-Electron Energy =                  37.7008300491973358
    Total Energy =                        -76.0592887445570227
 Dipole X            :        -27.4332488           26.7159388           -0.7173100
 Dipole Y            :         11.7737259          -11.4635473            0.3101785
 Dipole Z            :         50.5344746          -50.5240219            0.0104527
 Magnitude           :                                                    0.7815712
  Basis Set: (AUG-CC-PVTZ AUX)
    Blend: AUG-CC-PVTZ-RI
	 Reference Energy          =     -76.0592887445570227 [Eh]
	 Singles Energy            =      -0.0000000000000000 [Eh]
	 Same-Spin Energy          =      -0.0686110314081961 [Eh]
	 Opposite-Spin Energy      =      -0.2165421553383842 [Eh]
	 Correlation Energy        =      -0.2851531867465803 [Eh]
	 Total Energy              =     -76.3444419313036065 [Eh]

	 ================> DF-SCS-MP2 Energies <==================
	-----------------------------------------------------------
	 SCS Same-Spin Scale       =       0.3333333333333333 [-]
	 SCS Opposite-Spin Scale   =       1.2000000000000000 [-]
	 SCS Same-Spin Energy      =      -0.0228703438027320 [Eh]
	 SCS Opposite-Spin Energy  =      -0.2598505864060610 [Eh]
	 SCS Correlation Energy    =      -0.2827209302087931 [Eh]
	 SCS Total Energy          =     -76.3420096747658192 [Eh]
	-----------------------------------------------------------

*** Psi4 exiting successfully. Buy a developer a beer!
