                               Psi4 1.9 release

  ==> Input File <==

--------------------------------------------------------------------------
MEMORY 60 GB

molecule dimer {
-1 1
Cl     0.000000     0.000000     0.000000
--
0 1
O     -1.878402    -1.080531     2.342565
H     -1.026969    -1.166506     1.772713
H     -2.580579    -0.523875     1.890567
O      0.502856     0.086028    -3.057688
H      1.102609    -0.631082    -3.406849
H      0.164913    -0.155801    -2.188960
O     -2.049806    -2.242880    -1.432389
H     -1.691531    -2.297651    -2.291878
H     -1.607052    -1.510032    -1.003034
O      1.381966    -2.850193    -0.519008
H      0.939692    -1.998758    -0.423708
H      2.117352    -2.631893     0.024183

units ang
no_reorient
no_com
symmetry c1
}

set {
basis        aug-cc-pVTZ
scf_type     df
}

energy("mp2", bsse_type="cp")
--------------------------------------------------------------------------

                               Psi4 1.9 release
    Molecular point group: c1
  Charge       = 0
  Multiplicity = 1
  Basis Set: AUG-CC-PVTZ
    Blend: AUG-CC-PVTZ
  Basis Set: (AUG-CC-PVTZ AUX)
    Blend: AUG-CC-PVTZ-JKFIT
  @DF-RHF Final Energy:  -304.21634009579776
    Total Energy =                       -304.2163400957977615
 Dipole X            :         36.7559416          -35.7699701            0.9859715
 Dipole Y            :        113.3657005         -112.6583020            0.7073985
 Dipole Z            :         50.7140589          -50.9453647           -0.2313059
 Magnitude           :                                                    1.2353359
  Basis Set: (AUG-CC-PVTZ AUX)
    Blend: AUG-CC-PVTZ-RI
	 Reference Energy          =    -304.2163400957977615 [Eh]
	 Singles Energy            =      -0.0000000000000000 [Eh]
	 Same-Spin Energy          =      -0.2759626199647577 [Eh]
	 Opposite-Spin Energy      =      -0.8684122029658307 [Eh]
	 Correlation Energy        =      -1.1443748229305883 [Eh]
	 Total Energy              =    -305.3607149187283767 [Eh]
	 SCS Total Energy          =    -305.3504222793450253 [Eh]
                               Psi4 1.9 release
    Molecular point group: c1
  Multiplicity = 1
  Basis Set: AUG-CC-PVTZ
    Blend: AUG-CC-PVTZ
  Basis Set: (AUG-CC-PVTZ AUX)
    Blend: AUG-CC-PVTZ-JKFIT
  @DF-RHF Final Energy:  -459.57356455798708
    Total Energy =                       -459.5735645579870834
  Basis Set: (AUG-CC-PVTZ AUX)
	 Singles Energy            =      -0.0000000000000000 [Eh]
	 Same-Spin Energy          =      -0.0633891954995796 [Eh]
	 Opposite-Spin Energy      =      -0.1832381773116591 [Eh]
	 Correlation Energy        =      -0.2466273728112386 [Eh]
	 Total Energy              =    -459.8201919307983303 [Eh]
	 SCS Total Energy          =    -459.8145801025942774 [Eh]
                               Psi4 1.9 release
    Molecular point group: c1

    Geometry (in Bohr), charge = -1, multiplicity = 1:

       Center              X                  Y                   Z               Mass
    ------------   -----------------  -----------------  -----------------  -----------------
         CL           0.000000000000     0.000000000000     0.000000000000    34.968852682000
         O           -3.549665333512    -2.041907660067     4.426806281083    15.994914619570
         H           -1.940690149335    -2.204376863703     3.349942069039     1.007825032230
         H           -4.876587555108    -0.989980273974     3.572653851828     1.007825032230
         O            0.950260120543     0.162569359121    -5.778192897099    15.994914619570
         H            2.083629033465    -1.192572142706    -6.438011560790     1.007825032230
         H            0.311640404528    -0.294421220072    -4.136534899582     1.007825032230
         O           -3.873571950320    -4.238428932267    -2.706822915118    15.994914619570
         H           -3.196530322722    -4.341931121884    -4.331021732962     1.007825032230
         H           -3.036888149369    -2.853546920677    -1.895459554522     1.007825032230
         O            2.611537254694    -5.386084174697    -0.980782976922    15.994914619570
         H            1.775760522284    -3.777105211068    -0.800692077165     1.007825032230
         H            4.001215391190    -4.973556961510     0.045699246892     1.007825032230

  Charge       = -1
  Multiplicity = 1
  Basis Set: AUG-CC-PVTZ
    Blend: AUG-CC-PVTZ
  Basis Set: (AUG-CC-PVTZ AUX)
    Blend: AUG-CC-PVTZ-JKFIT

    Orbital Energies [Eh]
    ---------------------

    Doubly Occupied:

       1A   -104.583366     2A    -20.414191     3A    -20.413788
       4A    -20.410634     5A    -20.410100     6A    -10.308769
       7A     -7.774849     8A     -7.774814     9A     -7.774776
      10A     -1.211768    11A     -1.208052    12A     -1.187981
      13A     -1.162112    14A     -0.828278    15A     -0.578228
      16A     -0.567077    17A     -0.552495    18A     -0.542178
      19A     -0.457548    20A     -0.438116    21A     -0.423072
      22A     -0.407943    23A     -0.363462    24A     -0.360319
      25A     -0.357103    26A     -0.345389    27A     -0.239833
      28A     -0.238061    29A     -0.234879

  @DF-RHF Final Energy:  -763.85121653923989

   => Energetics <=

    Nuclear Repulsion Energy =            229.0852145924555430
    One-Electron Energy =               -1522.7344938409082715
    Two-Electron Energy =                 529.7980627092128998
    Total Energy =                       -763.8512165392398856
 Dipole X            :         36.9266670          -35.7699701            1.1566969
 Dipole Y            :        114.1895205         -112.6583020            1.5312185
 Dipole Z            :         51.0977391          -50.9453647            0.1523744
 Magnitude           :                                                    1.9250444
  Basis Set: (AUG-CC-PVTZ AUX)
    Blend: AUG-CC-PVTZ-RI
	 Reference Energy          =    -763.8512165392398856 [Eh]
	 Singles Energy            =      -0.0000000000000000 [Eh]
	 Same-Spin Energy          =      -0.3473256720149728 [Eh]
	 Opposite-Spin Energy      =      -1.0568410438009792 [Eh]
	 Correlation Energy        =      -1.4041667158159521 [Eh]
	 Total Energy              =    -765.2553832550557900 [Eh]

	 ================> DF-SCS-MP2 Energies <==================
	-----------------------------------------------------------
	 SCS Same-Spin Scale       =       0.3333333333333333 [-]
	 SCS Opposite-Spin Scale   =       1.2000000000000000 [-]
	 SCS Same-Spin Energy      =      -0.1157752240049909 [Eh]
	 SCS Opposite-Spin Energy  =      -1.2682092525611750 [Eh]
	 SCS Correlation Energy    =      -1.3839844765661660 [Eh]
	 SCS Total Energy          =    -765.2352010158060693 [Eh]
	-----------------------------------------------------------

*** Psi4 exiting successfully. Buy a developer a beer!
