                               Psi4 1.9 release

  ==> Input File <==

--------------------------------------------------------------------------
MEMORY 60 GB

molecule dimer {
-1 1
Cl     0.000000     0.000000     0.000000
--
0 1
O      0.523611    -3.326317    -0.270829
H      1.371760    -3.541864    -0.752050
H      0.520142    -2.413760    -0.485172
O     -0.566034    -1.015128    -2.856991
H     -1.423681    -1.463563    -2.743114
H     -0.308453    -0.737514    -1.960884
O      1.763372     1.458735    -2.322450
H      1.440294     0.911291    -1.581146
H      2.304948     0.879717    -2.772692
O     -2.397826    -1.807276     1.763323
H     -1.510550    -2.113811     1.658959
H     -2.434657    -1.289060     0.981632

units ang
no_reorient
no_com
symmetry c1
}

set {
basis        aug-cc-pVTZ
scf_type     df
}

energy("mp2", bsse_type="cp")
--------------------------------------------------------------------------

                               Psi4 1.9 release
    Molecular point group: c1
  Charge       = 0
  Multiplicity = 1
  Basis Set: AUG-CC-PVTZ
    Blend: AUG-CC-PVTZ
  Basis Set: (AUG-CC-PVTZ AUX)
    Blend: AUG-CC-PVTZ-JKFIT
  @DF-RHF Final Energy:  -304.22584772930486
    Total Energy =                       -304.2258477293048600
 Dipole X            :         11.1613841          -10.3088585            0.8525256
 Dipole Y            :         89.0459218          -89.3622232           -0.3163014
 Dipole Z            :         69.9067356          -70.2034068           -0.2966712
 Magnitude           :                                                    0.9564833
  Basis Set: (AUG-CC-PVTZ AUX)
    Blend: AUG-CC-PVTZ-RI
	 Reference Energy          =    -304.2258477293048600 [Eh]
	 Singles Energy            =      -0.0000000000000000 [Eh]
	 Same-Spin Energy          =      -0.2750528041538745 [Eh]
	 Opposite-Spin Energy      =      -0.8653457027046620 [Eh]
	 Correlation Energy        =      -1.1403985068585365 [Eh]
	 Total Energy              =    -305.3662462361634198 [Eh]
	 SCS Total Energy          =    -305.3559468406017459 [Eh]
                               Psi4 1.9 release
    Molecular point group: c1
  Multiplicity = 1
  Basis Set: AUG-CC-PVTZ
    Blend: AUG-CC-PVTZ
  Basis Set: (AUG-CC-PVTZ AUX)
    Blend: AUG-CC-PVTZ-JKFIT
  @DF-RHF Final Energy:  -459.57355663818419
    Total Energy =                       -459.5735566381841863
  Basis Set: (AUG-CC-PVTZ AUX)
	 Singles Energy            =      -0.0000000000000000 [Eh]
	 Same-Spin Energy          =      -0.0632893488644583 [Eh]
	 Opposite-Spin Energy      =      -0.1827851631418588 [Eh]
	 Correlation Energy        =      -0.2460745120063171 [Eh]
	 Total Energy              =    -459.8196311501905029 [Eh]
	 SCS Total Energy          =    -459.8139952835758777 [Eh]
                               Psi4 1.9 release
    Molecular point group: c1

    Geometry (in Bohr), charge = -1, multiplicity = 1:

       Center              X                  Y                   Z               Mass
    ------------   -----------------  -----------------  -----------------  -----------------
         CL           0.000000000000     0.000000000000     0.000000000000    34.968852682000
         O            0.989481386277    -6.285828136455    -0.511792636832    15.994914619570
         H            2.592250709858    -6.693152933619    -1.421168532651     1.007825032230
         H            0.982925926348    -4.561345332585    -0.916842203741     1.007825032230
         O           -1.069649237697    -1.918313902284    -5.398930532898    15.994914619570
         H           -2.690367180018    -2.765733237353    -5.183734190909     1.007825032230
         H           -0.582891692576    -1.393699473691    -3.705533723792     1.007825032230
         O            3.332290137301     2.756609639620    -4.388794440070    15.994914619570
         H            2.721761200140     1.722090410595    -2.987932904363     1.007825032230
         H            4.355720453422     1.662424197909    -5.239628510248     1.007825032230
         O           -4.531234436502    -3.415256673113     3.332197540721    15.994914619570
         H           -2.854525798810    -3.994523870980     3.134978163363     1.007825032230
         H           -4.600834939429    -2.435970359283     1.855015635985     1.007825032230

  Charge       = -1
  Multiplicity = 1
  Basis Set: AUG-CC-PVTZ
    Blend: AUG-CC-PVTZ
  Basis Set: (AUG-CC-PVTZ AUX)
    Blend: AUG-CC-PVTZ-JKFIT

    Orbital Energies [Eh]
    ---------------------

    Doubly Occupied:

       1A   -104.576853     2A    -20.435539     3A    -20.418786
       4A    -20.405806     5A    -20.404372     6A    -10.301903
       7A     -7.768021     8A     -7.767961     9A     -7.767904
      10A     -1.220582    11A     -1.219832    12A     -1.207285
      13A     -1.185470    14A     -0.819135    15A     -0.566177
      16A     -0.565299    17A     -0.561394    18A     -0.552119
      19A     -0.468531    20A     -0.460037    21A     -0.439155
      22A     -0.427955    23A     -0.378871    24A     -0.368613
      25A     -0.357330    26A     -0.348533    27A     -0.232359
      28A     -0.231168    29A     -0.227241

  @DF-RHF Final Energy:  -763.85813685524454

   => Energetics <=

    Nuclear Repulsion Energy =            223.0978609531335621
    One-Electron Energy =               -1510.5435317611620576
    Two-Electron Energy =                 523.5875339527840424
    Total Energy =                       -763.8581368552445383
 Dipole X            :         11.1042471          -10.3088585            0.7953885
 Dipole Y            :         89.5847650          -89.3622232            0.2225418
 Dipole Z            :         70.6190831          -70.2034068            0.4156763
 Magnitude           :                                                    0.9246376
  Basis Set: (AUG-CC-PVTZ AUX)
    Blend: AUG-CC-PVTZ-RI
	 Reference Energy          =    -763.8581368552445383 [Eh]
	 Singles Energy            =      -0.0000000000000000 [Eh]
	 Same-Spin Energy          =      -0.3451890548211949 [Eh]
	 Opposite-Spin Energy      =      -1.0526556886520291 [Eh]
	 Correlation Energy        =      -1.3978447434732240 [Eh]
	 Total Energy              =    -765.2559815987177672 [Eh]

	 ================> DF-SCS-MP2 Energies <==================
	-----------------------------------------------------------
	 SCS Same-Spin Scale       =       0.3333333333333333 [-]
	 SCS Opposite-Spin Scale   =       1.2000000000000000 [-]
	 SCS Same-Spin Energy      =      -0.1150630182737316 [Eh]
	 SCS Opposite-Spin Energy  =      -1.2631868263824348 [Eh]
	 SCS Correlation Energy    =      -1.3782498446561664 [Eh]
	 SCS Total Energy          =    -765.2363866999006632 [Eh]
	-----------------------------------------------------------

*** Psi4 exiting successfully. Buy a developer a beer!
