                               Psi4 1.9 release

  ==> Input File <==

--------------------------------------------------------------------------
MEMORY 60 GB

molecule dimer {
-1 1
Cl     0.000000     0.000000     0.000000
--
0 1
O      2.580413    -0.085154    -1.557658
H      1.740288    -0.171482    -1.041132
H      2.991017    -0.923894    -1.427814
O     -2.460905    -2.327479    -0.521416
H     -1.544293    -2.447915    -0.236860
H     -2.917761    -3.166475    -0.428069
O      0.510044     1.531334     2.976305
H      0.808066     1.990027     2.164238
H      0.061676     0.714654     2.566184
O     -3.154292     0.989802    -0.487484
H     -3.631637     0.174371    -0.654459
H     -2.267810     0.655784    -0.465304
O     -0.248988    -1.979578    -2.367955
H      0.454594    -1.824462    -2.932228
H     -0.066118    -1.448601    -1.593092

units ang
no_reorient
no_com
symmetry c1
}

set {
basis        aug-cc-pVTZ
scf_type     df
}

energy("mp2", bsse_type="cp")
--------------------------------------------------------------------------

                               Psi4 1.9 release
    Molecular point group: c1
  Charge       = 0
  Multiplicity = 1
  Basis Set: AUG-CC-PVTZ
    Blend: AUG-CC-PVTZ
  Basis Set: (AUG-CC-PVTZ AUX)
    Blend: AUG-CC-PVTZ-JKFIT
  @DF-RHF Final Energy:  -380.28557637916418
    Total Energy =                       -380.2855763791641834
 Dipole X            :         51.0061116          -50.1945312            0.8115804
 Dipole Y            :         38.6145753          -40.4714953           -1.8569200
 Dipole Z            :         37.0541566          -37.2544388           -0.2002822
 Magnitude           :                                                    2.0364007
  Basis Set: (AUG-CC-PVTZ AUX)
    Blend: AUG-CC-PVTZ-RI
	 Reference Energy          =    -380.2855763791641834 [Eh]
	 Singles Energy            =      -0.0000000000000000 [Eh]
	 Same-Spin Energy          =      -0.3445396087752806 [Eh]
	 Opposite-Spin Energy      =      -1.0830515328254142 [Eh]
	 Correlation Energy        =      -1.4275911416006948 [Eh]
	 Total Energy              =    -381.7131675207648982 [Eh]
	 SCS Total Energy          =    -381.7000847548131333 [Eh]
                               Psi4 1.9 release
    Molecular point group: c1
  Multiplicity = 1
  Basis Set: AUG-CC-PVTZ
    Blend: AUG-CC-PVTZ
  Basis Set: (AUG-CC-PVTZ AUX)
    Blend: AUG-CC-PVTZ-JKFIT
  @DF-RHF Final Energy:  -459.57357080002646
    Total Energy =                       -459.5735708000264594
  Basis Set: (AUG-CC-PVTZ AUX)
	 Singles Energy            =      -0.0000000000000000 [Eh]
	 Same-Spin Energy          =      -0.0635224449065926 [Eh]
	 Opposite-Spin Energy      =      -0.1838418748839367 [Eh]
	 Correlation Energy        =      -0.2473643197905294 [Eh]
	 Total Energy              =    -459.8209351198169657 [Eh]
	 SCS Total Energy          =    -459.8153551981893656 [Eh]
                               Psi4 1.9 release
    Molecular point group: c1

    Geometry (in Bohr), charge = -1, multiplicity = 1:

       Center              X                  Y                   Z               Mass
    ------------   -----------------  -----------------  -----------------  -----------------
         CL           0.000000000000     0.000000000000     0.000000000000    34.968852682000
         O            4.876273860571    -0.160917738487    -2.943547017128    15.994914619570
         H            3.288667699421    -0.324054015446    -1.967454340450     1.007825032230
         H            5.652202966588    -1.745906628954    -2.698177418094     1.007825032230
         O           -4.650436470770    -4.398297872754    -0.985333437432    15.994914619570
         H           -2.918290827462    -4.625888928400    -0.447600530076     1.007825032230
         H           -5.513769189542    -5.983770533109    -0.808933172799     1.007825032230
         O            0.963843471933     2.893801866602     5.624401315831    15.994914619570
         H            1.527023431294     3.760606012266     4.089817090309     1.007825032230
         H            0.116550748514     1.350500334463     4.849384947532     1.007825032230
         O           -5.960747999723     1.870454698430    -0.921211250543    15.994914619570
         H           -6.862799317079     0.329513434222    -1.236748270341     1.007825032230
         H           -4.285539804575     1.239252157457    -0.879297125080     1.007825032230
         O           -0.470519128525    -3.740860263982    -4.474786427408    15.994914619570
         H            0.859058158276    -3.447733506305    -5.541107857399     1.007825032230
         H           -0.124944911963    -2.737459155064    -3.010507572658     1.007825032230

  Charge       = -1
  Multiplicity = 1
  Basis Set: AUG-CC-PVTZ
    Blend: AUG-CC-PVTZ
  Basis Set: (AUG-CC-PVTZ AUX)
    Blend: AUG-CC-PVTZ-JKFIT

    Orbital Energies [Eh]
    ---------------------

    Doubly Occupied:

       1A   -104.588379     2A    -20.438816     3A    -20.426182
       4A    -20.408715     5A    -20.403526     6A    -20.402076
       7A    -10.314244     8A     -7.780386     9A     -7.780267
      10A     -7.780243    11A     -1.222213    12A     -1.210887
      13A     -1.197187    14A     -1.195075    15A     -1.189248
      16A     -0.836974    17A     -0.599999    18A     -0.574897
      19A     -0.559008    20A     -0.547673    21A     -0.541811
      22A     -0.456295    23A     -0.446857    24A     -0.442285
      25A     -0.435641    26A     -0.431791    27A     -0.380114
      28A     -0.362724    29A     -0.358819    30A     -0.356155
      31A     -0.349796    32A     -0.247338    33A     -0.244382
      34A     -0.242256

  @DF-RHF Final Energy:  -839.92176583947310

   => Energetics <=

    Nuclear Repulsion Energy =            306.5576551540504511
    One-Electron Energy =               -1783.4543174972980069
    Two-Electron Energy =                 636.9748965037744028
    Total Energy =                       -839.9217658394730961
 Dipole X            :         50.9075229          -50.1945312            0.7129918
 Dipole Y            :         38.9492163          -40.4714953           -1.5222790
 Dipole Z            :         37.4510978          -37.2544388            0.1966590
 Magnitude           :                                                    1.6924436
  Basis Set: (AUG-CC-PVTZ AUX)
    Blend: AUG-CC-PVTZ-RI
	 Reference Energy          =    -839.9217658394730961 [Eh]
	 Singles Energy            =      -0.0000000000000000 [Eh]
	 Same-Spin Energy          =      -0.4174078687438897 [Eh]
	 Opposite-Spin Energy      =      -1.2734111560305705 [Eh]
	 Correlation Energy        =      -1.6908190247744601 [Eh]
	 Total Energy              =    -841.6125848642475376 [Eh]

	 ================> DF-SCS-MP2 Energies <==================
	-----------------------------------------------------------
	 SCS Same-Spin Scale       =       0.3333333333333333 [-]
	 SCS Opposite-Spin Scale   =       1.2000000000000000 [-]
	 SCS Same-Spin Energy      =      -0.1391359562479632 [Eh]
	 SCS Opposite-Spin Energy  =      -1.5280933872366846 [Eh]
	 SCS Correlation Energy    =      -1.6672293434846479 [Eh]
	 SCS Total Energy          =    -841.5889951829577740 [Eh]
	-----------------------------------------------------------

*** Psi4 exiting successfully. Buy a developer a beer!
