                               Psi4 1.8.2 release

  ==> Input File <==

--------------------------------------------------------------------------
MEMORY 60 GB

molecule dimer {
0 1
Gh(Cl)     0.000000     0.000000     0.000000
Gh(O)     -3.036540    -1.130948     0.571455
Gh(H)     -2.816521    -0.349188     0.044649
Gh(H)     -4.001200    -1.116491     0.759985
Gh(O)      2.042900     1.983750     1.557742
Gh(H)      1.377876     1.644053     0.979838
Gh(H)      2.348539     2.811821     1.186573
Gh(O)     -1.201565     2.176958     2.115980
Gh(H)     -0.858161     1.779863     1.307099
Gh(H)     -0.662453     1.807091     2.819899
O          0.655515    -1.917276     2.650823
H          0.870212    -1.423797     1.789194
H         -0.239017    -1.790514     2.917007
Gh(O)     -0.319376     2.472691    -2.034529
Gh(H)     -0.223367     1.847408    -1.233402
Gh(H)     -0.065493     3.291772    -1.721202
Gh(O)      2.365589    -1.192386    -1.524898
Gh(H)      2.063632    -1.946725    -1.022722
Gh(H)      1.713985    -0.498279    -1.350896

units ang
no_reorient
no_com
symmetry c1
}

set {
basis        aug-cc-pVTZ
scf_type     df
}

energy("mp2")
--------------------------------------------------------------------------

    Molecular point group: c1

    Geometry (in Angstrom), charge = 0, multiplicity = 1:

       Center              X                  Y                   Z               Mass
    ------------   -----------------  -----------------  -----------------  -----------------
      Gh(CL)          0.000000000000     0.000000000000     0.000000000000    34.968852682000
      Gh(O)          -3.036540000000    -1.130948000000     0.571455000000    15.994914619570
      Gh(H)          -2.816521000000    -0.349188000000     0.044649000000     1.007825032230
      Gh(H)          -4.001200000000    -1.116491000000     0.759985000000     1.007825032230
      Gh(O)           2.042900000000     1.983750000000     1.557742000000    15.994914619570
      Gh(H)           1.377876000000     1.644053000000     0.979838000000     1.007825032230
      Gh(H)           2.348539000000     2.811821000000     1.186573000000     1.007825032230
      Gh(O)          -1.201565000000     2.176958000000     2.115980000000    15.994914619570
      Gh(H)          -0.858161000000     1.779863000000     1.307099000000     1.007825032230
      Gh(H)          -0.662453000000     1.807091000000     2.819899000000     1.007825032230
         O            0.655515000000    -1.917276000000     2.650823000000    15.994914619570
         H            0.870212000000    -1.423797000000     1.789194000000     1.007825032230
         H           -0.239017000000    -1.790514000000     2.917007000000     1.007825032230
      Gh(O)          -0.319376000000     2.472691000000    -2.034529000000    15.994914619570
      Gh(H)          -0.223367000000     1.847408000000    -1.233402000000     1.007825032230
      Gh(H)          -0.065493000000     3.291772000000    -1.721202000000     1.007825032230
      Gh(O)           2.365589000000    -1.192386000000    -1.524898000000    15.994914619570
      Gh(H)           2.063632000000    -1.946725000000    -1.022722000000     1.007825032230
      Gh(H)           1.713985000000    -0.498279000000    -1.350896000000     1.007825032230

  Charge       = 0
  Multiplicity = 1
  Basis Set: AUG-CC-PVTZ
    Blend: AUG-CC-PVTZ
  Basis Set: (AUG-CC-PVTZ AUX)
    Blend: AUG-CC-PVTZ-JKFIT

    Orbital Energies [Eh]
    ---------------------

    Doubly Occupied:

       1A    -20.566995     2A     -1.338897     3A     -0.719675
       4A     -0.566009     5A     -0.506307

  @DF-RHF Final Energy:   -76.05473279765019

   => Energetics <=

    Nuclear Repulsion Energy =              8.9878232104292159
    One-Electron Energy =                -122.6893407450231024
    Two-Electron Energy =                  37.6467847369437010
    Total Energy =                        -76.0547327976501890
 Dipole X            :        -11.5663079           11.1027363           -0.4635717
 Dipole Y            :         35.4741051          -35.0591798            0.4149252
 Dipole Z            :        -49.3619147           48.9680668           -0.3938479
 Magnitude           :                                                    0.7363272
  Basis Set: (AUG-CC-PVTZ AUX)
    Blend: AUG-CC-PVTZ-RI
	 Reference Energy          =     -76.0547327976501890 [Eh]
	 Singles Energy            =      -0.0000000000000000 [Eh]
	 Same-Spin Energy          =      -0.0686535134128154 [Eh]
	 Opposite-Spin Energy      =      -0.2165213100800509 [Eh]
	 Correlation Energy        =      -0.2851748234928663 [Eh]
	 Total Energy              =     -76.3399076211430554 [Eh]

	 ================> DF-SCS-MP2 Energies <==================
	-----------------------------------------------------------
	 SCS Same-Spin Scale       =       0.3333333333333333 [-]
	 SCS Opposite-Spin Scale   =       1.2000000000000000 [-]
	 SCS Same-Spin Energy      =      -0.0228845044709385 [Eh]
	 SCS Opposite-Spin Energy  =      -0.2598255720960611 [Eh]
	 SCS Correlation Energy    =      -0.2827100765669995 [Eh]
	 SCS Total Energy          =     -76.3374428742171887 [Eh]
	-----------------------------------------------------------

*** Psi4 exiting successfully. Buy a developer a beer!
