                               Psi4 1.9 release

  ==> Input File <==

--------------------------------------------------------------------------
MEMORY 60 GB

molecule dimer {
-1 1
Cl     0.000000     0.000000     0.000000
--
0 1
O     -2.600905     1.445698    -1.428595
H     -1.790172     1.295780    -0.990803
H     -3.218459     1.075372    -0.808474
O      2.556836    -0.273321    -1.884433
H      2.745727     0.656644    -1.914035
H      1.812438    -0.439596    -1.281958
O      0.128714     1.450045    -3.075572
H     -0.229456     0.608282    -2.936136
H     -0.138427     1.712452    -3.979438
O     -2.771257    -1.686210    -0.586807
H     -3.517746    -1.038339    -0.414869
H     -1.928754    -1.210524    -0.518702
O      0.192091    -2.999964     0.775908
H     -0.347009    -3.250786     1.545106
H     -0.004976    -2.092468     0.545800

units ang
no_reorient
no_com
symmetry c1
}

set {
basis        aug-cc-pVTZ
scf_type     df
}

energy("mp2", bsse_type="cp")
--------------------------------------------------------------------------

                               Psi4 1.9 release
    Molecular point group: c1
  Charge       = 0
  Multiplicity = 1
  Basis Set: AUG-CC-PVTZ
    Blend: AUG-CC-PVTZ
  Basis Set: (AUG-CC-PVTZ AUX)
    Blend: AUG-CC-PVTZ-JKFIT
  @DF-RHF Final Energy:  -380.28415608750083
    Total Energy =                       -380.2841560875008327
 Dipole X            :         49.1049715          -50.2156961           -1.1107246
 Dipole Y            :         37.2103767          -36.2698896            0.9404871
 Dipole Z            :        115.0063734         -114.0440287            0.9623447
 Magnitude           :                                                    1.7448016
  Basis Set: (AUG-CC-PVTZ AUX)
    Blend: AUG-CC-PVTZ-RI
	 Reference Energy          =    -380.2841560875008327 [Eh]
	 Singles Energy            =      -0.0000000000000000 [Eh]
	 Same-Spin Energy          =      -0.3443683288644683 [Eh]
	 Opposite-Spin Energy      =      -1.0824103021848104 [Eh]
	 Correlation Energy        =      -1.4267786310492787 [Eh]
	 Total Energy              =    -381.7109347185501065 [Eh]
	 SCS Total Energy          =    -381.6978378930774056 [Eh]
                               Psi4 1.9 release
    Molecular point group: c1
  Multiplicity = 1
  Basis Set: AUG-CC-PVTZ
    Blend: AUG-CC-PVTZ
  Basis Set: (AUG-CC-PVTZ AUX)
    Blend: AUG-CC-PVTZ-JKFIT
  @DF-RHF Final Energy:  -459.57357340378786
    Total Energy =                       -459.5735734037878046
  Basis Set: (AUG-CC-PVTZ AUX)
	 Singles Energy            =      -0.0000000000000000 [Eh]
	 Same-Spin Energy          =      -0.0635096282612862 [Eh]
	 Opposite-Spin Energy      =      -0.1837404999226948 [Eh]
	 Correlation Energy        =      -0.2472501281839810 [Eh]
	 Total Energy              =    -459.8208235319718256 [Eh]
	 SCS Total Energy          =    -459.8152318797821749 [Eh]
                               Psi4 1.9 release
    Molecular point group: c1

    Geometry (in Bohr), charge = -1, multiplicity = 1:

       Center              X                  Y                   Z               Mass
    ------------   -----------------  -----------------  -----------------  -----------------
         CL           0.000000000000     0.000000000000     0.000000000000    34.968852682000
         O           -4.914998128334     2.731973280122    -2.699653294198    15.994914619570
         H           -3.382934797463     2.448669318846    -1.872346314282     1.007825032230
         H           -6.082006056015     2.032158562986    -1.527794439553     1.007825032230
         O            4.831719787711    -0.516501834336    -3.561062271775    15.994914619570
         H            5.188672045275     1.240877321925    -3.617001944541     1.007825032230
         H            3.425011439373    -0.830716045847    -2.422549524340     1.007825032230
         O            0.243234208512     2.740187919589    -5.811988759127    15.994914619570
         H           -0.433608997843     1.149486387046    -5.548492907097     1.007825032230
         H           -0.261589118369     3.236065282993    -7.520047953240     1.007825032230
         O           -5.236916753258    -3.186475090008    -1.108904518502    15.994914619570
         H           -6.647576518925    -1.962176335382    -0.783988787943     1.007825032230
         H           -3.644816823381    -2.287558828294    -0.980204720727     1.007825032230
         O            0.362999381165    -5.669110346233     1.466253618552    15.994914619570
         H           -0.655751973069    -6.143095232473     2.919827174802     1.007825032230
         H           -0.009403277200    -3.954191446284     1.031412519275     1.007825032230

  Charge       = -1
  Multiplicity = 1
  Basis Set: AUG-CC-PVTZ
    Blend: AUG-CC-PVTZ
  Basis Set: (AUG-CC-PVTZ AUX)
    Blend: AUG-CC-PVTZ-JKFIT

    Orbital Energies [Eh]
    ---------------------

    Doubly Occupied:

       1A   -104.582317     2A    -20.428678     3A    -20.424622
       4A    -20.422801     5A    -20.399246     6A    -20.392089
       7A    -10.307805     8A     -7.773894     9A     -7.773894
      10A     -7.773825    11A     -1.224896    12A     -1.219409
      13A     -1.194137    14A     -1.183964    15A     -1.179186
      16A     -0.828236    17A     -0.589928    18A     -0.580890
      19A     -0.568397    20A     -0.559607    21A     -0.558379
      22A     -0.461958    23A     -0.448193    24A     -0.431544
      25A     -0.417477    26A     -0.411116    27A     -0.378950
      28A     -0.373784    29A     -0.361752    30A     -0.345718
      31A     -0.338761    32A     -0.239622    33A     -0.238623
      34A     -0.235402

  @DF-RHF Final Energy:  -839.91748009339699

   => Energetics <=

    Nuclear Repulsion Energy =            313.1873682185216694
    One-Electron Energy =               -1796.9114891733051991
    Two-Electron Energy =                 643.8066408613865406
    Total Energy =                       -839.9174800933969891
 Dipole X            :         49.4827736          -50.2156961           -0.7329225
 Dipole Y            :         37.6399423          -36.2698896            1.3700527
 Dipole Z            :        115.4411411         -114.0440287            1.3971124
 Magnitude           :                                                    2.0895317
  Basis Set: (AUG-CC-PVTZ AUX)
    Blend: AUG-CC-PVTZ-RI
	 Reference Energy          =    -839.9174800933969891 [Eh]
	 Singles Energy            =      -0.0000000000000000 [Eh]
	 Same-Spin Energy          =      -0.4165650670686449 [Eh]
	 Opposite-Spin Energy      =      -1.2725642015817697 [Eh]
	 Correlation Energy        =      -1.6891292686504147 [Eh]
	 Total Energy              =    -841.6066093620473794 [Eh]

	 ================> DF-SCS-MP2 Energies <==================
	-----------------------------------------------------------
	 SCS Same-Spin Scale       =       0.3333333333333333 [-]
	 SCS Opposite-Spin Scale   =       1.2000000000000000 [-]
	 SCS Same-Spin Energy      =      -0.1388550223562150 [Eh]
	 SCS Opposite-Spin Energy  =      -1.5270770418981237 [Eh]
	 SCS Correlation Energy    =      -1.6659320642543387 [Eh]
	 SCS Total Energy          =    -841.5834121576513098 [Eh]
	-----------------------------------------------------------

*** Psi4 exiting successfully. Buy a developer a beer!
