                               Psi4 1.8.2 release

  ==> Input File <==

--------------------------------------------------------------------------
MEMORY 60 GB

molecule dimer {
-1 1
Cl         0.000000     0.000000     0.000000
O          2.811402     1.308917    -0.646326
H          3.234332     1.474802     0.204983
H          1.945733     1.073091    -0.492024
O         -0.273559     0.917934     3.152329
H          0.136827     0.212370     3.671469
H         -0.689970     0.389828     2.431398
O          1.522141    -0.653873    -2.674542
H          1.073915    -0.132792    -3.377375
H          0.886423    -0.702472    -1.962450
O         -2.674822     0.576166    -1.781221
H         -1.954057     0.567322    -1.167115
H         -2.728762     1.502340    -2.123526
O          0.142016    -3.064361    -0.765164
H          0.999542    -3.491946    -0.855143
H          0.263409    -2.296723    -0.197218

units ang
no_reorient
no_com
symmetry c1
}

set {
basis        aug-cc-pVTZ
scf_type     df
}

energy("mp2")
--------------------------------------------------------------------------

    Molecular point group: c1

    Geometry (in Angstrom), charge = -1, multiplicity = 1:

       Center              X                  Y                   Z               Mass
    ------------   -----------------  -----------------  -----------------  -----------------
         CL           0.000000000000     0.000000000000     0.000000000000    34.968852682000
         O            2.811402000000     1.308917000000    -0.646326000000    15.994914619570
         H            3.234332000000     1.474802000000     0.204983000000     1.007825032230
         H            1.945733000000     1.073091000000    -0.492024000000     1.007825032230
         O           -0.273559000000     0.917934000000     3.152329000000    15.994914619570
         H            0.136827000000     0.212370000000     3.671469000000     1.007825032230
         H           -0.689970000000     0.389828000000     2.431398000000     1.007825032230
         O            1.522141000000    -0.653873000000    -2.674542000000    15.994914619570
         H            1.073915000000    -0.132792000000    -3.377375000000     1.007825032230
         H            0.886423000000    -0.702472000000    -1.962450000000     1.007825032230
         O           -2.674822000000     0.576166000000    -1.781221000000    15.994914619570
         H           -1.954057000000     0.567322000000    -1.167115000000     1.007825032230
         H           -2.728762000000     1.502340000000    -2.123526000000     1.007825032230
         O            0.142016000000    -3.064361000000    -0.765164000000    15.994914619570
         H            0.999542000000    -3.491946000000    -0.855143000000     1.007825032230
         H            0.263409000000    -2.296723000000    -0.197218000000     1.007825032230

  Charge       = -1
  Multiplicity = 1
  Basis Set: AUG-CC-PVTZ
    Blend: AUG-CC-PVTZ
  Basis Set: (AUG-CC-PVTZ AUX)
    Blend: AUG-CC-PVTZ-JKFIT

    Orbital Energies [Eh]
    ---------------------

    Doubly Occupied:

       1A   -104.582370     2A    -20.434664     3A    -20.419944
       4A    -20.411655     5A    -20.397149     6A    -20.396911
       7A    -10.308154     8A     -7.774255     9A     -7.774241
      10A     -7.774184    11A     -1.211195    12A     -1.201257
      13A     -1.199640    14A     -1.197161    15A     -1.179117
      16A     -0.829538    17A     -0.576164    18A     -0.570338
      19A     -0.568529    20A     -0.564146    21A     -0.546012
      22A     -0.456625    23A     -0.437398    24A     -0.429593
      25A     -0.424053    26A     -0.417706    27A     -0.375830
      28A     -0.364067    29A     -0.360184    30A     -0.351917
      31A     -0.337985    32A     -0.240320    33A     -0.239697
      34A     -0.236998

  @DF-RHF Final Energy:  -839.91923046537579

   => Energetics <=

    Nuclear Repulsion Energy =            304.4611954563297900
    One-Electron Energy =               -1779.5828583114930552
    Two-Electron Energy =                 635.2024323897875320
    Total Energy =                       -839.9192304653757901
 Dipole X            :        -29.1210919           29.0730887           -0.0480031
 Dipole Y            :         16.8509262          -16.4895914            0.3613347
 Dipole Z            :         49.6541392          -48.3512753            1.3028639
 Magnitude           :                                                    1.3528937
  Basis Set: (AUG-CC-PVTZ AUX)
    Blend: AUG-CC-PVTZ-RI
	 Reference Energy          =    -839.9192304653757901 [Eh]
	 Singles Energy            =      -0.0000000000000000 [Eh]
	 Same-Spin Energy          =      -0.4163275015759748 [Eh]
	 Opposite-Spin Energy      =      -1.2723079004680280 [Eh]
	 Correlation Energy        =      -1.6886354020440026 [Eh]
	 Total Energy              =    -841.6078658674198323 [Eh]

	 ================> DF-SCS-MP2 Energies <==================
	-----------------------------------------------------------
	 SCS Same-Spin Scale       =       0.3333333333333333 [-]
	 SCS Opposite-Spin Scale   =       1.2000000000000000 [-]
	 SCS Same-Spin Energy      =      -0.1387758338586582 [Eh]
	 SCS Opposite-Spin Energy  =      -1.5267694805616336 [Eh]
	 SCS Correlation Energy    =      -1.6655453144202919 [Eh]
	 SCS Total Energy          =    -841.5847757797961322 [Eh]
	-----------------------------------------------------------

*** Psi4 exiting successfully. Buy a developer a beer!
