                               Psi4 1.8.2 release

  ==> Input File <==

--------------------------------------------------------------------------
MEMORY 60 GB

molecule dimer {
0 1
Gh(Cl)     0.000000     0.000000     0.000000
O         -2.352563    -2.000689    -0.906334
H         -1.879597    -2.743087    -1.222228
H         -1.947468    -1.507597    -0.165024
Gh(O)     -2.041171     2.009674     1.692703
Gh(H)     -2.902501     1.850932     1.214944
Gh(H)     -1.359904     1.646238     1.074740
Gh(O)      2.186425    -0.135659    -2.521759
Gh(H)      2.037414    -0.257688    -1.583007
Gh(H)      2.794119     0.578731    -2.754986
Gh(O)      0.632001     3.009939    -1.372366
Gh(H)      0.410937     2.899813    -2.278973
Gh(H)      0.580960     2.129556    -0.959031
Gh(O)      2.420754    -1.652381     1.758642
Gh(H)      1.510958    -1.626298     1.492702
Gh(H)      2.689538    -2.613340     1.613522
Gh(O)      1.643151     1.143126     2.627037
Gh(H)      2.423544     1.465652     2.192753
Gh(H)      1.056724     0.905893     1.868423

units ang
no_reorient
no_com
symmetry c1
}

set {
basis        aug-cc-pVTZ
scf_type     df
}

energy("mp2")
--------------------------------------------------------------------------

    Molecular point group: c1

    Geometry (in Angstrom), charge = 0, multiplicity = 1:

       Center              X                  Y                   Z               Mass
    ------------   -----------------  -----------------  -----------------  -----------------
      Gh(CL)          0.000000000000     0.000000000000     0.000000000000    34.968852682000
         O           -2.352563000000    -2.000689000000    -0.906334000000    15.994914619570
         H           -1.879597000000    -2.743087000000    -1.222228000000     1.007825032230
         H           -1.947468000000    -1.507597000000    -0.165024000000     1.007825032230
      Gh(O)          -2.041171000000     2.009674000000     1.692703000000    15.994914619570
      Gh(H)          -2.902501000000     1.850932000000     1.214944000000     1.007825032230
      Gh(H)          -1.359904000000     1.646238000000     1.074740000000     1.007825032230
      Gh(O)           2.186425000000    -0.135659000000    -2.521759000000    15.994914619570
      Gh(H)           2.037414000000    -0.257688000000    -1.583007000000     1.007825032230
      Gh(H)           2.794119000000     0.578731000000    -2.754986000000     1.007825032230
      Gh(O)           0.632001000000     3.009939000000    -1.372366000000    15.994914619570
      Gh(H)           0.410937000000     2.899813000000    -2.278973000000     1.007825032230
      Gh(H)           0.580960000000     2.129556000000    -0.959031000000     1.007825032230
      Gh(O)           2.420754000000    -1.652381000000     1.758642000000    15.994914619570
      Gh(H)           1.510958000000    -1.626298000000     1.492702000000     1.007825032230
      Gh(H)           2.689538000000    -2.613340000000     1.613522000000     1.007825032230
      Gh(O)           1.643151000000     1.143126000000     2.627037000000    15.994914619570
      Gh(H)           2.423544000000     1.465652000000     2.192753000000     1.007825032230
      Gh(H)           1.056724000000     0.905893000000     1.868423000000     1.007825032230

  Charge       = 0
  Multiplicity = 1
  Basis Set: AUG-CC-PVTZ
    Blend: AUG-CC-PVTZ
  Basis Set: (AUG-CC-PVTZ AUX)
    Blend: AUG-CC-PVTZ-JKFIT

    Orbital Energies [Eh]
    ---------------------

    Doubly Occupied:

       1A    -20.561221     2A     -1.346064     3A     -0.739595
       4A     -0.561826     5A     -0.506729

  @DF-RHF Final Energy:   -76.05693480692295

   => Energetics <=

    Nuclear Repulsion Energy =              9.1797662042471178
    One-Electron Energy =                -123.0425262230050691
    Two-Electron Energy =                  37.8058252118349927
    Total Energy =                        -76.0569348069229534
 Dipole X            :         43.4056281          -42.7977028            0.6079253
 Dipole Y            :         38.1025525          -38.2786628           -0.1761103
 Dipole Z            :         16.6153757          -16.3233107            0.2920651
 Magnitude           :                                                    0.6970581
  Basis Set: (AUG-CC-PVTZ AUX)
    Blend: AUG-CC-PVTZ-RI
	 Reference Energy          =     -76.0569348069229534 [Eh]
	 Singles Energy            =      -0.0000000000000000 [Eh]
	 Same-Spin Energy          =      -0.0682964173432215 [Eh]
	 Opposite-Spin Energy      =      -0.2150717066873172 [Eh]
	 Correlation Energy        =      -0.2833681240305387 [Eh]
	 Total Energy              =     -76.3403029309534986 [Eh]

	 ================> DF-SCS-MP2 Energies <==================
	-----------------------------------------------------------
	 SCS Same-Spin Scale       =       0.3333333333333333 [-]
	 SCS Opposite-Spin Scale   =       1.2000000000000000 [-]
	 SCS Same-Spin Energy      =      -0.0227654724477405 [Eh]
	 SCS Opposite-Spin Energy  =      -0.2580860480247806 [Eh]
	 SCS Correlation Energy    =      -0.2808515204725210 [Eh]
	 SCS Total Energy          =     -76.3377863273954773 [Eh]
	-----------------------------------------------------------

*** Psi4 exiting successfully. Buy a developer a beer!
