                               Psi4 1.8.2 release

  ==> Input File <==

--------------------------------------------------------------------------
MEMORY 60 GB

molecule dimer {
0 1
Gh(Cl)     0.000000     0.000000     0.000000
Gh(O)      2.580413    -0.085154    -1.557658
Gh(H)      1.740288    -0.171482    -1.041132
Gh(H)      2.991017    -0.923894    -1.427814
Gh(O)     -2.460905    -2.327479    -0.521416
Gh(H)     -1.544293    -2.447915    -0.236860
Gh(H)     -2.917761    -3.166475    -0.428069
Gh(O)      0.510044     1.531334     2.976305
Gh(H)      0.808066     1.990027     2.164238
Gh(H)      0.061676     0.714654     2.566184
O         -3.154292     0.989802    -0.487484
H         -3.631637     0.174371    -0.654459
H         -2.267810     0.655784    -0.465304
Gh(O)     -0.248988    -1.979578    -2.367955
Gh(H)      0.454594    -1.824462    -2.932228
Gh(H)     -0.066118    -1.448601    -1.593092

units ang
no_reorient
no_com
symmetry c1
}

set {
basis        aug-cc-pVTZ
scf_type     df
}

energy("mp2")
--------------------------------------------------------------------------

    Molecular point group: c1

    Geometry (in Angstrom), charge = 0, multiplicity = 1:

       Center              X                  Y                   Z               Mass
    ------------   -----------------  -----------------  -----------------  -----------------
      Gh(CL)          0.000000000000     0.000000000000     0.000000000000    34.968852682000
      Gh(O)           2.580413000000    -0.085154000000    -1.557658000000    15.994914619570
      Gh(H)           1.740288000000    -0.171482000000    -1.041132000000     1.007825032230
      Gh(H)           2.991017000000    -0.923894000000    -1.427814000000     1.007825032230
      Gh(O)          -2.460905000000    -2.327479000000    -0.521416000000    15.994914619570
      Gh(H)          -1.544293000000    -2.447915000000    -0.236860000000     1.007825032230
      Gh(H)          -2.917761000000    -3.166475000000    -0.428069000000     1.007825032230
      Gh(O)           0.510044000000     1.531334000000     2.976305000000    15.994914619570
      Gh(H)           0.808066000000     1.990027000000     2.164238000000     1.007825032230
      Gh(H)           0.061676000000     0.714654000000     2.566184000000     1.007825032230
         O           -3.154292000000     0.989802000000    -0.487484000000    15.994914619570
         H           -3.631637000000     0.174371000000    -0.654459000000     1.007825032230
         H           -2.267810000000     0.655784000000    -0.465304000000     1.007825032230
      Gh(O)          -0.248988000000    -1.979578000000    -2.367955000000    15.994914619570
      Gh(H)           0.454594000000    -1.824462000000    -2.932228000000     1.007825032230
      Gh(H)          -0.066118000000    -1.448601000000    -1.593092000000     1.007825032230

  Charge       = 0
  Multiplicity = 1
  Basis Set: AUG-CC-PVTZ
    Blend: AUG-CC-PVTZ
  Basis Set: (AUG-CC-PVTZ AUX)
    Blend: AUG-CC-PVTZ-JKFIT

    Orbital Energies [Eh]
    ---------------------

    Doubly Occupied:

       1A    -20.568485     2A     -1.359058     3A     -0.710275
       4A     -0.594962     5A     -0.512003

  @DF-RHF Final Energy:   -76.05985202114442

   => Energetics <=

    Nuclear Repulsion Energy =              9.2424424867300345
    One-Electron Energy =                -123.1150195780646897
    Two-Electron Energy =                  37.8127250701902256
    Total Energy =                        -76.0598520211444225
 Dipole X            :         59.1060163          -58.8343231            0.2716932
 Dipole Y            :        -17.2880788           16.5324032           -0.7556756
 Dipole Z            :          9.3907162           -9.4857354           -0.0950192
 Magnitude           :                                                    0.8086356
  Basis Set: (AUG-CC-PVTZ AUX)
    Blend: AUG-CC-PVTZ-RI
	 Reference Energy          =     -76.0598520211444225 [Eh]
	 Singles Energy            =      -0.0000000000000000 [Eh]
	 Same-Spin Energy          =      -0.0684391518799759 [Eh]
	 Opposite-Spin Energy      =      -0.2159579086342781 [Eh]
	 Correlation Energy        =      -0.2843970605142541 [Eh]
	 Total Energy              =     -76.3442490816586741 [Eh]

	 ================> DF-SCS-MP2 Energies <==================
	-----------------------------------------------------------
	 SCS Same-Spin Scale       =       0.3333333333333333 [-]
	 SCS Opposite-Spin Scale   =       1.2000000000000000 [-]
	 SCS Same-Spin Energy      =      -0.0228130506266586 [Eh]
	 SCS Opposite-Spin Energy  =      -0.2591494903611337 [Eh]
	 SCS Correlation Energy    =      -0.2819625409877924 [Eh]
	 SCS Total Energy          =     -76.3418145621322140 [Eh]
	-----------------------------------------------------------

*** Psi4 exiting successfully. Buy a developer a beer!
