                               Psi4 1.8.2 release

  ==> Input File <==

--------------------------------------------------------------------------
MEMORY 60 GB

molecule dimer {
0 1
Gh(Cl)     0.000000     0.000000     0.000000
Gh(O)     -2.071837    -1.566407    -2.094834
Gh(H)     -2.804132    -1.909173    -1.581457
Gh(H)     -1.575661    -1.017210    -1.506295
O         -2.835162    -1.380871     1.365181
H         -2.100127    -0.901437     0.939824
H         -3.623037    -0.817636     1.359899
Gh(O)     -0.436252     1.643652    -2.926169
Gh(H)     -0.441176     1.305425    -2.001804
Gh(H)     -0.243187     0.850829    -3.475916
Gh(O)      2.956243     0.741991     0.983113
Gh(H)      2.865237     1.197444     0.143693
Gh(H)      2.115532     0.354191     1.203109

units ang
no_reorient
no_com
symmetry c1
}

set {
basis        aug-cc-pVTZ
scf_type     df
}

energy("mp2")
--------------------------------------------------------------------------

    Molecular point group: c1

    Geometry (in Angstrom), charge = 0, multiplicity = 1:

       Center              X                  Y                   Z               Mass
    ------------   -----------------  -----------------  -----------------  -----------------
      Gh(CL)          0.000000000000     0.000000000000     0.000000000000    34.968852682000
      Gh(O)          -2.071837000000    -1.566407000000    -2.094834000000    15.994914619570
      Gh(H)          -2.804132000000    -1.909173000000    -1.581457000000     1.007825032230
      Gh(H)          -1.575661000000    -1.017210000000    -1.506295000000     1.007825032230
         O           -2.835162000000    -1.380871000000     1.365181000000    15.994914619570
         H           -2.100127000000    -0.901437000000     0.939824000000     1.007825032230
         H           -3.623037000000    -0.817636000000     1.359899000000     1.007825032230
      Gh(O)          -0.436252000000     1.643652000000    -2.926169000000    15.994914619570
      Gh(H)          -0.441176000000     1.305425000000    -2.001804000000     1.007825032230
      Gh(H)          -0.243187000000     0.850829000000    -3.475916000000     1.007825032230
      Gh(O)           2.956243000000     0.741991000000     0.983113000000    15.994914619570
      Gh(H)           2.865237000000     1.197444000000     0.143693000000     1.007825032230
      Gh(H)           2.115532000000     0.354191000000     1.203109000000     1.007825032230

  Charge       = 0
  Multiplicity = 1
  Basis Set: AUG-CC-PVTZ
    Blend: AUG-CC-PVTZ
  Basis Set: (AUG-CC-PVTZ AUX)
    Blend: AUG-CC-PVTZ-JKFIT

    Orbital Energies [Eh]
    ---------------------

    Doubly Occupied:

       1A    -20.567641     2A     -1.343076     3A     -0.717966
       4A     -0.573502     5A     -0.507785

  @DF-RHF Final Energy:   -76.05894029272039

   => Energetics <=

    Nuclear Repulsion Energy =              9.0465365216274343
    One-Electron Energy =                -122.7910093114309831
    Two-Electron Energy =                  37.6855324970831660
    Total Energy =                        -76.0589402927203935
 Dipole X            :         53.6406757          -53.6766501           -0.0359744
 Dipole Y            :         24.8213205          -24.1243212            0.6969993
 Dipole Z            :        -25.2718226           24.9843922           -0.2874304
 Magnitude           :                                                    0.7547969
  Basis Set: (AUG-CC-PVTZ AUX)
    Blend: AUG-CC-PVTZ-RI
	 Reference Energy          =     -76.0589402927203935 [Eh]
	 Singles Energy            =      -0.0000000000000000 [Eh]
	 Same-Spin Energy          =      -0.0685750424018014 [Eh]
	 Opposite-Spin Energy      =      -0.2163253041989457 [Eh]
	 Correlation Energy        =      -0.2849003466007471 [Eh]
	 Total Energy              =     -76.3438406393211437 [Eh]

	 ================> DF-SCS-MP2 Energies <==================
	-----------------------------------------------------------
	 SCS Same-Spin Scale       =       0.3333333333333333 [-]
	 SCS Opposite-Spin Scale   =       1.2000000000000000 [-]
	 SCS Same-Spin Energy      =      -0.0228583474672671 [Eh]
	 SCS Opposite-Spin Energy  =      -0.2595903650387348 [Eh]
	 SCS Correlation Energy    =      -0.2824487125060019 [Eh]
	 SCS Total Energy          =     -76.3413890052263895 [Eh]
	-----------------------------------------------------------

*** Psi4 exiting successfully. Buy a developer a beer!
