                               Psi4 1.9 release

  ==> Input File <==

--------------------------------------------------------------------------
MEMORY 60 GB

molecule dimer {
-1 1
Cl     0.000000     0.000000     0.000000
--
0 1
O     -1.652811    -1.435957     2.395903
H     -1.528767    -2.339541     2.643559
H     -1.043488    -1.261638     1.661966
O      2.190527    -2.113525     1.676719
H      3.042459    -1.604979     1.864963
H      2.252391    -2.309383     0.719254
O     -1.852063     2.109778     1.864448
H     -1.394061     2.041390     2.691589
H     -1.471182     1.475343     1.236059
O     -2.723100     0.051082    -1.912710
H     -3.515131     0.614816    -1.963275
H     -2.101677     0.471886    -1.368991
O     -0.158646     3.092762    -0.275158
H     -0.735780     3.182659    -1.002850
H     -0.140681     2.112324    -0.117622

units ang
no_reorient
no_com
symmetry c1
}

set {
basis        aug-cc-pVTZ
scf_type     df
}

energy("mp2", bsse_type="cp")
--------------------------------------------------------------------------

                               Psi4 1.9 release
    Molecular point group: c1
  Charge       = 0
  Multiplicity = 1
  Basis Set: AUG-CC-PVTZ
    Blend: AUG-CC-PVTZ
  Basis Set: (AUG-CC-PVTZ AUX)
    Blend: AUG-CC-PVTZ-JKFIT
  @DF-RHF Final Energy:  -380.28193298559529
    Total Energy =                       -380.2819329855952901
 Dipole X            :         77.1126933          -75.9757983            1.1368950
 Dipole Y            :        -30.8898744           30.2658480           -0.6240264
 Dipole Z            :        -69.3506096           68.7071689           -0.6434407
 Magnitude           :                                                    1.4477414
  Basis Set: (AUG-CC-PVTZ AUX)
    Blend: AUG-CC-PVTZ-RI
	 Reference Energy          =    -380.2819329855952901 [Eh]
	 Singles Energy            =      -0.0000000000000000 [Eh]
	 Same-Spin Energy          =      -0.3441225367397004 [Eh]
	 Opposite-Spin Energy      =      -1.0823223755549718 [Eh]
	 Correlation Energy        =      -1.4264449122946723 [Eh]
	 Total Energy              =    -381.7083778978899886 [Eh]
	 SCS Total Energy          =    -381.6954273485078488 [Eh]
                               Psi4 1.9 release
    Molecular point group: c1
  Multiplicity = 1
  Basis Set: AUG-CC-PVTZ
    Blend: AUG-CC-PVTZ
  Basis Set: (AUG-CC-PVTZ AUX)
    Blend: AUG-CC-PVTZ-JKFIT
  @DF-RHF Final Energy:  -459.57356925615676
    Total Energy =                       -459.5735692561567021
  Basis Set: (AUG-CC-PVTZ AUX)
	 Singles Energy            =      -0.0000000000000000 [Eh]
	 Same-Spin Energy          =      -0.0634582096138326 [Eh]
	 Opposite-Spin Energy      =      -0.1834543711887230 [Eh]
	 Correlation Energy        =      -0.2469125808025555 [Eh]
	 Total Energy              =    -459.8204818369592886 [Eh]
	 SCS Total Energy          =    -459.8148672381211668 [Eh]
                               Psi4 1.9 release
    Molecular point group: c1

    Geometry (in Bohr), charge = -1, multiplicity = 1:

       Center              X                  Y                   Z               Mass
    ------------   -----------------  -----------------  -----------------  -----------------
         CL           0.000000000000     0.000000000000     0.000000000000    34.968852682000
         O           -3.123360127144    -2.713565457934     4.527600493163    15.994914619570
         H           -2.888950939638    -4.421091749280     4.995602506489     1.007825032230
         H           -1.971906535202    -2.384150289470     3.140660569823     1.007825032230
         O            4.139496100421    -3.993983409308     3.168539699352    15.994914619570
         H            5.749414257934    -3.032970747111     3.524269304112     1.007825032230
         H            4.256402117446    -4.364101388788     1.359193074640     1.007825032230
         O           -3.499891837094     3.986902605516     3.523296095158    15.994914619570
         H           -2.634393492182     3.857668015248     5.086366052295     1.007825032230
         H           -2.780131060703     2.787994211111     2.335812984907     1.007825032230
         O           -5.145913212234     0.096530989941    -3.614498057424    15.994914619570
         H           -6.642634885107     1.161833857549    -3.710052058958     1.007825032230
         H           -3.971593934174     0.891735302438    -2.587018058217     1.007825032230
         O           -0.299797490899     5.844473151223    -0.519973261229    15.994914619570
         H           -1.390422688589     6.014353860723    -1.895111844915     1.007825032230
         H           -0.265848561056     3.991713848232    -0.222273366329     1.007825032230

  Charge       = -1
  Multiplicity = 1
  Basis Set: AUG-CC-PVTZ
    Blend: AUG-CC-PVTZ
  Basis Set: (AUG-CC-PVTZ AUX)
    Blend: AUG-CC-PVTZ-JKFIT

    Orbital Energies [Eh]
    ---------------------

    Doubly Occupied:

       1A   -104.571317     2A    -20.454599     3A    -20.421767
       4A    -20.402745     5A    -20.392446     6A    -20.388688
       7A    -10.296492     8A     -7.762643     9A     -7.762544
      10A     -7.762494    11A     -1.216818    12A     -1.213250
      13A     -1.191669    14A     -1.184237    15A     -1.176822
      16A     -0.815277    17A     -0.587248    18A     -0.576834
      19A     -0.562696    20A     -0.562034    21A     -0.540246
      22A     -0.461678    23A     -0.439227    24A     -0.424292
      25A     -0.419857    26A     -0.410512    27A     -0.388823
      28A     -0.368976    29A     -0.354785    30A     -0.349815
      31A     -0.323042    32A     -0.228125    33A     -0.225481
      34A     -0.222963

  @DF-RHF Final Energy:  -839.90552628499302

   => Energetics <=

    Nuclear Repulsion Energy =            303.3827797778236004
    One-Electron Energy =               -1777.6557184719069937
    Two-Electron Energy =                 634.3674124090904343
    Total Energy =                       -839.9055262849930159
 Dipole X            :         77.6622426          -75.9757983            1.6864443
 Dipole Y            :        -31.3982303           30.2658480           -1.1323823
 Dipole Z            :        -69.6339079           68.7071689           -0.9267390
 Magnitude           :                                                    2.2327627
  Basis Set: (AUG-CC-PVTZ AUX)
    Blend: AUG-CC-PVTZ-RI
	 Reference Energy          =    -839.9055262849930159 [Eh]
	 Singles Energy            =      -0.0000000000000000 [Eh]
	 Same-Spin Energy          =      -0.4159256538202306 [Eh]
	 Opposite-Spin Energy      =      -1.2721210432060259 [Eh]
	 Correlation Energy        =      -1.6880466970262566 [Eh]
	 Total Energy              =    -841.5935729820192819 [Eh]

	 ================> DF-SCS-MP2 Energies <==================
	-----------------------------------------------------------
	 SCS Same-Spin Scale       =       0.3333333333333333 [-]
	 SCS Opposite-Spin Scale   =       1.2000000000000000 [-]
	 SCS Same-Spin Energy      =      -0.1386418846067435 [Eh]
	 SCS Opposite-Spin Energy  =      -1.5265452518472311 [Eh]
	 SCS Correlation Energy    =      -1.6651871364539748 [Eh]
	 SCS Total Energy          =    -841.5707134214469534 [Eh]
	-----------------------------------------------------------

*** Psi4 exiting successfully. Buy a developer a beer!
