                               Psi4 1.9 release

  ==> Input File <==

--------------------------------------------------------------------------
MEMORY 60 GB

molecule dimer {
-1 1
Cl     0.000000     0.000000     0.000000
--
0 1
O     -2.666239    -1.301881    -1.054630
H     -2.570208    -2.255430    -1.078506
H     -1.746081    -0.991791    -0.817387
O      2.937235     1.235636     1.266441
H      2.072901     1.332314     0.901382
H      3.468418     0.879650     0.560004
O      1.295345    -2.245929    -1.956363
H      1.158236    -1.580727    -1.284266
H      2.249821    -2.129765    -2.294281
O     -0.958484     0.502465     3.280993
H     -0.809748     0.779828     2.366636
H     -1.182722     1.362005     3.722428
O      0.241628     0.646788    -3.126455
H     -0.264673    -0.011637    -3.659669
H      0.068030     0.453437    -2.210305
O     -0.360914    -2.944825     1.314556
H     -0.173939    -2.033118     1.069273
H     -0.850519    -2.681567     2.112550

units ang
no_reorient
no_com
symmetry c1
}

set {
basis        aug-cc-pVTZ
scf_type     df
}

energy("mp2", bsse_type="cp")
--------------------------------------------------------------------------

                               Psi4 1.9 release
    Molecular point group: c1
  Charge       = 0
  Multiplicity = 1
  Basis Set: AUG-CC-PVTZ
    Blend: AUG-CC-PVTZ
  Basis Set: (AUG-CC-PVTZ AUX)
    Blend: AUG-CC-PVTZ-JKFIT
  @DF-RHF Final Energy:  -456.33877389275756
    Total Energy =                       -456.3387738927575583
 Dipole X            :         -9.7962038           10.0686195            0.2724157
 Dipole Y            :         75.8214026          -75.0953900            0.7260126
 Dipole Z            :          5.2856838           -5.3211003           -0.0354165
 Magnitude           :                                                    0.7762467
  Basis Set: (AUG-CC-PVTZ AUX)
    Blend: AUG-CC-PVTZ-RI
	 Reference Energy          =    -456.3387738927575583 [Eh]
	 Singles Energy            =      -0.0000000000000000 [Eh]
	 Same-Spin Energy          =      -0.4139060623231061 [Eh]
	 Opposite-Spin Energy      =      -1.3022739254120927 [Eh]
	 Correlation Energy        =      -1.7161799877351989 [Eh]
	 Total Energy              =    -458.0549538804927465 [Eh]
	 SCS Total Energy          =    -458.0394712906930863 [Eh]
                               Psi4 1.9 release
    Molecular point group: c1
  Multiplicity = 1
  Basis Set: AUG-CC-PVTZ
    Blend: AUG-CC-PVTZ
  Basis Set: (AUG-CC-PVTZ AUX)
    Blend: AUG-CC-PVTZ-JKFIT
  @DF-RHF Final Energy:  -459.57359213470380
    Total Energy =                       -459.5735921347037447
  Basis Set: (AUG-CC-PVTZ AUX)
	 Singles Energy            =      -0.0000000000000000 [Eh]
	 Same-Spin Energy          =      -0.0637284386493745 [Eh]
	 Opposite-Spin Energy      =      -0.1845957216048421 [Eh]
	 Correlation Energy        =      -0.2483241602542166 [Eh]
	 Total Energy              =    -459.8219162949580436 [Eh]
	 SCS Total Energy          =    -459.8163498135127156 [Eh]
                               Psi4 1.9 release
    Molecular point group: c1

    Geometry (in Bohr), charge = -1, multiplicity = 1:

       Center              X                  Y                   Z               Mass
    ------------   -----------------  -----------------  -----------------  -----------------
         CL           0.000000000000     0.000000000000     0.000000000000    34.968852682000
         O           -5.038461495015    -2.460198537937    -1.992961863692    15.994914619570
         H           -4.856989205461    -4.262144995141    -2.038080964663     1.007825032230
         H           -3.299614882866    -1.874213363694    -1.544637568510     1.007825032230
         O            5.550569716109     2.335013630756     2.393226644051    15.994914619570
         H            3.917215175188     2.517708573113     1.703365114417     1.007825032230
         H            6.554360108608     1.662297586259     1.058254189161     1.007825032230
         O            2.447847287981    -4.244190707223    -3.696990271979    15.994914619570
         H            2.188748828646    -2.987141109117    -2.426911012237     1.007825032230
         H            4.251545521304    -4.024672561586    -4.335562744842     1.007825032230
         O           -1.811272255633     0.949521237628     6.200178189544    15.994914619570
         H           -1.530201950637     1.473661344964     4.472293878649     1.007825032230
         H           -2.235020662554     2.573816431504     7.034369441736     1.007825032230
         O            0.456610744242     1.222252181233    -5.908143693568    15.994914619570
         H           -0.500159482803    -0.021990742922    -6.915772119828     1.007825032230
         H            0.128558068315     0.856871745149    -4.176871103730     1.007825032230
         O           -0.682028614843    -5.564912737401     2.484150816577    15.994914619570
         H           -0.328697072536    -3.842036200739     2.020633123347     1.007825032230
         H           -1.607247974498    -5.067427217066     3.992140926336     1.007825032230

  Charge       = -1
  Multiplicity = 1
  Basis Set: AUG-CC-PVTZ
    Blend: AUG-CC-PVTZ
  Basis Set: (AUG-CC-PVTZ AUX)
    Blend: AUG-CC-PVTZ-JKFIT

    Orbital Energies [Eh]
    ---------------------

    Doubly Occupied:

       1A   -104.605958     2A    -20.448694     3A    -20.434765
       4A    -20.427582     5A    -20.417770     6A    -20.414042
       7A    -20.409061     8A    -10.331778     9A     -7.797890
      10A     -7.797851    11A     -7.797809    12A     -1.228837
      13A     -1.221973    14A     -1.204909    15A     -1.198069
      16A     -1.194453    17A     -1.186773    18A     -0.854543
      19A     -0.596130    20A     -0.579292    21A     -0.569057
      22A     -0.565553    23A     -0.548531    24A     -0.538378
      25A     -0.466340    26A     -0.459948    27A     -0.457589
      28A     -0.437338    29A     -0.433542    30A     -0.431485
      31A     -0.387774    32A     -0.383187    33A     -0.373230
      34A     -0.362716    35A     -0.353595    36A     -0.351092
      37A     -0.265168    38A     -0.262773    39A     -0.260644

  @DF-RHF Final Energy:  -915.99063811285805

   => Energetics <=

    Nuclear Repulsion Energy =            396.4373283205575831
    One-Electron Energy =               -2068.7436977994680092
    Two-Electron Energy =                 756.3157313660524323
    Total Energy =                       -915.9906381128580506
 Dipole X            :         -9.7412434           10.0686195            0.3273761
 Dipole Y            :         76.3286263          -75.0953900            1.2332363
 Dipole Z            :          5.5113174           -5.3211003            0.1902171
 Magnitude           :                                                    1.2900501
  Basis Set: (AUG-CC-PVTZ AUX)
    Blend: AUG-CC-PVTZ-RI
	 Reference Energy          =    -915.9906381128580506 [Eh]
	 Singles Energy            =      -0.0000000000000000 [Eh]
	 Same-Spin Energy          =      -0.4879281029970470 [Eh]
	 Opposite-Spin Energy      =      -1.4941046436011658 [Eh]
	 Correlation Energy        =      -1.9820327465982128 [Eh]
	 Total Energy              =    -917.9726708594562297 [Eh]

	 ================> DF-SCS-MP2 Energies <==================
	-----------------------------------------------------------
	 SCS Same-Spin Scale       =       0.3333333333333333 [-]
	 SCS Opposite-Spin Scale   =       1.2000000000000000 [-]
	 SCS Same-Spin Energy      =      -0.1626427009990156 [Eh]
	 SCS Opposite-Spin Energy  =      -1.7929255723213988 [Eh]
	 SCS Correlation Energy    =      -1.9555682733204145 [Eh]
	 SCS Total Energy          =    -917.9462063861784600 [Eh]
	-----------------------------------------------------------

*** Psi4 exiting successfully. Buy a developer a beer!
