                               Psi4 1.8.2 release

  ==> Input File <==

--------------------------------------------------------------------------
MEMORY 60 GB

molecule dimer {
0 1
Gh(Cl)     0.000000     0.000000     0.000000
Gh(O)     -0.939928     3.138189    -0.000936
Gh(H)     -0.820702     2.238321     0.375766
Gh(H)     -0.712248     3.077225    -0.943590
Gh(O)      1.774428     1.345338    -2.573145
Gh(H)      1.119620     1.302239    -1.824535
Gh(H)      1.660456     2.173050    -2.996113
O         -2.265274    -2.324267     0.705293
H         -2.834139    -2.738348     0.091603
H         -1.824269    -1.638760     0.205252
Gh(O)      0.930253    -0.455464     2.995589
Gh(H)      0.429133     0.276974     3.481595
Gh(H)      0.852726    -0.389826     2.071742

units ang
no_reorient
no_com
symmetry c1
}

set {
basis        aug-cc-pVTZ
scf_type     df
}

energy("mp2")
--------------------------------------------------------------------------

    Molecular point group: c1

    Geometry (in Angstrom), charge = 0, multiplicity = 1:

       Center              X                  Y                   Z               Mass
    ------------   -----------------  -----------------  -----------------  -----------------
      Gh(CL)          0.000000000000     0.000000000000     0.000000000000    34.968852682000
      Gh(O)          -0.939928000000     3.138189000000    -0.000936000000    15.994914619570
      Gh(H)          -0.820702000000     2.238321000000     0.375766000000     1.007825032230
      Gh(H)          -0.712248000000     3.077225000000    -0.943590000000     1.007825032230
      Gh(O)           1.774428000000     1.345338000000    -2.573145000000    15.994914619570
      Gh(H)           1.119620000000     1.302239000000    -1.824535000000     1.007825032230
      Gh(H)           1.660456000000     2.173050000000    -2.996113000000     1.007825032230
         O           -2.265274000000    -2.324267000000     0.705293000000    15.994914619570
         H           -2.834139000000    -2.738348000000     0.091603000000     1.007825032230
         H           -1.824269000000    -1.638760000000     0.205252000000     1.007825032230
      Gh(O)           0.930253000000    -0.455464000000     2.995589000000    15.994914619570
      Gh(H)           0.429133000000     0.276974000000     3.481595000000     1.007825032230
      Gh(H)           0.852726000000    -0.389826000000     2.071742000000     1.007825032230

  Charge       = 0
  Multiplicity = 1
  Basis Set: AUG-CC-PVTZ
    Blend: AUG-CC-PVTZ
  Basis Set: (AUG-CC-PVTZ AUX)
    Blend: AUG-CC-PVTZ-JKFIT

    Orbital Energies [Eh]
    ---------------------

    Doubly Occupied:

       1A    -20.564851     2A     -1.359990     3A     -0.725233
       4A     -0.586704     5A     -0.511341

  @DF-RHF Final Energy:   -76.06086044788474

   => Energetics <=

    Nuclear Repulsion Energy =              9.3147602386946460
    One-Electron Energy =                -123.2550027754038524
    Two-Electron Energy =                  37.8793820888244710
    Total Energy =                        -76.0608604478847354
 Dipole X            :         42.9605925          -43.0490950           -0.0885025
 Dipole Y            :         43.5888793          -43.4093599            0.1795193
 Dipole Z            :        -11.9718079           11.2234595           -0.7483483
 Magnitude           :                                                    0.7746516
  Basis Set: (AUG-CC-PVTZ AUX)
    Blend: AUG-CC-PVTZ-RI
	 Reference Energy          =     -76.0608604478847354 [Eh]
	 Singles Energy            =      -0.0000000000000000 [Eh]
	 Same-Spin Energy          =      -0.0681486188546487 [Eh]
	 Opposite-Spin Energy      =      -0.2148228181040375 [Eh]
	 Correlation Energy        =      -0.2829714369586862 [Eh]
	 Total Energy              =     -76.3438318848434250 [Eh]

	 ================> DF-SCS-MP2 Energies <==================
	-----------------------------------------------------------
	 SCS Same-Spin Scale       =       0.3333333333333333 [-]
	 SCS Opposite-Spin Scale   =       1.2000000000000000 [-]
	 SCS Same-Spin Energy      =      -0.0227162062848829 [Eh]
	 SCS Opposite-Spin Energy  =      -0.2577873817248449 [Eh]
	 SCS Correlation Energy    =      -0.2805035880097279 [Eh]
	 SCS Total Energy          =     -76.3413640358944576 [Eh]
	-----------------------------------------------------------

*** Psi4 exiting successfully. Buy a developer a beer!
