                               Psi4 1.9 release

  ==> Input File <==

--------------------------------------------------------------------------
MEMORY 60 GB

molecule dimer {
-1 1
Cl     0.000000     0.000000     0.000000
--
0 1
O      0.823380    -1.352973    -3.021871
H      1.752854    -1.586619    -2.681171
H      0.487876    -0.873730    -2.261775
O      2.523281     0.075105     2.141624
H      2.081558    -0.483417     2.754013
H      1.877416     0.285763     1.482632
O      2.650784     1.254153    -1.136163
H      2.401662     1.605478    -1.971241
H      1.924731     0.699704    -0.891412
O     -0.306264     2.928050     0.541310
H      0.380642     3.308514     1.104799
H      0.073139     2.191299     0.141775
O     -1.011167     1.396698    -2.618018
H     -0.727764     2.280068    -2.348939
H     -0.878256     0.893634    -1.790117

units ang
no_reorient
no_com
symmetry c1
}

set {
basis        aug-cc-pVTZ
scf_type     df
}

energy("mp2", bsse_type="cp")
--------------------------------------------------------------------------

                               Psi4 1.9 release
    Molecular point group: c1
  Charge       = 0
  Multiplicity = 1
  Basis Set: AUG-CC-PVTZ
    Blend: AUG-CC-PVTZ
  Basis Set: (AUG-CC-PVTZ AUX)
    Blend: AUG-CC-PVTZ-JKFIT
  @DF-RHF Final Energy:  -380.28416368181200
    Total Energy =                       -380.2841636818120037
 Dipole X            :        -88.4133344           88.4655821            0.0522478
 Dipole Y            :        -80.8376589           80.7460282           -0.0916307
 Dipole Z            :         75.1066385          -74.0893206            1.0173179
 Magnitude           :                                                    1.0227716
  Basis Set: (AUG-CC-PVTZ AUX)
    Blend: AUG-CC-PVTZ-RI
	 Reference Energy          =    -380.2841636818120037 [Eh]
	 Singles Energy            =      -0.0000000000000000 [Eh]
	 Same-Spin Energy          =      -0.3447123970352530 [Eh]
	 Opposite-Spin Energy      =      -1.0837431678554705 [Eh]
	 Correlation Energy        =      -1.4284555648907236 [Eh]
	 Total Energy              =    -381.7126192467027295 [Eh]
	 SCS Total Energy          =    -381.6995596155836665 [Eh]
                               Psi4 1.9 release
    Molecular point group: c1
  Multiplicity = 1
  Basis Set: AUG-CC-PVTZ
    Blend: AUG-CC-PVTZ
  Basis Set: (AUG-CC-PVTZ AUX)
    Blend: AUG-CC-PVTZ-JKFIT
  @DF-RHF Final Energy:  -459.57358115774298
    Total Energy =                       -459.5735811577429786
  Basis Set: (AUG-CC-PVTZ AUX)
	 Singles Energy            =      -0.0000000000000000 [Eh]
	 Same-Spin Energy          =      -0.0636453688402174 [Eh]
	 Opposite-Spin Energy      =      -0.1843123227661270 [Eh]
	 Correlation Energy        =      -0.2479576916063444 [Eh]
	 Total Energy              =    -459.8215388493493379 [Eh]
	 SCS Total Energy          =    -459.8159710680090484 [Eh]
                               Psi4 1.9 release
    Molecular point group: c1

    Geometry (in Bohr), charge = -1, multiplicity = 1:

       Center              X                  Y                   Z               Mass
    ------------   -----------------  -----------------  -----------------  -----------------
         CL           0.000000000000     0.000000000000     0.000000000000    34.968852682000
         O            1.555962697179    -2.556748425139    -5.710508576463    15.994914619570
         H            3.312413997913    -2.998275375448    -5.066678885520     1.007825032230
         H            0.921952023184    -1.651110407596    -4.274135307407     1.007825032230
         O            4.768310027571     0.141927880653     4.047082823707    15.994914619570
         H            3.933574534256    -0.913525734390     5.204330315950     1.007825032230
         H            3.547802063553     0.540013806789     2.801768424840     1.007825032230
         O            5.009255777746     2.370005689421    -2.147036903879    15.994914619570
         H            4.538483425919     3.033913720448    -3.725105617274     1.007825032230
         H            3.637214455179     1.322248928887    -1.684524544947     1.007825032230
         O           -0.578755082087     5.533212581647     1.022927648972    15.994914619570
         H            0.719309131847     6.252185342243     2.087767533680     1.007825032230
         H            0.138212679090     4.140954968990     0.267915921437     1.007825032230
         O           -1.910828697101     2.639376699975    -4.947337011519    15.994914619570
         H           -1.375274643968     4.308704067420    -4.438851395407     1.007825032230
         H           -1.659663308040     1.688723516397    -3.382830862526     1.007825032230

  Charge       = -1
  Multiplicity = 1
  Basis Set: AUG-CC-PVTZ
    Blend: AUG-CC-PVTZ
  Basis Set: (AUG-CC-PVTZ AUX)
    Blend: AUG-CC-PVTZ-JKFIT

    Orbital Energies [Eh]
    ---------------------

    Doubly Occupied:

       1A   -104.596028     2A    -20.425672     3A    -20.420053
       4A    -20.417436     5A    -20.415235     6A    -20.411252
       7A    -10.322026     8A     -7.788103     9A     -7.788077
      10A     -7.788016    11A     -1.219771    12A     -1.218031
      13A     -1.215519    14A     -1.196623    15A     -1.193621
      16A     -0.846137    17A     -0.590810    18A     -0.586522
      19A     -0.580685    20A     -0.556505    21A     -0.543341
      22A     -0.452764    23A     -0.449346    24A     -0.444726
      25A     -0.442607    26A     -0.439106    27A     -0.371955
      28A     -0.371122    29A     -0.367176    30A     -0.365250
      31A     -0.354128    32A     -0.255223    33A     -0.253572
      34A     -0.250077

  @DF-RHF Final Energy:  -839.92681652347301

   => Energetics <=

    Nuclear Repulsion Energy =            321.6210428464075903
    One-Electron Energy =               -1813.2226843572429971
    Two-Electron Energy =                 651.6748249873623990
    Total Energy =                       -839.9268165234730077
 Dipole X            :        -89.0019577           88.4655821           -0.5363755
 Dipole Y            :        -81.4259005           80.7460282           -0.6798722
 Dipole Z            :         75.6637390          -74.0893206            1.5744185
 Magnitude           :                                                    1.7968635
  Basis Set: (AUG-CC-PVTZ AUX)
    Blend: AUG-CC-PVTZ-RI
	 Reference Energy          =    -839.9268165234730077 [Eh]
	 Singles Energy            =      -0.0000000000000000 [Eh]
	 Same-Spin Energy          =      -0.4179891756601978 [Eh]
	 Opposite-Spin Energy      =      -1.2745263850486821 [Eh]
	 Correlation Energy        =      -1.6925155607088800 [Eh]
	 Total Energy              =    -841.6193320841819059 [Eh]

	 ================> DF-SCS-MP2 Energies <==================
	-----------------------------------------------------------
	 SCS Same-Spin Scale       =       0.3333333333333333 [-]
	 SCS Opposite-Spin Scale   =       1.2000000000000000 [-]
	 SCS Same-Spin Energy      =      -0.1393297252200659 [Eh]
	 SCS Opposite-Spin Energy  =      -1.5294316620584185 [Eh]
	 SCS Correlation Energy    =      -1.6687613872784843 [Eh]
	 SCS Total Energy          =    -841.5955779107514445 [Eh]
	-----------------------------------------------------------

*** Psi4 exiting successfully. Buy a developer a beer!
