                               Psi4 1.8.2 release

  ==> Input File <==

--------------------------------------------------------------------------
MEMORY 60 GB

molecule dimer {
0 1
Gh(Cl)     0.000000     0.000000     0.000000
Gh(O)      2.151842     1.930427    -1.340171
Gh(H)      1.350694     1.443964    -1.092752
Gh(H)      2.600730     2.059208    -0.557280
Gh(O)     -0.845603    -1.954378    -2.400622
Gh(H)     -0.576408    -1.381923    -1.685351
Gh(H)     -0.891883    -2.856008    -2.074388
O         -2.695475     1.706640    -1.327933
H         -1.902725     1.294081    -0.924358
H         -2.569155     2.694294    -1.426749
Gh(O)     -2.474764    -2.030755     0.960515
Gh(H)     -3.239782    -1.595363     0.512300
Gh(H)     -1.802427    -1.355761     0.798361
Gh(O)     -1.355417     2.160929     1.846580
Gh(H)     -0.713707     2.483561     2.470183
Gh(H)     -1.000521     1.322098     1.546916

units ang
no_reorient
no_com
symmetry c1
}

set {
basis        aug-cc-pVTZ
scf_type     df
}

energy("mp2")
--------------------------------------------------------------------------

    Molecular point group: c1

    Geometry (in Angstrom), charge = 0, multiplicity = 1:

       Center              X                  Y                   Z               Mass
    ------------   -----------------  -----------------  -----------------  -----------------
      Gh(CL)          0.000000000000     0.000000000000     0.000000000000    34.968852682000
      Gh(O)           2.151842000000     1.930427000000    -1.340171000000    15.994914619570
      Gh(H)           1.350694000000     1.443964000000    -1.092752000000     1.007825032230
      Gh(H)           2.600730000000     2.059208000000    -0.557280000000     1.007825032230
      Gh(O)          -0.845603000000    -1.954378000000    -2.400622000000    15.994914619570
      Gh(H)          -0.576408000000    -1.381923000000    -1.685351000000     1.007825032230
      Gh(H)          -0.891883000000    -2.856008000000    -2.074388000000     1.007825032230
         O           -2.695475000000     1.706640000000    -1.327933000000    15.994914619570
         H           -1.902725000000     1.294081000000    -0.924358000000     1.007825032230
         H           -2.569155000000     2.694294000000    -1.426749000000     1.007825032230
      Gh(O)          -2.474764000000    -2.030755000000     0.960515000000    15.994914619570
      Gh(H)          -3.239782000000    -1.595363000000     0.512300000000     1.007825032230
      Gh(H)          -1.802427000000    -1.355761000000     0.798361000000     1.007825032230
      Gh(O)          -1.355417000000     2.160929000000     1.846580000000    15.994914619570
      Gh(H)          -0.713707000000     2.483561000000     2.470183000000     1.007825032230
      Gh(H)          -1.000521000000     1.322098000000     1.546916000000     1.007825032230

  Charge       = 0
  Multiplicity = 1
  Basis Set: AUG-CC-PVTZ
    Blend: AUG-CC-PVTZ
  Basis Set: (AUG-CC-PVTZ AUX)
    Blend: AUG-CC-PVTZ-JKFIT

    Orbital Energies [Eh]
    ---------------------

    Doubly Occupied:

       1A    -20.569850     2A     -1.333002     3A     -0.710693
       4A     -0.566628     5A     -0.505708

  @DF-RHF Final Energy:   -76.05535339328853

   => Energetics <=

    Nuclear Repulsion Energy =              8.8728277318679147
    One-Electron Energy =                -122.4845979658626476
    Two-Electron Energy =                  37.5564168407061985
    Total Energy =                        -76.0553533932885273
 Dipole X            :         49.8122204          -49.2003047            0.6119157
 Dipole Y            :        -32.9580909           33.3375940            0.3795031
 Dipole Z            :         24.7216942          -24.5183858            0.2033084
 Magnitude           :                                                    0.7481963
  Basis Set: (AUG-CC-PVTZ AUX)
    Blend: AUG-CC-PVTZ-RI
	 Reference Energy          =     -76.0553533932885273 [Eh]
	 Singles Energy            =      -0.0000000000000000 [Eh]
	 Same-Spin Energy          =      -0.0688904934641403 [Eh]
	 Opposite-Spin Energy      =      -0.2173374385830498 [Eh]
	 Correlation Energy        =      -0.2862279320471901 [Eh]
	 Total Energy              =     -76.3415813253357243 [Eh]

	 ================> DF-SCS-MP2 Energies <==================
	-----------------------------------------------------------
	 SCS Same-Spin Scale       =       0.3333333333333333 [-]
	 SCS Opposite-Spin Scale   =       1.2000000000000000 [-]
	 SCS Same-Spin Energy      =      -0.0229634978213801 [Eh]
	 SCS Opposite-Spin Energy  =      -0.2608049262996598 [Eh]
	 SCS Correlation Energy    =      -0.2837684241210399 [Eh]
	 SCS Total Energy          =     -76.3391218174095627 [Eh]
	-----------------------------------------------------------

*** Psi4 exiting successfully. Buy a developer a beer!
