                               Psi4 1.8.2 release

  ==> Input File <==

--------------------------------------------------------------------------
MEMORY 60 GB

molecule dimer {
0 1
Gh(Cl)     0.000000     0.000000     0.000000
O         -3.345480    -0.015182     0.788190
H         -3.632837    -0.005960    -0.124407
H         -2.407724    -0.067282     0.760475
Gh(O)      0.909665    -3.050980    -1.330231
Gh(H)      0.510666    -2.302691    -0.878649
Gh(H)      1.796129    -2.796512    -1.580084
Gh(O)      0.623160    -1.959905     2.371318
Gh(H)      1.061949    -2.773718     2.071950
Gh(H)      0.542996    -1.324600     1.640391

units ang
no_reorient
no_com
symmetry c1
}

set {
basis        aug-cc-pVTZ
scf_type     df
}

energy("mp2")
--------------------------------------------------------------------------

    Molecular point group: c1

    Geometry (in Angstrom), charge = 0, multiplicity = 1:

       Center              X                  Y                   Z               Mass
    ------------   -----------------  -----------------  -----------------  -----------------
      Gh(CL)          0.000000000000     0.000000000000     0.000000000000    34.968852682000
         O           -3.345480000000    -0.015182000000     0.788190000000    15.994914619570
         H           -3.632837000000    -0.005960000000    -0.124407000000     1.007825032230
         H           -2.407724000000    -0.067282000000     0.760475000000     1.007825032230
      Gh(O)           0.909665000000    -3.050980000000    -1.330231000000    15.994914619570
      Gh(H)           0.510666000000    -2.302691000000    -0.878649000000     1.007825032230
      Gh(H)           1.796129000000    -2.796512000000    -1.580084000000     1.007825032230
      Gh(O)           0.623160000000    -1.959905000000     2.371318000000    15.994914619570
      Gh(H)           1.061949000000    -2.773718000000     2.071950000000     1.007825032230
      Gh(H)           0.542996000000    -1.324600000000     1.640391000000     1.007825032230

  Charge       = 0
  Multiplicity = 1
  Basis Set: AUG-CC-PVTZ
    Blend: AUG-CC-PVTZ
  Basis Set: (AUG-CC-PVTZ AUX)
    Blend: AUG-CC-PVTZ-JKFIT

    Orbital Energies [Eh]
    ---------------------

    Doubly Occupied:

       1A    -20.565016     2A     -1.357458     3A     -0.725354
       4A     -0.584124     5A     -0.510753

  @DF-RHF Final Energy:   -76.06095909618385

   => Energetics <=

    Nuclear Repulsion Energy =              9.2798633042772618
    One-Electron Energy =                -123.1962345656402107
    Two-Electron Energy =                  37.8554121651790965
    Total Energy =                        -76.0609590961838649
 Dipole X            :         62.4309546          -61.9913336            0.4396210
 Dipole Y            :          0.3390768           -0.3679259           -0.0288491
 Dipole Z            :        -13.7478588           13.1177002           -0.6301586
 Magnitude           :                                                    0.7688945
  Basis Set: (AUG-CC-PVTZ AUX)
    Blend: AUG-CC-PVTZ-RI
	 Reference Energy          =     -76.0609590961838506 [Eh]
	 Singles Energy            =      -0.0000000000000000 [Eh]
	 Same-Spin Energy          =      -0.0681869695004646 [Eh]
	 Opposite-Spin Energy      =      -0.2151163883085566 [Eh]
	 Correlation Energy        =      -0.2833033578090213 [Eh]
	 Total Energy              =     -76.3442624539928687 [Eh]

	 ================> DF-SCS-MP2 Energies <==================
	-----------------------------------------------------------
	 SCS Same-Spin Scale       =       0.3333333333333333 [-]
	 SCS Opposite-Spin Scale   =       1.2000000000000000 [-]
	 SCS Same-Spin Energy      =      -0.0227289898334882 [Eh]
	 SCS Opposite-Spin Energy  =      -0.2581396659702679 [Eh]
	 SCS Correlation Energy    =      -0.2808686558037561 [Eh]
	 SCS Total Energy          =     -76.3418277519876085 [Eh]
	-----------------------------------------------------------

*** Psi4 exiting successfully. Buy a developer a beer!
