                               Psi4 1.9 release

  ==> Input File <==

--------------------------------------------------------------------------
MEMORY 60 GB

molecule dimer {
-1 1
Cl     0.000000     0.000000     0.000000
--
0 1
O      3.283874     0.023914     0.066002
H      2.312251    -0.077803    -0.109892
H      3.539398     0.361898    -0.833054
O     -0.063433     0.767355    -3.215659
H      0.774290     0.372773    -3.374160
H     -0.183096     0.530838    -2.284812
O     -0.156099    -2.335974    -2.061858
H     -0.228404    -1.613551    -1.460921
H      0.568802    -2.828920    -1.752202
O      1.706919    -0.782022     2.837503
H      2.308159    -0.635102     2.121010
H      1.957319    -0.183287     3.612115
O     -2.623918     1.199652    -1.550824
H     -2.518364     2.157209    -1.867397
H     -1.847456     0.943078    -1.098054
O      1.334315     2.964091    -0.575831
H      1.001079     2.053987    -0.510309
H      0.576362     3.472885    -0.217357

units ang
no_reorient
no_com
symmetry c1
}

set {
basis        aug-cc-pVTZ
scf_type     df
}

energy("mp2", bsse_type="cp")
--------------------------------------------------------------------------

                               Psi4 1.9 release
    Molecular point group: c1
  Charge       = 0
  Multiplicity = 1
  Basis Set: AUG-CC-PVTZ
    Blend: AUG-CC-PVTZ
  Basis Set: (AUG-CC-PVTZ AUX)
    Blend: AUG-CC-PVTZ-JKFIT
  @DF-RHF Final Energy:  -456.33053895445892
    Total Energy =                       -456.3305389544589161
 Dipole X            :        -67.3034093           68.2448210            0.9414116
 Dipole Y            :        -35.7493266           36.3774792            0.6281527
 Dipole Z            :         83.3544484          -82.7329071            0.6215413
 Magnitude           :                                                    1.2911798
  Basis Set: (AUG-CC-PVTZ AUX)
    Blend: AUG-CC-PVTZ-RI
	 Reference Energy          =    -456.3305389544589161 [Eh]
	 Singles Energy            =      -0.0000000000000000 [Eh]
	 Same-Spin Energy          =      -0.4149224258498320 [Eh]
	 Opposite-Spin Energy      =      -1.3038952481523300 [Eh]
	 Correlation Energy        =      -1.7188176740021621 [Eh]
	 Total Energy              =    -458.0493566284610552 [Eh]
	 SCS Total Energy          =    -458.0335207275250013 [Eh]
                               Psi4 1.9 release
    Molecular point group: c1
  Multiplicity = 1
  Basis Set: AUG-CC-PVTZ
    Blend: AUG-CC-PVTZ
  Basis Set: (AUG-CC-PVTZ AUX)
    Blend: AUG-CC-PVTZ-JKFIT
  @DF-RHF Final Energy:  -459.57359007811448
    Total Energy =                       -459.5735900781145347
  Basis Set: (AUG-CC-PVTZ AUX)
	 Singles Energy            =      -0.0000000000000000 [Eh]
	 Same-Spin Energy          =      -0.0637152934401872 [Eh]
	 Opposite-Spin Energy      =      -0.1845270279324827 [Eh]
	 Correlation Energy        =      -0.2482423213726698 [Eh]
	 Total Energy              =    -459.8218323994871639 [Eh]
	 SCS Total Energy          =    -459.8162609427801613 [Eh]
                               Psi4 1.9 release
    Molecular point group: c1

    Geometry (in Bohr), charge = -1, multiplicity = 1:

       Center              X                  Y                   Z               Mass
    ------------   -----------------  -----------------  -----------------  -----------------
         CL           0.000000000000     0.000000000000     0.000000000000    34.968852682000
         O            6.205622490512     0.045190910564     0.124725703732    15.994914619570
         H            4.369521123316    -0.147026361739    -0.207665783379     1.007825032230
         H            6.688492868993     0.683888105351    -1.574243907717     1.007825032230
         O           -0.119870997316     1.450090791001    -6.076714822864    15.994914619570
         H            1.463196041681     0.704438876965    -6.376238303475     1.007825032230
         H           -0.346001294667     1.003138436986    -4.317668928160     1.007825032230
         O           -0.294984358458    -4.414351096190    -3.896346929584    15.994914619570
         H           -0.431621005959    -3.049169479459    -2.760740580930     1.007825032230
         H            1.074879999613    -5.345884030830    -3.311181896479     1.007825032230
         O            3.225609428340    -1.477807404083     5.362103550165    15.994914619570
         H            4.361788364011    -1.200168841731     4.008128009357     1.007825032230
         H            3.698796850155    -0.346362232357     6.825908083658     1.007825032230
         O           -4.958486395659     2.267013725858    -2.930632628787    15.994914619570
         H           -4.759018244212     4.076534205373    -3.528868897502     1.007825032230
         H           -3.491185868834     1.782159134945    -2.075021330963     1.007825032230
         O            2.521489915090     5.601320200934    -1.088162884549    15.994914619570
         H            1.891765139947     3.881472895251    -0.964344249356     1.007825032230
         H            1.089166329121     6.562801515211    -0.410745201451     1.007825032230

  Charge       = -1
  Multiplicity = 1
  Basis Set: AUG-CC-PVTZ
    Blend: AUG-CC-PVTZ
  Basis Set: (AUG-CC-PVTZ AUX)
    Blend: AUG-CC-PVTZ-JKFIT

    Orbital Energies [Eh]
    ---------------------

    Doubly Occupied:

       1A   -104.599788     2A    -20.444309     3A    -20.438292
       4A    -20.427390     5A    -20.418163     6A    -20.411567
       7A    -20.407338     8A    -10.325381     9A     -7.791430
      10A     -7.791420    11A     -7.791406    12A     -1.214876
      13A     -1.213792    14A     -1.209922    15A     -1.207070
      16A     -1.205193    17A     -1.195950    18A     -0.847565
      19A     -0.589408    20A     -0.581505    21A     -0.574325
      22A     -0.563656    23A     -0.557586    24A     -0.557031
      25A     -0.471518    26A     -0.452225    27A     -0.447703
      28A     -0.442030    29A     -0.441332    30A     -0.428930
      31A     -0.384332    32A     -0.378025    33A     -0.371306
      34A     -0.365318    35A     -0.360809    36A     -0.353472
      37A     -0.257908    38A     -0.255479    39A     -0.253577

  @DF-RHF Final Energy:  -915.97825109825499

   => Energetics <=

    Nuclear Repulsion Energy =            405.7958581484782599
    One-Electron Energy =               -2087.4915563319377725
    Two-Electron Energy =                 765.7174470852046397
    Total Energy =                       -915.9782510982549866
 Dipole X            :        -67.6900453           68.2448210            0.5547757
 Dipole Y            :        -36.0571972           36.3774792            0.3202820
 Dipole Z            :         84.2183289          -82.7329071            1.4854218
 Magnitude           :                                                    1.6176633
  Basis Set: (AUG-CC-PVTZ AUX)
    Blend: AUG-CC-PVTZ-RI
	 Reference Energy          =    -915.9782510982549866 [Eh]
	 Singles Energy            =      -0.0000000000000000 [Eh]
	 Same-Spin Energy          =      -0.4886812113246441 [Eh]
	 Opposite-Spin Energy      =      -1.4953129420925575 [Eh]
	 Correlation Energy        =      -1.9839941534172016 [Eh]
	 Total Energy              =    -917.9622452516722433 [Eh]

	 ================> DF-SCS-MP2 Energies <==================
	-----------------------------------------------------------
	 SCS Same-Spin Scale       =       0.3333333333333333 [-]
	 SCS Opposite-Spin Scale   =       1.2000000000000000 [-]
	 SCS Same-Spin Energy      =      -0.1628937371082147 [Eh]
	 SCS Opposite-Spin Energy  =      -1.7943755305110689 [Eh]
	 SCS Correlation Energy    =      -1.9572692676192835 [Eh]
	 SCS Total Energy          =    -917.9355203658742539 [Eh]
	-----------------------------------------------------------

*** Psi4 exiting successfully. Buy a developer a beer!
