                               Psi4 1.9 release

  ==> Input File <==

--------------------------------------------------------------------------
MEMORY 60 GB

molecule dimer {
-1 1
Cl     0.000000     0.000000     0.000000
--
0 1
O      2.658287     1.773398    -0.370529
H      2.091112     1.113408     0.001257
H      3.169430     2.152468     0.380958
O      1.386953    -0.634513     2.886858
H      0.938120    -0.445849     2.084134
H      0.881418    -1.312523     3.349073
O     -1.733809     0.841098    -2.621295
H     -2.603293     1.359142    -2.652883
H     -1.487596     0.630228    -1.696720
O     -0.222632     3.133093     0.500279
H     -1.083412     3.575365     0.472674
H     -0.438957     2.179388     0.524477
O     -2.943507     0.363094     1.076372
H     -3.375816    -0.520414     0.951393
H     -2.003804     0.267427     1.077284

units ang
no_reorient
no_com
symmetry c1
}

set {
basis        aug-cc-pVTZ
scf_type     df
}

energy("mp2", bsse_type="cp")
--------------------------------------------------------------------------

                               Psi4 1.9 release
    Molecular point group: c1
  Charge       = 0
  Multiplicity = 1
  Basis Set: AUG-CC-PVTZ
    Blend: AUG-CC-PVTZ
  Basis Set: (AUG-CC-PVTZ AUX)
    Blend: AUG-CC-PVTZ-JKFIT
  @DF-RHF Final Energy:  -380.28128366001465
    Total Energy =                       -380.2812836600146511
 Dipole X            :         18.8347952          -20.3154289           -1.4806337
 Dipole Y            :       -101.0076858           99.7926572           -1.2150286
 Dipole Z            :        -29.6908812           30.7366354            1.0457542
 Magnitude           :                                                    2.1822403
  Basis Set: (AUG-CC-PVTZ AUX)
    Blend: AUG-CC-PVTZ-RI
	 Reference Energy          =    -380.2812836600146511 [Eh]
	 Singles Energy            =      -0.0000000000000000 [Eh]
	 Same-Spin Energy          =      -0.3442056138597705 [Eh]
	 Opposite-Spin Energy      =      -1.0836805407825401 [Eh]
	 Correlation Energy        =      -1.4278861546423105 [Eh]
	 Total Energy              =    -381.7091698146569456 [Eh]
	 SCS Total Energy          =    -381.6964355135736469 [Eh]
                               Psi4 1.9 release
    Molecular point group: c1
  Multiplicity = 1
  Basis Set: AUG-CC-PVTZ
    Blend: AUG-CC-PVTZ
  Basis Set: (AUG-CC-PVTZ AUX)
    Blend: AUG-CC-PVTZ-JKFIT
  @DF-RHF Final Energy:  -459.57358332618475
    Total Energy =                       -459.5735833261847461
  Basis Set: (AUG-CC-PVTZ AUX)
	 Singles Energy            =      -0.0000000000000000 [Eh]
	 Same-Spin Energy          =      -0.0635618248037243 [Eh]
	 Opposite-Spin Energy      =      -0.1839496202991693 [Eh]
	 Correlation Energy        =      -0.2475114451028936 [Eh]
	 Total Energy              =    -459.8210947712876191 [Eh]
	 SCS Total Energy          =    -459.8155101454782994 [Eh]
                               Psi4 1.9 release
    Molecular point group: c1

    Geometry (in Bohr), charge = -1, multiplicity = 1:

       Center              X                  Y                   Z               Mass
    ------------   -----------------  -----------------  -----------------  -----------------
         CL           0.000000000000     0.000000000000     0.000000000000    34.968852682000
         O            5.023434392865     3.351236531435    -0.700198331540    15.994914619570
         H            3.951628977658     2.104036185894     0.002375385740     1.007825032230
         H            5.989354673810     4.067575013812     0.719906285302     1.007825032230
         O            2.620961318882    -1.199055793043     5.455370983087    15.994914619570
         H            1.772789872814    -0.842532503309     3.938442468755     1.007825032230
         H            1.665638622049    -2.480309003364     6.328830744165     1.007825032230
         O           -3.276424163854     1.589444864670    -4.953529644032    15.994914619570
         H           -4.919510794321     2.568406145607    -5.013222312883     1.007825032230
         H           -2.811149025327     1.190958316595    -3.206336111587     1.007825032230
         O           -0.420713506763     5.920687695589     0.945390296318    15.994914619570
         H           -2.047351961035     6.756460648548     0.893224406625     1.007825032230
         H           -0.829508510853     4.118446441109     0.991117889102     1.007825032230
         O           -5.562422078368     0.686148217797     2.034048289111    15.994914619570
         H           -6.379367689939    -0.983439931854     1.797872207678     1.007825032230
         H           -3.786640769097     0.505363788553     2.035771719338     1.007825032230

  Charge       = -1
  Multiplicity = 1
  Basis Set: AUG-CC-PVTZ
    Blend: AUG-CC-PVTZ
  Basis Set: (AUG-CC-PVTZ AUX)
    Blend: AUG-CC-PVTZ-JKFIT

    Orbital Energies [Eh]
    ---------------------

    Doubly Occupied:

       1A   -104.586922     2A    -20.427442     3A    -20.420996
       4A    -20.416989     5A    -20.407283     6A    -20.401897
       7A    -10.312532     8A     -7.778631     9A     -7.778600
      10A     -7.778551    11A     -1.213408    12A     -1.209191
      13A     -1.186718    14A     -1.184135    15A     -1.178852
      16A     -0.833925    17A     -0.588740    18A     -0.586681
      19A     -0.557553    20A     -0.554678    21A     -0.550531
      22A     -0.443336    23A     -0.441223    24A     -0.426057
      25A     -0.418853    26A     -0.416840    27A     -0.373699
      28A     -0.369837    29A     -0.355204    30A     -0.350370
      31A     -0.344121    32A     -0.246194    33A     -0.243469
      34A     -0.240356

  @DF-RHF Final Energy:  -839.91809305253685

   => Energetics <=

    Nuclear Repulsion Energy =            308.1956179807619378
    One-Electron Energy =               -1786.9797838194087944
    Two-Electron Energy =                 638.8660727861100668
    Total Energy =                       -839.9180930525368467
 Dipole X            :         19.1222186          -20.3154289           -1.1932103
 Dipole Y            :       -101.5445125           99.7926572           -1.7518553
 Dipole Z            :        -30.0673613           30.7366354            0.6692741
 Magnitude           :                                                    2.2227631
  Basis Set: (AUG-CC-PVTZ AUX)
    Blend: AUG-CC-PVTZ-RI
	 Reference Energy          =    -839.9180930525368467 [Eh]
	 Singles Energy            =      -0.0000000000000000 [Eh]
	 Same-Spin Energy          =      -0.4173304970970708 [Eh]
	 Opposite-Spin Energy      =      -1.2749750106579538 [Eh]
	 Correlation Energy        =      -1.6923055077550246 [Eh]
	 Total Energy              =    -841.6103985602918556 [Eh]

	 ================> DF-SCS-MP2 Energies <==================
	-----------------------------------------------------------
	 SCS Same-Spin Scale       =       0.3333333333333333 [-]
	 SCS Opposite-Spin Scale   =       1.2000000000000000 [-]
	 SCS Same-Spin Energy      =      -0.1391101656990236 [Eh]
	 SCS Opposite-Spin Energy  =      -1.5299700127895446 [Eh]
	 SCS Correlation Energy    =      -1.6690801784885680 [Eh]
	 SCS Total Energy          =    -841.5871732310254174 [Eh]
	-----------------------------------------------------------

*** Psi4 exiting successfully. Buy a developer a beer!
