                               Psi4 1.9 release

  ==> Input File <==

--------------------------------------------------------------------------
MEMORY 60 GB

molecule dimer {
-1 1
Cl     0.000000     0.000000     0.000000
--
0 1
O      1.697875     2.812156    -0.064854
H      1.661557     3.150216     0.885145
H      1.369173     1.911949    -0.005570
O      2.612789    -0.037192     1.821798
H      1.866734    -0.055376     1.210788
H      3.305740     0.353047     1.299827
O     -0.939614    -2.784060    -1.739328
H     -1.213754    -3.715577    -1.660327
H     -0.254384    -2.702145    -1.078967
O     -0.798589     1.117862     3.058410
H     -0.409022     0.795271     3.907486
H     -0.301269     0.718251     2.313142
O     -3.076715     0.941408     0.114922
H     -2.926424     0.271835    -0.596134
H     -2.124851     1.261653     0.395401

units ang
no_reorient
no_com
symmetry c1
}

set {
basis        aug-cc-pVTZ
scf_type     df
}

energy("mp2", bsse_type="cp")
--------------------------------------------------------------------------

                               Psi4 1.9 release
    Molecular point group: c1
  Charge       = 0
  Multiplicity = 1
  Basis Set: AUG-CC-PVTZ
    Blend: AUG-CC-PVTZ
  Basis Set: (AUG-CC-PVTZ AUX)
    Blend: AUG-CC-PVTZ-JKFIT
  @DF-RHF Final Energy:  -380.27922477281021
    Total Energy =                       -380.2792247728102097
 Dipole X            :          7.1126350           -5.7835673            1.3290677
 Dipole Y            :        -36.1262833           34.7530385           -1.3732447
 Dipole Z            :        -60.5880915           60.8461104            0.2580190
 Magnitude           :                                                    1.9284179
  Basis Set: (AUG-CC-PVTZ AUX)
    Blend: AUG-CC-PVTZ-RI
	 Reference Energy          =    -380.2792247728102097 [Eh]
	 Singles Energy            =      -0.0000000000000000 [Eh]
	 Same-Spin Energy          =      -0.3452896594457603 [Eh]
	 Opposite-Spin Energy      =      -1.0864936143470774 [Eh]
	 Correlation Energy        =      -1.4317832737928375 [Eh]
	 Total Energy              =    -381.7110080466030695 [Eh]
	 SCS Total Energy          =    -381.6981136631752634 [Eh]
                               Psi4 1.9 release
    Molecular point group: c1
  Multiplicity = 1
  Basis Set: AUG-CC-PVTZ
    Blend: AUG-CC-PVTZ
  Basis Set: (AUG-CC-PVTZ AUX)
    Blend: AUG-CC-PVTZ-JKFIT
  @DF-RHF Final Energy:  -459.57356847496447
    Total Energy =                       -459.5735684749645316
  Basis Set: (AUG-CC-PVTZ AUX)
	 Singles Energy            =      -0.0000000000000000 [Eh]
	 Same-Spin Energy          =      -0.0634171748208690 [Eh]
	 Opposite-Spin Energy      =      -0.1832539206570273 [Eh]
	 Correlation Energy        =      -0.2466710954778963 [Eh]
	 Total Energy              =    -459.8202395704423679 [Eh]
	 SCS Total Energy          =    -459.8146122380265410 [Eh]
                               Psi4 1.9 release
    Molecular point group: c1

    Geometry (in Bohr), charge = -1, multiplicity = 1:

       Center              X                  Y                   Z               Mass
    ------------   -----------------  -----------------  -----------------  -----------------
         CL           0.000000000000     0.000000000000     0.000000000000    34.968852682000
         O            3.208518745262     5.314204662063    -0.122556298140    15.994914619570
         H            3.139887671837     5.953045476035     1.672681631318     1.007825032230
         H            2.587361988371     3.613059975843    -0.010525774519     1.007825032230
         O            4.937455633609    -0.070282694058     3.442699275907    15.994914619570
         H            3.527616009080    -0.104645473923     2.288057715991     1.007825032230
         H            6.246943241971     0.667162139415     2.456317040475     1.007825032230
         O           -1.775613123646    -5.261110916842    -3.286853562340    15.994914619570
         H           -2.293662643679    -7.021422928050    -3.137563308703     1.007825032230
         H           -0.480716090698    -5.106314001275    -2.038952128407     1.007825032230
         O           -1.509114496803     2.112453026057     5.779557279361    15.994914619570
         H           -0.772939559287     1.502844385519     7.384078379061     1.007825032230
         H           -0.569315900091     1.357297679336     4.371204869294     1.007825032230
         O           -5.814148716088     1.779003292315     0.217171105790    15.994914619570
         H           -5.530139886967     0.513693701314    -1.126529994074     1.007825032230
         H           -4.015386447405     2.384178635362     0.747199599732     1.007825032230

  Charge       = -1
  Multiplicity = 1
  Basis Set: AUG-CC-PVTZ
    Blend: AUG-CC-PVTZ
  Basis Set: (AUG-CC-PVTZ AUX)
    Blend: AUG-CC-PVTZ-JKFIT

    Orbital Energies [Eh]
    ---------------------

    Doubly Occupied:

       1A   -104.580525     2A    -20.447204     3A    -20.422701
       4A    -20.421333     5A    -20.418703     6A    -20.405292
       7A    -10.305697     8A     -7.771797     9A     -7.771756
      10A     -7.771710    11A     -1.228747    12A     -1.210190
      13A     -1.193004    14A     -1.192257    15A     -1.158281
      16A     -0.823864    17A     -0.588576    18A     -0.572211
      19A     -0.566150    20A     -0.556289    21A     -0.522200
      22A     -0.464404    23A     -0.450220    24A     -0.436451
      25A     -0.429661    26A     -0.411737    27A     -0.388518
      28A     -0.369193    29A     -0.363063    30A     -0.359681
      31A     -0.339399    32A     -0.237060    33A     -0.233995
      34A     -0.232921

  @DF-RHF Final Energy:  -839.91254988169919

   => Energetics <=

    Nuclear Repulsion Energy =            298.7038844303708061
    One-Electron Energy =               -1767.9432794857091267
    Two-Electron Energy =                 629.3268451736390716
    Total Energy =                       -839.9125498816991922
 Dipole X            :          6.8405220           -5.7835673            1.0569547
 Dipole Y            :        -36.4827040           34.7530385           -1.7296654
 Dipole Z            :        -61.1528169           60.8461104           -0.3067064
 Magnitude           :                                                    2.0501133
  Basis Set: (AUG-CC-PVTZ AUX)
    Blend: AUG-CC-PVTZ-RI
	 Reference Energy          =    -839.9125498816991922 [Eh]
	 Singles Energy            =      -0.0000000000000000 [Eh]
	 Same-Spin Energy          =      -0.4170934490554854 [Eh]
	 Opposite-Spin Energy      =      -1.2758377412563049 [Eh]
	 Correlation Energy        =      -1.6929311903117903 [Eh]
	 Total Energy              =    -841.6054810720110027 [Eh]

	 ================> DF-SCS-MP2 Energies <==================
	-----------------------------------------------------------
	 SCS Same-Spin Scale       =       0.3333333333333333 [-]
	 SCS Opposite-Spin Scale   =       1.2000000000000000 [-]
	 SCS Same-Spin Energy      =      -0.1390311496851618 [Eh]
	 SCS Opposite-Spin Energy  =      -1.5310052895075659 [Eh]
	 SCS Correlation Energy    =      -1.6700364391927276 [Eh]
	 SCS Total Energy          =    -841.5825863208918918 [Eh]
	-----------------------------------------------------------

*** Psi4 exiting successfully. Buy a developer a beer!
