                               Psi4 1.9 release

  ==> Input File <==

--------------------------------------------------------------------------
MEMORY 60 GB

molecule dimer {
-1 1
Cl     0.000000     0.000000     0.000000
--
0 1
O      2.976125    -0.550762     0.397420
H      3.132872     0.391178     0.501278
H      2.012343    -0.588243     0.284471
O     -1.163506    -2.546937     1.446773
H     -1.325678    -2.254056     2.392364
H     -0.300251    -2.204268     1.183553
O     -0.221715    -2.704216    -1.930969
H     -1.057768    -2.253285    -1.542346
H      0.064879    -2.081925    -2.649334
O     -2.291141     1.148067    -1.830105
H     -1.493164     0.913587    -1.305973
H     -1.983377     1.515748    -2.705823
O      0.895961     1.894020     2.415542
H      0.701813     1.480611     1.545901
H      1.152438     2.807136     2.240683
O      0.316353     2.781308    -1.575780
H      0.288134     1.911789    -1.139865
H      0.658674     3.383529    -0.879089

units ang
no_reorient
no_com
symmetry c1
}

set {
basis        aug-cc-pVTZ
scf_type     df
}

energy("mp2", bsse_type="cp")
--------------------------------------------------------------------------

                               Psi4 1.9 release
    Molecular point group: c1
  Charge       = 0
  Multiplicity = 1
  Basis Set: AUG-CC-PVTZ
    Blend: AUG-CC-PVTZ
  Basis Set: (AUG-CC-PVTZ AUX)
    Blend: AUG-CC-PVTZ-JKFIT
  @DF-RHF Final Energy:  -456.33050340499716
    Total Energy =                       -456.3305034049971596
 Dipole X            :        -10.7001444           11.2392047            0.5390603
 Dipole Y            :         -4.0354709            6.0351068            1.9996359
 Dipole Z            :         20.2747308          -20.2033115            0.0714194
 Magnitude           :                                                    2.0722525
  Basis Set: (AUG-CC-PVTZ AUX)
    Blend: AUG-CC-PVTZ-RI
	 Reference Energy          =    -456.3305034049971596 [Eh]
	 Singles Energy            =      -0.0000000000000000 [Eh]
	 Same-Spin Energy          =      -0.4154899848961692 [Eh]
	 Opposite-Spin Energy      =      -1.3065096503574354 [Eh]
	 Correlation Energy        =      -1.7219996352536047 [Eh]
	 Total Energy              =    -458.0525030402507696 [Eh]
	 SCS Total Energy          =    -458.0368116470581299 [Eh]
                               Psi4 1.9 release
    Molecular point group: c1
  Multiplicity = 1
  Basis Set: AUG-CC-PVTZ
    Blend: AUG-CC-PVTZ
  Basis Set: (AUG-CC-PVTZ AUX)
    Blend: AUG-CC-PVTZ-JKFIT
  @DF-RHF Final Energy:  -459.57359391890026
    Total Energy =                       -459.5735939189002579
  Basis Set: (AUG-CC-PVTZ AUX)
	 Singles Energy            =      -0.0000000000000000 [Eh]
	 Same-Spin Energy          =      -0.0637431985981322 [Eh]
	 Opposite-Spin Energy      =      -0.1847657502278129 [Eh]
	 Correlation Energy        =      -0.2485089488259452 [Eh]
	 Total Energy              =    -459.8221028677261870 [Eh]
	 SCS Total Energy          =    -459.8165605520396753 [Eh]
                               Psi4 1.9 release
    Molecular point group: c1

    Geometry (in Bohr), charge = -1, multiplicity = 1:

       Center              X                  Y                   Z               Mass
    ------------   -----------------  -----------------  -----------------  -----------------
         CL           0.000000000000     0.000000000000     0.000000000000    34.968852682000
         O            5.624061165128    -1.040789340309     0.751014956779    15.994914619570
         H            5.920270066115     0.739219286304     0.947278132717     1.007825032230
         H            3.802777140482    -1.111618165218     0.537572280635     1.007825032230
         O           -2.198707685327    -4.813013388795     2.734004735707    15.994914619570
         H           -2.505168350545    -4.259548511445     4.520912752405     1.007825032230
         H           -0.567392158895    -4.165462827111     2.236591024964     1.007825032230
         O           -0.418980627906    -5.110227624081    -3.649002566749    15.994914619570
         H           -1.998891824273    -4.258091532602    -2.914611530695     1.007825032230
         H            0.122603541294    -3.934268063744    -5.006515674864     1.007825032230
         O           -4.329629004808     2.169532203676    -3.458397230831    15.994914619570
         H           -2.821671020393     1.726429221779    -2.467931297243     1.007825032230
         H           -3.748039333532     2.864348595210    -5.113264413965     1.007825032230
         O            1.693120909091     3.579179076140     4.564712824541    15.994914619570
         H            1.326234361286     2.797949288340     2.921329507071     1.007825032230
         H            2.177792196570     5.304718236913     4.234277203969     1.007825032230
         O            0.597820528967     5.255910390545    -2.977792633974    15.994914619570
         H            0.544494347433     3.612757619663    -2.154032669995     1.007825032230
         H            1.244713465960     6.393943147544    -1.661237449903     1.007825032230

  Charge       = -1
  Multiplicity = 1
  Basis Set: AUG-CC-PVTZ
    Blend: AUG-CC-PVTZ
  Basis Set: (AUG-CC-PVTZ AUX)
    Blend: AUG-CC-PVTZ-JKFIT

    Orbital Energies [Eh]
    ---------------------

    Doubly Occupied:

       1A   -104.600532     2A    -20.436149     3A    -20.435913
       4A    -20.433775     5A    -20.427248     6A    -20.414828
       7A    -20.407951     8A    -10.326995     9A     -7.793102
      10A     -7.793016    11A     -7.792926    12A     -1.214134
      13A     -1.212460    14A     -1.197393    15A     -1.194964
      16A     -1.190428    17A     -1.182991    18A     -0.853528
      19A     -0.583352    20A     -0.580307    21A     -0.568711
      22A     -0.558323    23A     -0.552798    24A     -0.549547
      25A     -0.459256    26A     -0.447939    27A     -0.440858
      28A     -0.439671    29A     -0.436192    30A     -0.425448
      31A     -0.380680    32A     -0.377061    33A     -0.370962
      34A     -0.368543    35A     -0.354717    36A     -0.352911
      37A     -0.262276    38A     -0.257768    39A     -0.254012

  @DF-RHF Final Energy:  -915.97180213688353

   => Energetics <=

    Nuclear Repulsion Energy =            402.8517211458954534
    One-Electron Energy =               -2081.7877050055449217
    Two-Electron Energy =                 762.9641817227659431
    Total Energy =                       -915.9718021368835252
 Dipole X            :        -10.9956475           11.2392047            0.2435572
 Dipole Y            :         -4.5717623            6.0351068            1.4633445
 Dipole Z            :         20.3746351          -20.2033115            0.1713237
 Magnitude           :                                                    1.4933349
  Basis Set: (AUG-CC-PVTZ AUX)
    Blend: AUG-CC-PVTZ-RI
	 Reference Energy          =    -915.9718021368835252 [Eh]
	 Singles Energy            =      -0.0000000000000000 [Eh]
	 Same-Spin Energy          =      -0.4908193863500713 [Eh]
	 Opposite-Spin Energy      =      -1.4993423503421806 [Eh]
	 Correlation Energy        =      -1.9901617366922517 [Eh]
	 Total Energy              =    -917.9619638735757690 [Eh]

	 ================> DF-SCS-MP2 Energies <==================
	-----------------------------------------------------------
	 SCS Same-Spin Scale       =       0.3333333333333333 [-]
	 SCS Opposite-Spin Scale   =       1.2000000000000000 [-]
	 SCS Same-Spin Energy      =      -0.1636064621166904 [Eh]
	 SCS Opposite-Spin Energy  =      -1.7992108204106165 [Eh]
	 SCS Correlation Energy    =      -1.9628172825273069 [Eh]
	 SCS Total Energy          =    -917.9346194194108648 [Eh]
	-----------------------------------------------------------

*** Psi4 exiting successfully. Buy a developer a beer!
