                               Psi4 1.9 release

  ==> Input File <==

--------------------------------------------------------------------------
MEMORY 60 GB

molecule dimer {
-1 1
Cl     0.000000     0.000000     0.000000
--
0 1
O     -0.722002    -3.248013     0.354964
H     -0.613309    -2.289253     0.433906
H     -1.574971    -3.503131     0.680548
O     -1.526330     2.399946     1.544144
H     -1.173898     2.409457     2.433870
H     -1.098273     1.621727     1.168734
O      3.178802    -0.106216     0.211667
H      3.377119    -0.828001     0.797087
H      2.256728     0.086519     0.321265
O      1.888706     2.928582     0.086703
H      1.196918     2.292193     0.279175
H      1.627389     3.844402     0.410362
O      0.992794    -0.592290     3.268874
H      1.905677    -0.231051     3.156662
H      0.406310    -0.199508     2.620077

units ang
no_reorient
no_com
symmetry c1
}

set {
basis        aug-cc-pVTZ
scf_type     df
}

energy("mp2", bsse_type="cp")
--------------------------------------------------------------------------

                               Psi4 1.9 release
    Molecular point group: c1
  Charge       = 0
  Multiplicity = 1
  Basis Set: AUG-CC-PVTZ
    Blend: AUG-CC-PVTZ
  Basis Set: (AUG-CC-PVTZ AUX)
    Blend: AUG-CC-PVTZ-JKFIT
  @DF-RHF Final Energy:  -380.28414677638773
    Total Energy =                       -380.2841467763877290
 Dipole X            :        -70.3957814           69.5522204           -0.8435609
 Dipole Y            :        -26.6072363           26.9464098            0.3391736
 Dipole Z            :       -104.9443754          105.8860829            0.9417075
 Magnitude           :                                                    1.3089869
  Basis Set: (AUG-CC-PVTZ AUX)
    Blend: AUG-CC-PVTZ-RI
	 Reference Energy          =    -380.2841467763877290 [Eh]
	 Singles Energy            =      -0.0000000000000000 [Eh]
	 Same-Spin Energy          =      -0.3440502469567777 [Eh]
	 Opposite-Spin Energy      =      -1.0825346467604049 [Eh]
	 Correlation Energy        =      -1.4265848937171826 [Eh]
	 Total Energy              =    -381.7107316701049058 [Eh]
	 SCS Total Energy          =    -381.6978717681524813 [Eh]
                               Psi4 1.9 release
    Molecular point group: c1
  Multiplicity = 1
  Basis Set: AUG-CC-PVTZ
    Blend: AUG-CC-PVTZ
  Basis Set: (AUG-CC-PVTZ AUX)
    Blend: AUG-CC-PVTZ-JKFIT
  @DF-RHF Final Energy:  -459.57357228659305
    Total Energy =                       -459.5735722865930484
  Basis Set: (AUG-CC-PVTZ AUX)
	 Singles Energy            =      -0.0000000000000000 [Eh]
	 Same-Spin Energy          =      -0.0634661728493801 [Eh]
	 Opposite-Spin Energy      =      -0.1834930374223768 [Eh]
	 Correlation Energy        =      -0.2469592102717569 [Eh]
	 Total Energy              =    -459.8205314968648167 [Eh]
	 SCS Total Energy          =    -459.8149193224496685 [Eh]
                               Psi4 1.9 release
    Molecular point group: c1

    Geometry (in Bohr), charge = -1, multiplicity = 1:

       Center              X                  Y                   Z               Mass
    ------------   -----------------  -----------------  -----------------  -----------------
         CL           0.000000000000     0.000000000000     0.000000000000    34.968852682000
         O           -1.364386042033    -6.137855021927     0.670784744397    15.994914619570
         H           -1.158986040278    -4.326061201883     0.819963504193     1.007825032230
         H           -2.976263845538    -6.619958171601     1.286049335228     1.007825032230
         O           -2.884345677070     4.535240655888     2.918009258269    15.994914619570
         H           -2.218345719223     4.553213841067     4.599347724968     1.007825032230
         H           -2.075435180985     3.064619880260     2.208587173511     1.007825032230
         O            6.007065187058    -0.200719150142     0.399992659797    15.994914619570
         H            6.381830003080    -1.564695121605     1.506276128163     1.007825032230
         H            4.264597859652     0.163497214648     0.607102863695     1.007825032230
         O            3.569137071509     5.534217915946     0.163844924256    15.994914619570
         H            2.261847214631     4.331616996692     0.527564291075     1.007825032230
         H            3.075319509583     7.264866896162     0.775471792295     1.007825032230
         O            1.876108758998    -1.119265886847     6.177276598630    15.994914619570
         H            3.601207613584    -0.436623111013     5.965226650640     1.007825032230
         H            0.767814622035    -0.377015479838     4.951227957611     1.007825032230

  Charge       = -1
  Multiplicity = 1
  Basis Set: AUG-CC-PVTZ
    Blend: AUG-CC-PVTZ
  Basis Set: (AUG-CC-PVTZ AUX)
    Blend: AUG-CC-PVTZ-JKFIT

    Orbital Energies [Eh]
    ---------------------

    Doubly Occupied:

       1A   -104.588121     2A    -20.439296     3A    -20.428273
       4A    -20.427930     5A    -20.418351     6A    -20.405487
       7A    -10.313106     8A     -7.779214     9A     -7.779172
      10A     -7.779141    11A     -1.216801    12A     -1.215481
      13A     -1.205299    14A     -1.200625    15A     -1.197589
      16A     -0.830634    17A     -0.592937    18A     -0.583845
      19A     -0.579192    20A     -0.574995    21A     -0.568001
      22A     -0.457168    23A     -0.449067    24A     -0.433683
      25A     -0.432410    26A     -0.427631    27A     -0.382066
      28A     -0.374245    29A     -0.368701    30A     -0.365055
      31A     -0.354211    32A     -0.245102    33A     -0.241366
      34A     -0.240089

  @DF-RHF Final Energy:  -839.92646357959393

   => Energetics <=

    Nuclear Repulsion Energy =            303.2261332051626255
    One-Electron Energy =               -1776.5166185767873230
    Two-Electron Energy =                 633.3640217920308260
    Total Energy =                       -839.9264635795939284
 Dipole X            :        -70.6844845           69.5522204           -1.1322641
 Dipole Y            :        -26.8312947           26.9464098            0.1151152
 Dipole Z            :       -105.6855730          105.8860829            0.2005099
 Magnitude           :                                                    1.1556287
  Basis Set: (AUG-CC-PVTZ AUX)
    Blend: AUG-CC-PVTZ-RI
	 Reference Energy          =    -839.9264635795939284 [Eh]
	 Singles Energy            =      -0.0000000000000000 [Eh]
	 Same-Spin Energy          =      -0.4154502487186648 [Eh]
	 Opposite-Spin Energy      =      -1.2715834770236587 [Eh]
	 Correlation Energy        =      -1.6870337257423236 [Eh]
	 Total Energy              =    -841.6134973053362955 [Eh]

	 ================> DF-SCS-MP2 Energies <==================
	-----------------------------------------------------------
	 SCS Same-Spin Scale       =       0.3333333333333333 [-]
	 SCS Opposite-Spin Scale   =       1.2000000000000000 [-]
	 SCS Same-Spin Energy      =      -0.1384834162395549 [Eh]
	 SCS Opposite-Spin Energy  =      -1.5259001724283905 [Eh]
	 SCS Correlation Energy    =      -1.6643835886679454 [Eh]
	 SCS Total Energy          =    -841.5908471682619165 [Eh]
	-----------------------------------------------------------

*** Psi4 exiting successfully. Buy a developer a beer!
