                               Psi4 1.8.2 release

  ==> Input File <==

--------------------------------------------------------------------------
MEMORY 60 GB

molecule dimer {
0 1
Gh(Cl)     0.000000     0.000000     0.000000
Gh(O)     -3.370024     0.123556    -0.210045
Gh(H)     -3.712136    -0.753568    -0.410247
Gh(H)     -2.509058    -0.095905     0.154564
Gh(O)      2.269159     0.583446     2.589957
Gh(H)      2.144119     1.147020     3.342242
Gh(H)      1.407737     0.721846     2.187714
Gh(O)     -1.122723    -2.623202     2.011204
Gh(H)     -0.197973    -2.402084     2.039071
Gh(H)     -1.372546    -2.635123     1.061311
O          2.630297    -1.501053    -0.382371
H          1.890837    -0.976617    -0.284482
H          3.323921    -0.843864    -0.700421
Gh(O)     -1.415811     1.063094    -2.492588
Gh(H)     -1.911670     1.851984    -2.471353
Gh(H)     -0.800053     1.148544    -1.739880
Gh(O)      1.833537     2.448442    -1.561515
Gh(H)      1.282768     2.936430    -2.175940
Gh(H)      1.341122     1.773778    -0.981948

units ang
no_reorient
no_com
symmetry c1
}

set {
basis        aug-cc-pVTZ
scf_type     df
}

energy("mp2")
--------------------------------------------------------------------------

    Molecular point group: c1

    Geometry (in Angstrom), charge = 0, multiplicity = 1:

       Center              X                  Y                   Z               Mass
    ------------   -----------------  -----------------  -----------------  -----------------
      Gh(CL)          0.000000000000     0.000000000000     0.000000000000    34.968852682000
      Gh(O)          -3.370024000000     0.123556000000    -0.210045000000    15.994914619570
      Gh(H)          -3.712136000000    -0.753568000000    -0.410247000000     1.007825032230
      Gh(H)          -2.509058000000    -0.095905000000     0.154564000000     1.007825032230
      Gh(O)           2.269159000000     0.583446000000     2.589957000000    15.994914619570
      Gh(H)           2.144119000000     1.147020000000     3.342242000000     1.007825032230
      Gh(H)           1.407737000000     0.721846000000     2.187714000000     1.007825032230
      Gh(O)          -1.122723000000    -2.623202000000     2.011204000000    15.994914619570
      Gh(H)          -0.197973000000    -2.402084000000     2.039071000000     1.007825032230
      Gh(H)          -1.372546000000    -2.635123000000     1.061311000000     1.007825032230
         O            2.630297000000    -1.501053000000    -0.382371000000    15.994914619570
         H            1.890837000000    -0.976617000000    -0.284482000000     1.007825032230
         H            3.323921000000    -0.843864000000    -0.700421000000     1.007825032230
      Gh(O)          -1.415811000000     1.063094000000    -2.492588000000    15.994914619570
      Gh(H)          -1.911670000000     1.851984000000    -2.471353000000     1.007825032230
      Gh(H)          -0.800053000000     1.148544000000    -1.739880000000     1.007825032230
      Gh(O)           1.833537000000     2.448442000000    -1.561515000000    15.994914619570
      Gh(H)           1.282768000000     2.936430000000    -2.175940000000     1.007825032230
      Gh(H)           1.341122000000     1.773778000000    -0.981948000000     1.007825032230

  Charge       = 0
  Multiplicity = 1
  Basis Set: AUG-CC-PVTZ
    Blend: AUG-CC-PVTZ
  Basis Set: (AUG-CC-PVTZ AUX)
    Blend: AUG-CC-PVTZ-JKFIT

    Orbital Energies [Eh]
    ---------------------

    Doubly Occupied:

       1A    -20.567903     2A     -1.356047     3A     -0.713546
       4A     -0.587504     5A     -0.510923

  @DF-RHF Final Energy:   -76.05580266016486

   => Energetics <=

    Nuclear Repulsion Energy =              9.1997917973959442
    One-Electron Energy =                -123.0393380930005662
    Two-Electron Energy =                  37.7837436354397624
    Total Energy =                        -76.0558026601648578
 Dipole X            :        -49.6661946           49.6187921           -0.0474025
 Dipole Y            :         26.9129704          -26.1328431            0.7801273
 Dipole Z            :          7.5009757           -7.6418087           -0.1408330
 Magnitude           :                                                    0.7941533
  Basis Set: (AUG-CC-PVTZ AUX)
    Blend: AUG-CC-PVTZ-RI
	 Reference Energy          =     -76.0558026601648578 [Eh]
	 Singles Energy            =      -0.0000000000000000 [Eh]
	 Same-Spin Energy          =      -0.0684465442979048 [Eh]
	 Opposite-Spin Energy      =      -0.2163958496135545 [Eh]
	 Correlation Energy        =      -0.2848423939114593 [Eh]
	 Total Energy              =     -76.3406450540763188 [Eh]

	 ================> DF-SCS-MP2 Energies <==================
	-----------------------------------------------------------
	 SCS Same-Spin Scale       =       0.3333333333333333 [-]
	 SCS Opposite-Spin Scale   =       1.2000000000000000 [-]
	 SCS Same-Spin Energy      =      -0.0228155147659683 [Eh]
	 SCS Opposite-Spin Energy  =      -0.2596750195362654 [Eh]
	 SCS Correlation Energy    =      -0.2824905343022336 [Eh]
	 SCS Total Energy          =     -76.3382931944670844 [Eh]
	-----------------------------------------------------------

*** Psi4 exiting successfully. Buy a developer a beer!
