                               Psi4 1.8.2 release

  ==> Input File <==

--------------------------------------------------------------------------
MEMORY 60 GB

molecule dimer {
-1 1
Cl         0.000000     0.000000     0.000000
Gh(O)      3.272233    -0.339230     0.465325
Gh(H)      2.339576    -0.145698     0.219241
Gh(H)      3.571731     0.299655     1.166361
Gh(O)      0.347877     2.802529     1.428865
Gh(H)     -0.125574     3.335043     0.784056
Gh(H)      0.515121     1.891836     1.111430
Gh(O)      0.954444    -2.748896     1.108647
Gh(H)      1.725578    -3.078670     0.722052
Gh(H)      0.880431    -1.768924     0.971943
Gh(O)     -0.111136    -0.616714     3.117009
Gh(H)     -0.296790     0.160491     3.738680
Gh(H)     -0.092426    -0.202776     2.240970
Gh(O)     -2.552283     1.901749     0.193843
Gh(H)     -1.976931     1.085456    -0.094548
Gh(H)     -2.580680     1.825291     1.177092

units ang
no_reorient
no_com
symmetry c1
}

set {
basis        aug-cc-pVTZ
scf_type     df
}

energy("mp2")
--------------------------------------------------------------------------

    Molecular point group: c1

    Geometry (in Angstrom), charge = -1, multiplicity = 1:

       Center              X                  Y                   Z               Mass
    ------------   -----------------  -----------------  -----------------  -----------------
         CL           0.000000000000     0.000000000000     0.000000000000    34.968852682000
      Gh(O)           3.272233000000    -0.339230000000     0.465325000000    15.994914619570
      Gh(H)           2.339576000000    -0.145698000000     0.219241000000     1.007825032230
      Gh(H)           3.571731000000     0.299655000000     1.166361000000     1.007825032230
      Gh(O)           0.347877000000     2.802529000000     1.428865000000    15.994914619570
      Gh(H)          -0.125574000000     3.335043000000     0.784056000000     1.007825032230
      Gh(H)           0.515121000000     1.891836000000     1.111430000000     1.007825032230
      Gh(O)           0.954444000000    -2.748896000000     1.108647000000    15.994914619570
      Gh(H)           1.725578000000    -3.078670000000     0.722052000000     1.007825032230
      Gh(H)           0.880431000000    -1.768924000000     0.971943000000     1.007825032230
      Gh(O)          -0.111136000000    -0.616714000000     3.117009000000    15.994914619570
      Gh(H)          -0.296790000000     0.160491000000     3.738680000000     1.007825032230
      Gh(H)          -0.092426000000    -0.202776000000     2.240970000000     1.007825032230
      Gh(O)          -2.552283000000     1.901749000000     0.193843000000    15.994914619570
      Gh(H)          -1.976931000000     1.085456000000    -0.094548000000     1.007825032230
      Gh(H)          -2.580680000000     1.825291000000     1.177092000000     1.007825032230

  Charge       = -1
  Multiplicity = 1
  Basis Set: AUG-CC-PVTZ
    Blend: AUG-CC-PVTZ
  Basis Set: (AUG-CC-PVTZ AUX)
    Blend: AUG-CC-PVTZ-JKFIT

    Orbital Energies [Eh]
    ---------------------

    Doubly Occupied:

       1A   -104.507316     2A    -10.230075     3A     -7.696148
       4A     -7.696139     5A     -7.696115     6A     -0.733467
       7A     -0.150311     8A     -0.150306     9A     -0.150304

  @DF-RHF Final Energy:  -459.57358413847658

   => Energetics <=

    Nuclear Repulsion Energy =              0.0000000000000000
    One-Electron Energy =                -641.1268144223763557
    Two-Electron Energy =                 181.5532302838997794
    Total Energy =                       -459.5735841384765763
 Dipole X            :          0.0001064            0.0000000            0.0001064
 Dipole Y            :          0.0001293            0.0000000            0.0001293
 Dipole Z            :          0.0004675            0.0000000            0.0004675
 Magnitude           :                                                    0.0004965
  Basis Set: (AUG-CC-PVTZ AUX)
    Blend: AUG-CC-PVTZ-RI
	 Reference Energy          =    -459.5735841384765763 [Eh]
	 Singles Energy            =      -0.0000000000000000 [Eh]
	 Same-Spin Energy          =      -0.0636314382416000 [Eh]
	 Opposite-Spin Energy      =      -0.1843100888394021 [Eh]
	 Correlation Energy        =      -0.2479415270810021 [Eh]
	 Total Energy              =    -459.8215256655576013 [Eh]

	 ================> DF-SCS-MP2 Energies <==================
	-----------------------------------------------------------
	 SCS Same-Spin Scale       =       0.3333333333333333 [-]
	 SCS Opposite-Spin Scale   =       1.2000000000000000 [-]
	 SCS Same-Spin Energy      =      -0.0212104794138667 [Eh]
	 SCS Opposite-Spin Energy  =      -0.2211721066072825 [Eh]
	 SCS Correlation Energy    =      -0.2423825860211492 [Eh]
	 SCS Total Energy          =    -459.8159667244977413 [Eh]
	-----------------------------------------------------------

*** Psi4 exiting successfully. Buy a developer a beer!
