                               Psi4 1.9 release

  ==> Input File <==

--------------------------------------------------------------------------
MEMORY 60 GB

molecule dimer {
-1 1
Cl     0.000000     0.000000     0.000000
--
0 1
O     -2.199916    -1.571015     1.467295
H     -1.882318    -2.506238     1.325476
H     -1.614150    -0.972649     0.951732
O      0.797188    -2.893542     1.082174
H      0.638924    -1.985322     0.894663
H      1.422652    -3.264080     0.452093
O     -2.721750     0.879998    -1.804564
H     -2.687678     0.053166    -2.351965
H     -2.079379     0.700004    -1.079329
O     -0.897884    -1.728912    -2.615415
H     -0.741817    -1.169751    -1.853770
H     -0.428522    -2.544201    -2.358736

units ang
no_reorient
no_com
symmetry c1
}

set {
basis        aug-cc-pVTZ
scf_type     df
}

energy("mp2", bsse_type="cp")
--------------------------------------------------------------------------

                               Psi4 1.9 release
    Molecular point group: c1
  Charge       = 0
  Multiplicity = 1
  Basis Set: AUG-CC-PVTZ
    Blend: AUG-CC-PVTZ
  Basis Set: (AUG-CC-PVTZ AUX)
    Blend: AUG-CC-PVTZ-JKFIT
  @DF-RHF Final Energy:  -304.22649315341209
    Total Energy =                       -304.2264931534120933
 Dipole X            :         91.6060419          -89.8587147            1.7473272
 Dipole Y            :        101.6042891         -102.4171826           -0.8128935
 Dipole Z            :         35.6654431          -35.8744020           -0.2089589
 Magnitude           :                                                    1.9384560
  Basis Set: (AUG-CC-PVTZ AUX)
    Blend: AUG-CC-PVTZ-RI
	 Reference Energy          =    -304.2264931534120933 [Eh]
	 Singles Energy            =      -0.0000000000000000 [Eh]
	 Same-Spin Energy          =      -0.2765934379155429 [Eh]
	 Opposite-Spin Energy      =      -0.8692834765862069 [Eh]
	 Correlation Energy        =      -1.1458769145017498 [Eh]
	 Total Energy              =    -305.3723700679138346 [Eh]
	 SCS Total Energy          =    -305.3618311379540273 [Eh]
                               Psi4 1.9 release
    Molecular point group: c1
  Multiplicity = 1
  Basis Set: AUG-CC-PVTZ
    Blend: AUG-CC-PVTZ
  Basis Set: (AUG-CC-PVTZ AUX)
    Blend: AUG-CC-PVTZ-JKFIT
  @DF-RHF Final Energy:  -459.57356605179393
    Total Energy =                       -459.5735660517939323
  Basis Set: (AUG-CC-PVTZ AUX)
	 Singles Energy            =      -0.0000000000000000 [Eh]
	 Same-Spin Energy          =      -0.0634481454673475 [Eh]
	 Opposite-Spin Energy      =      -0.1834673072744748 [Eh]
	 Correlation Energy        =      -0.2469154527418223 [Eh]
	 Total Energy              =    -459.8204815045357350 [Eh]
	 SCS Total Energy          =    -459.8148762023457721 [Eh]
                               Psi4 1.9 release
    Molecular point group: c1

    Geometry (in Bohr), charge = -1, multiplicity = 1:

       Center              X                  Y                   Z               Mass
    ------------   -----------------  -----------------  -----------------  -----------------
         CL           0.000000000000     0.000000000000     0.000000000000    34.968852682000
         O           -4.157238739013    -2.968788088986     2.772785695254    15.994914619570
         H           -3.557065501020    -4.736103425215     2.504786625867     1.007825032230
         H           -3.050301425408    -1.838040226200     1.798512824834     1.007825032230
         O            1.506466990501    -5.468001912509     2.045012480091    15.994914619570
         H            1.207391374982    -3.751714850846     1.690668044580     1.007825032230
         H            2.688422651835    -6.168217251584     0.854331953237     1.007825032230
         O           -5.143362081965     1.662955210951    -3.410131735861    15.994914619570
         H           -5.078975333418     0.100469179186    -4.444569706662     1.007825032230
         H           -3.929456821028     1.322815846725    -2.039636209264     1.007825032230
         O           -1.696754852431    -3.267170175018    -4.942418054414    15.994914619570
         H           -1.401830965209    -2.210509024980    -3.503117599590     1.007825032230
         H           -0.809789218733    -4.807843098116    -4.457365042258     1.007825032230

  Charge       = -1
  Multiplicity = 1
  Basis Set: AUG-CC-PVTZ
    Blend: AUG-CC-PVTZ
  Basis Set: (AUG-CC-PVTZ AUX)
    Blend: AUG-CC-PVTZ-JKFIT

    Orbital Energies [Eh]
    ---------------------

    Doubly Occupied:

       1A   -104.586516     2A    -20.427276     3A    -20.423189
       4A    -20.411194     5A    -20.395081     6A    -10.311951
       7A     -7.778040     8A     -7.778004     9A     -7.777966
      10A     -1.215670    11A     -1.212417    12A     -1.180401
      13A     -1.165176    14A     -0.832281    15A     -0.596614
      16A     -0.571273    17A     -0.542064    18A     -0.538861
      19A     -0.456306    20A     -0.442499    21A     -0.427720
      22A     -0.410813    23A     -0.372669    24A     -0.372260
      25A     -0.350939    26A     -0.337213    27A     -0.243342
      28A     -0.240916    29A     -0.239316

  @DF-RHF Final Energy:  -763.86441913948102

   => Energetics <=

    Nuclear Repulsion Energy =            232.6292497475409107
    One-Electron Energy =               -1529.7113961641148308
    Two-Electron Energy =                 533.2177272770929903
    Total Energy =                       -763.8644191394810150
 Dipole X            :         92.2123309          -89.8587147            2.3536162
 Dipole Y            :        102.4407157         -102.4171826            0.0235331
 Dipole Z            :         35.8419354          -35.8744020           -0.0324666
 Magnitude           :                                                    2.3539578
  Basis Set: (AUG-CC-PVTZ AUX)
    Blend: AUG-CC-PVTZ-RI
	 Reference Energy          =    -763.8644191394810150 [Eh]
	 Singles Energy            =      -0.0000000000000000 [Eh]
	 Same-Spin Energy          =      -0.3479787365001807 [Eh]
	 Opposite-Spin Energy      =      -1.0578202574265367 [Eh]
	 Correlation Energy        =      -1.4057989939267175 [Eh]
	 Total Energy              =    -765.2702181334077522 [Eh]

	 ================> DF-SCS-MP2 Energies <==================
	-----------------------------------------------------------
	 SCS Same-Spin Scale       =       0.3333333333333333 [-]
	 SCS Opposite-Spin Scale   =       1.2000000000000000 [-]
	 SCS Same-Spin Energy      =      -0.1159929121667269 [Eh]
	 SCS Opposite-Spin Energy  =      -1.2693843089118440 [Eh]
	 SCS Correlation Energy    =      -1.3853772210785709 [Eh]
	 SCS Total Energy          =    -765.2497963605595714 [Eh]
	-----------------------------------------------------------

*** Psi4 exiting successfully. Buy a developer a beer!
