                               Psi4 1.8.2 release

  ==> Input File <==

--------------------------------------------------------------------------
MEMORY 60 GB

molecule dimer {
-1 1
Cl         0.000000     0.000000     0.000000
Gh(O)      0.566870    -1.819815     2.698297
Gh(H)     -0.078974    -2.614193     2.791088
Gh(H)      0.377088    -1.191194     1.959657
Gh(O)      2.279576     1.369045    -2.090596
Gh(H)      1.885928     0.879649    -1.319566
Gh(H)      2.785146     0.699748    -2.546213
Gh(O)     -0.408105    -3.449801    -0.045884
Gh(H)     -0.491537    -2.483954    -0.136913
Gh(H)     -1.054600    -3.756136    -0.690336
Gh(O)     -3.121446    -0.979678     0.008183
Gh(H)     -3.306620    -1.940481     0.152311
Gh(H)     -2.177854    -0.788117    -0.090022
Gh(O)     -1.054861     1.302381     3.016395
Gh(H)     -1.018792     0.388964     2.938793
Gh(H)     -0.449422     1.623404     2.330560

units ang
no_reorient
no_com
symmetry c1
}

set {
basis        aug-cc-pVTZ
scf_type     df
}

energy("mp2")
--------------------------------------------------------------------------

    Molecular point group: c1

    Geometry (in Angstrom), charge = -1, multiplicity = 1:

       Center              X                  Y                   Z               Mass
    ------------   -----------------  -----------------  -----------------  -----------------
         CL           0.000000000000     0.000000000000     0.000000000000    34.968852682000
      Gh(O)           0.566870000000    -1.819815000000     2.698297000000    15.994914619570
      Gh(H)          -0.078974000000    -2.614193000000     2.791088000000     1.007825032230
      Gh(H)           0.377088000000    -1.191194000000     1.959657000000     1.007825032230
      Gh(O)           2.279576000000     1.369045000000    -2.090596000000    15.994914619570
      Gh(H)           1.885928000000     0.879649000000    -1.319566000000     1.007825032230
      Gh(H)           2.785146000000     0.699748000000    -2.546213000000     1.007825032230
      Gh(O)          -0.408105000000    -3.449801000000    -0.045884000000    15.994914619570
      Gh(H)          -0.491537000000    -2.483954000000    -0.136913000000     1.007825032230
      Gh(H)          -1.054600000000    -3.756136000000    -0.690336000000     1.007825032230
      Gh(O)          -3.121446000000    -0.979678000000     0.008183000000    15.994914619570
      Gh(H)          -3.306620000000    -1.940481000000     0.152311000000     1.007825032230
      Gh(H)          -2.177854000000    -0.788117000000    -0.090022000000     1.007825032230
      Gh(O)          -1.054861000000     1.302381000000     3.016395000000    15.994914619570
      Gh(H)          -1.018792000000     0.388964000000     2.938793000000     1.007825032230
      Gh(H)          -0.449422000000     1.623404000000     2.330560000000     1.007825032230

  Charge       = -1
  Multiplicity = 1
  Basis Set: AUG-CC-PVTZ
    Blend: AUG-CC-PVTZ
  Basis Set: (AUG-CC-PVTZ AUX)
    Blend: AUG-CC-PVTZ-JKFIT

    Orbital Energies [Eh]
    ---------------------

    Doubly Occupied:

       1A   -104.507143     2A    -10.230028     3A     -7.696099
       4A     -7.696081     5A     -7.696071     6A     -0.733466
       7A     -0.150310     8A     -0.150304     9A     -0.150302

  @DF-RHF Final Energy:  -459.57356907804052

   => Energetics <=

    Nuclear Repulsion Energy =              0.0000000000000000
    One-Electron Energy =                -641.1275443471345170
    Two-Electron Energy =                 181.5539752690939963
    Total Energy =                       -459.5735690780405207
 Dipole X            :          0.0000895            0.0000000            0.0000895
 Dipole Y            :         -0.0002837            0.0000000           -0.0002837
 Dipole Z            :          0.0000829            0.0000000            0.0000829
 Magnitude           :                                                    0.0003088
  Basis Set: (AUG-CC-PVTZ AUX)
    Blend: AUG-CC-PVTZ-RI
	 Reference Energy          =    -459.5735690780405207 [Eh]
	 Singles Energy            =      -0.0000000000000000 [Eh]
	 Same-Spin Energy          =      -0.0633966778482017 [Eh]
	 Opposite-Spin Energy      =      -0.1831803212838659 [Eh]
	 Correlation Energy        =      -0.2465769991320675 [Eh]
	 Total Energy              =    -459.8201460771725806 [Eh]

	 ================> DF-SCS-MP2 Energies <==================
	-----------------------------------------------------------
	 SCS Same-Spin Scale       =       0.3333333333333333 [-]
	 SCS Opposite-Spin Scale   =       1.2000000000000000 [-]
	 SCS Same-Spin Energy      =      -0.0211322259494006 [Eh]
	 SCS Opposite-Spin Energy  =      -0.2198163855406390 [Eh]
	 SCS Correlation Energy    =      -0.2409486114900396 [Eh]
	 SCS Total Energy          =    -459.8145176895305326 [Eh]
	-----------------------------------------------------------

*** Psi4 exiting successfully. Buy a developer a beer!
