                               Psi4 1.8.2 release

  ==> Input File <==

--------------------------------------------------------------------------
MEMORY 60 GB

molecule dimer {
0 1
Gh(Cl)     0.000000     0.000000     0.000000
Gh(O)      0.601726    -2.589847     1.985255
Gh(H)      0.625102    -1.734398     1.410853
Gh(H)      0.202443    -2.311978     2.805266
Gh(O)      1.654373     2.108704     2.134861
Gh(H)      1.639621     3.020507     1.745273
Gh(H)      1.118820     1.502198     1.596433
Gh(O)     -1.660561     0.569143     2.400854
Gh(H)     -1.309075     0.235507     1.599810
Gh(H)     -1.163770     0.257029     3.177412
Gh(O)     -1.490632    -2.685195    -0.853034
Gh(H)     -1.987793    -3.157702    -0.165193
Gh(H)     -0.816107    -2.123214    -0.480627
O          3.208264     0.379661    -0.437533
H          3.780426     0.542681     0.324217
H          2.259776     0.321939    -0.255342

units ang
no_reorient
no_com
symmetry c1
}

set {
basis        aug-cc-pVTZ
scf_type     df
}

energy("mp2")
--------------------------------------------------------------------------

    Molecular point group: c1

    Geometry (in Angstrom), charge = 0, multiplicity = 1:

       Center              X                  Y                   Z               Mass
    ------------   -----------------  -----------------  -----------------  -----------------
      Gh(CL)          0.000000000000     0.000000000000     0.000000000000    34.968852682000
      Gh(O)           0.601726000000    -2.589847000000     1.985255000000    15.994914619570
      Gh(H)           0.625102000000    -1.734398000000     1.410853000000     1.007825032230
      Gh(H)           0.202443000000    -2.311978000000     2.805266000000     1.007825032230
      Gh(O)           1.654373000000     2.108704000000     2.134861000000    15.994914619570
      Gh(H)           1.639621000000     3.020507000000     1.745273000000     1.007825032230
      Gh(H)           1.118820000000     1.502198000000     1.596433000000     1.007825032230
      Gh(O)          -1.660561000000     0.569143000000     2.400854000000    15.994914619570
      Gh(H)          -1.309075000000     0.235507000000     1.599810000000     1.007825032230
      Gh(H)          -1.163770000000     0.257029000000     3.177412000000     1.007825032230
      Gh(O)          -1.490632000000    -2.685195000000    -0.853034000000    15.994914619570
      Gh(H)          -1.987793000000    -3.157702000000    -0.165193000000     1.007825032230
      Gh(H)          -0.816107000000    -2.123214000000    -0.480627000000     1.007825032230
         O            3.208264000000     0.379661000000    -0.437533000000    15.994914619570
         H            3.780426000000     0.542681000000     0.324217000000     1.007825032230
         H            2.259776000000     0.321939000000    -0.255342000000     1.007825032230

  Charge       = 0
  Multiplicity = 1
  Basis Set: AUG-CC-PVTZ
    Blend: AUG-CC-PVTZ
  Basis Set: (AUG-CC-PVTZ AUX)
    Blend: AUG-CC-PVTZ-JKFIT

    Orbital Energies [Eh]
    ---------------------

    Doubly Occupied:

       1A    -20.563211     2A     -1.340660     3A     -0.732907
       4A     -0.560636     5A     -0.505842

  @DF-RHF Final Energy:   -76.05698588928165

   => Energetics <=

    Nuclear Repulsion Energy =              9.0775734715135012
    One-Electron Energy =                -122.8626035169532997
    Two-Electron Energy =                  37.7280441561581483
    Total Energy =                        -76.0569858892816484
 Dipole X            :        -60.1749504           59.9162499           -0.2587005
 Dipole Y            :         -7.3010738            7.3735375            0.0724636
 Dipole Z            :          7.1326785           -6.4843854            0.6482930
 Magnitude           :                                                    0.7017555
  Basis Set: (AUG-CC-PVTZ AUX)
    Blend: AUG-CC-PVTZ-RI
	 Reference Energy          =     -76.0569858892816484 [Eh]
	 Singles Energy            =      -0.0000000000000000 [Eh]
	 Same-Spin Energy          =      -0.0684900706753535 [Eh]
	 Opposite-Spin Energy      =      -0.2159779745377785 [Eh]
	 Correlation Energy        =      -0.2844680452131320 [Eh]
	 Total Energy              =     -76.3414539344947798 [Eh]

	 ================> DF-SCS-MP2 Energies <==================
	-----------------------------------------------------------
	 SCS Same-Spin Scale       =       0.3333333333333333 [-]
	 SCS Opposite-Spin Scale   =       1.2000000000000000 [-]
	 SCS Same-Spin Energy      =      -0.0228300235584512 [Eh]
	 SCS Opposite-Spin Energy  =      -0.2591735694453342 [Eh]
	 SCS Correlation Energy    =      -0.2820035930037853 [Eh]
	 SCS Total Energy          =     -76.3389894822854274 [Eh]
	-----------------------------------------------------------

*** Psi4 exiting successfully. Buy a developer a beer!
