                               Psi4 1.8.2 release

  ==> Input File <==

--------------------------------------------------------------------------
MEMORY 60 GB

molecule dimer {
-1 1
Cl         0.000000     0.000000     0.000000
O         -3.345480    -0.015182     0.788190
H         -3.632837    -0.005960    -0.124407
H         -2.407724    -0.067282     0.760475
O          0.909665    -3.050980    -1.330231
H          0.510666    -2.302691    -0.878649
H          1.796129    -2.796512    -1.580084
O          0.623160    -1.959905     2.371318
H          1.061949    -2.773718     2.071950
H          0.542996    -1.324600     1.640391

units ang
no_reorient
no_com
symmetry c1
}

set {
basis        aug-cc-pVTZ
scf_type     df
}

energy("mp2")
--------------------------------------------------------------------------

    Molecular point group: c1

    Geometry (in Angstrom), charge = -1, multiplicity = 1:

       Center              X                  Y                   Z               Mass
    ------------   -----------------  -----------------  -----------------  -----------------
         CL           0.000000000000     0.000000000000     0.000000000000    34.968852682000
         O           -3.345480000000    -0.015182000000     0.788190000000    15.994914619570
         H           -3.632837000000    -0.005960000000    -0.124407000000     1.007825032230
         H           -2.407724000000    -0.067282000000     0.760475000000     1.007825032230
         O            0.909665000000    -3.050980000000    -1.330231000000    15.994914619570
         H            0.510666000000    -2.302691000000    -0.878649000000     1.007825032230
         H            1.796129000000    -2.796512000000    -1.580084000000     1.007825032230
         O            0.623160000000    -1.959905000000     2.371318000000    15.994914619570
         H            1.061949000000    -2.773718000000     2.071950000000     1.007825032230
         H            0.542996000000    -1.324600000000     1.640391000000     1.007825032230

  Charge       = -1
  Multiplicity = 1
  Basis Set: AUG-CC-PVTZ
    Blend: AUG-CC-PVTZ
  Basis Set: (AUG-CC-PVTZ AUX)
    Blend: AUG-CC-PVTZ-JKFIT

    Orbital Energies [Eh]
    ---------------------

    Doubly Occupied:

       1A   -104.563828     2A    -20.420053     3A    -20.409670
       4A    -20.394306     5A    -10.288427     6A     -7.754534
       7A     -7.754490     8A     -7.754481     9A     -1.207188
      10A     -1.203635    11A     -1.174031    12A     -0.802104
      13A     -0.579654    14A     -0.572231    15A     -0.554189
      16A     -0.439662    17A     -0.435025    18A     -0.407938
      19A     -0.366871    20A     -0.358710    21A     -0.340088
      22A     -0.217017    23A     -0.215236    24A     -0.213862

  @DF-RHF Final Energy:  -687.80062453519258

   => Energetics <=

    Nuclear Repulsion Energy =            146.0355090520325234
    One-Electron Energy =               -1250.8177989447278833
    Two-Electron Energy =                 416.9816653575027203
    Total Energy =                       -687.8006245351926964
 Dipole X            :         32.5128631          -31.4262607            1.0866023
 Dipole Y            :         94.6264895          -93.5023240            1.1241655
 Dipole Z            :        -32.6369176           31.2256304           -1.4112872
 Magnitude           :                                                    2.1062251
  Basis Set: (AUG-CC-PVTZ AUX)
    Blend: AUG-CC-PVTZ-RI
	 Reference Energy          =    -687.8006245351925827 [Eh]
	 Singles Energy            =      -0.0000000000000000 [Eh]
	 Same-Spin Energy          =      -0.2736027214571816 [Eh]
	 Opposite-Spin Energy      =      -0.8327600705703353 [Eh]
	 Correlation Energy        =      -1.1063627920275170 [Eh]
	 Total Energy              =    -688.9069873272201221 [Eh]

	 ================> DF-SCS-MP2 Energies <==================
	-----------------------------------------------------------
	 SCS Same-Spin Scale       =       0.3333333333333333 [-]
	 SCS Opposite-Spin Scale   =       1.2000000000000000 [-]
	 SCS Same-Spin Energy      =      -0.0912009071523939 [Eh]
	 SCS Opposite-Spin Energy  =      -0.9993120846844024 [Eh]
	 SCS Correlation Energy    =      -1.0905129918367962 [Eh]
	 SCS Total Energy          =    -688.8911375270294002 [Eh]
	-----------------------------------------------------------

*** Psi4 exiting successfully. Buy a developer a beer!
