                               Psi4 1.8.2 release

  ==> Input File <==

--------------------------------------------------------------------------
MEMORY 60 GB

molecule dimer {
0 1
Gh(Cl)     0.000000     0.000000     0.000000
Gh(O)      1.771129     2.489187     0.169336
Gh(H)      1.379107     1.608893     0.191284
Gh(H)      1.074826     3.009005    -0.305359
Gh(O)     -0.595761    -2.485321     1.681379
Gh(H)     -0.839779    -2.280443     2.596276
Gh(H)     -0.383113    -1.560361     1.328127
O         -3.305344     0.023545    -0.246950
H         -3.552244    -0.023220    -1.134455
H         -2.322919     0.116370    -0.213788

units ang
no_reorient
no_com
symmetry c1
}

set {
basis        aug-cc-pVTZ
scf_type     df
}

energy("mp2")
--------------------------------------------------------------------------

    Molecular point group: c1

    Geometry (in Angstrom), charge = 0, multiplicity = 1:

       Center              X                  Y                   Z               Mass
    ------------   -----------------  -----------------  -----------------  -----------------
      Gh(CL)          0.000000000000     0.000000000000     0.000000000000    34.968852682000
      Gh(O)           1.771129000000     2.489187000000     0.169336000000    15.994914619570
      Gh(H)           1.379107000000     1.608893000000     0.191284000000     1.007825032230
      Gh(H)           1.074826000000     3.009005000000    -0.305359000000     1.007825032230
      Gh(O)          -0.595761000000    -2.485321000000     1.681379000000    15.994914619570
      Gh(H)          -0.839779000000    -2.280443000000     2.596276000000     1.007825032230
      Gh(H)          -0.383113000000    -1.560361000000     1.328127000000     1.007825032230
         O           -3.305344000000     0.023545000000    -0.246950000000    15.994914619570
         H           -3.552244000000    -0.023220000000    -1.134455000000     1.007825032230
         H           -2.322919000000     0.116370000000    -0.213788000000     1.007825032230

  Charge       = 0
  Multiplicity = 1
  Basis Set: AUG-CC-PVTZ
    Blend: AUG-CC-PVTZ
  Basis Set: (AUG-CC-PVTZ AUX)
    Blend: AUG-CC-PVTZ-JKFIT

    Orbital Energies [Eh]
    ---------------------

    Doubly Occupied:

       1A    -20.565127     2A     -1.353593     3A     -0.725432
       4A     -0.578898     5A     -0.509706

  @DF-RHF Final Energy:   -76.05856921156069

   => Energetics <=

    Nuclear Repulsion Energy =              9.2203521199688829
    One-Electron Energy =                -123.0923288587390516
    Two-Electron Energy =                  37.8134075272094634
    Total Energy =                        -76.0585692115607088
 Dipole X            :         61.5593506          -61.0720083            0.4873423
 Dipole Y            :         -0.5016288            0.5319768            0.0303480
 Dipole Z            :          5.6996308           -6.2811530           -0.5815222
 Magnitude           :                                                    0.7593363
  Basis Set: (AUG-CC-PVTZ AUX)
    Blend: AUG-CC-PVTZ-RI
	 Reference Energy          =     -76.0585692115606946 [Eh]
	 Singles Energy            =      -0.0000000000000000 [Eh]
	 Same-Spin Energy          =      -0.0682713421322138 [Eh]
	 Opposite-Spin Energy      =      -0.2153821481953037 [Eh]
	 Correlation Energy        =      -0.2836534903275175 [Eh]
	 Total Energy              =     -76.3422227018882182 [Eh]

	 ================> DF-SCS-MP2 Energies <==================
	-----------------------------------------------------------
	 SCS Same-Spin Scale       =       0.3333333333333333 [-]
	 SCS Opposite-Spin Scale   =       1.2000000000000000 [-]
	 SCS Same-Spin Energy      =      -0.0227571140440713 [Eh]
	 SCS Opposite-Spin Energy  =      -0.2584585778343644 [Eh]
	 SCS Correlation Energy    =      -0.2812156918784356 [Eh]
	 SCS Total Energy          =     -76.3397849034391243 [Eh]
	-----------------------------------------------------------

*** Psi4 exiting successfully. Buy a developer a beer!
