                               Psi4 1.8.2 release

  ==> Input File <==

--------------------------------------------------------------------------
MEMORY 60 GB

molecule dimer {
-1 1
Cl         0.000000     0.000000     0.000000
Gh(O)      2.347456    -0.658120     1.836924
Gh(H)      1.503461    -0.342108     1.498010
Gh(H)      3.023913    -0.371611     1.184006
Gh(O)      1.476974    -2.981181    -0.401283
Gh(H)      1.428877    -2.124141     0.044335
Gh(H)      0.987391    -2.973805    -1.261521
Gh(O)      1.221048    -0.028193    -3.177290
Gh(H)      0.809868    -0.267015    -2.372466
Gh(H)      1.740949     0.746334    -2.920550
Gh(O)     -0.343156     1.510349     2.607781
Gh(H)     -0.163751     0.855136     1.877864
Gh(H)      0.291671     2.275670     2.361551
Gh(O)     -1.949830    -2.734697     0.889703
Gh(H)     -2.584009    -2.204144     1.367376
Gh(H)     -1.302316    -2.065112     0.692981

units ang
no_reorient
no_com
symmetry c1
}

set {
basis        aug-cc-pVTZ
scf_type     df
}

energy("mp2")
--------------------------------------------------------------------------

    Molecular point group: c1

    Geometry (in Angstrom), charge = -1, multiplicity = 1:

       Center              X                  Y                   Z               Mass
    ------------   -----------------  -----------------  -----------------  -----------------
         CL           0.000000000000     0.000000000000     0.000000000000    34.968852682000
      Gh(O)           2.347456000000    -0.658120000000     1.836924000000    15.994914619570
      Gh(H)           1.503461000000    -0.342108000000     1.498010000000     1.007825032230
      Gh(H)           3.023913000000    -0.371611000000     1.184006000000     1.007825032230
      Gh(O)           1.476974000000    -2.981181000000    -0.401283000000    15.994914619570
      Gh(H)           1.428877000000    -2.124141000000     0.044335000000     1.007825032230
      Gh(H)           0.987391000000    -2.973805000000    -1.261521000000     1.007825032230
      Gh(O)           1.221048000000    -0.028193000000    -3.177290000000    15.994914619570
      Gh(H)           0.809868000000    -0.267015000000    -2.372466000000     1.007825032230
      Gh(H)           1.740949000000     0.746334000000    -2.920550000000     1.007825032230
      Gh(O)          -0.343156000000     1.510349000000     2.607781000000    15.994914619570
      Gh(H)          -0.163751000000     0.855136000000     1.877864000000     1.007825032230
      Gh(H)           0.291671000000     2.275670000000     2.361551000000     1.007825032230
      Gh(O)          -1.949830000000    -2.734697000000     0.889703000000    15.994914619570
      Gh(H)          -2.584009000000    -2.204144000000     1.367376000000     1.007825032230
      Gh(H)          -1.302316000000    -2.065112000000     0.692981000000     1.007825032230

  Charge       = -1
  Multiplicity = 1
  Basis Set: AUG-CC-PVTZ
    Blend: AUG-CC-PVTZ
  Basis Set: (AUG-CC-PVTZ AUX)
    Blend: AUG-CC-PVTZ-JKFIT

    Orbital Energies [Eh]
    ---------------------

    Doubly Occupied:

       1A   -104.507256     2A    -10.230061     3A     -7.696132
       4A     -7.696119     5A     -7.696102     6A     -0.733469
       7A     -0.150311     8A     -0.150307     9A     -0.150305

  @DF-RHF Final Energy:  -459.57357565660840

   => Energetics <=

    Nuclear Repulsion Energy =              0.0000000000000000
    One-Electron Energy =                -641.1270382743881555
    Two-Electron Energy =                 181.5534626177797577
    Total Energy =                       -459.5735756566083978
 Dipole X            :          0.0001574            0.0000000            0.0001574
 Dipole Y            :         -0.0004327            0.0000000           -0.0004327
 Dipole Z            :          0.0002052            0.0000000            0.0002052
 Magnitude           :                                                    0.0005041
  Basis Set: (AUG-CC-PVTZ AUX)
    Blend: AUG-CC-PVTZ-RI
	 Reference Energy          =    -459.5735756566083978 [Eh]
	 Singles Energy            =      -0.0000000000000000 [Eh]
	 Same-Spin Energy          =      -0.0635488270873462 [Eh]
	 Opposite-Spin Energy      =      -0.1839210843059155 [Eh]
	 Correlation Energy        =      -0.2474699113932617 [Eh]
	 Total Energy              =    -459.8210455680016366 [Eh]

	 ================> DF-SCS-MP2 Energies <==================
	-----------------------------------------------------------
	 SCS Same-Spin Scale       =       0.3333333333333333 [-]
	 SCS Opposite-Spin Scale   =       1.2000000000000000 [-]
	 SCS Same-Spin Energy      =      -0.0211829423624487 [Eh]
	 SCS Opposite-Spin Energy  =      -0.2207053011670986 [Eh]
	 SCS Correlation Energy    =      -0.2418882435295474 [Eh]
	 SCS Total Energy          =    -459.8154639001379564 [Eh]
	-----------------------------------------------------------

*** Psi4 exiting successfully. Buy a developer a beer!
