                               Psi4 1.8.2 release

  ==> Input File <==

--------------------------------------------------------------------------
MEMORY 60 GB

molecule dimer {
-1 1
Cl         0.000000     0.000000     0.000000
O          3.272233    -0.339230     0.465325
H          2.339576    -0.145698     0.219241
H          3.571731     0.299655     1.166361
O          0.347877     2.802529     1.428865
H         -0.125574     3.335043     0.784056
H          0.515121     1.891836     1.111430
O          0.954444    -2.748896     1.108647
H          1.725578    -3.078670     0.722052
H          0.880431    -1.768924     0.971943
O         -0.111136    -0.616714     3.117009
H         -0.296790     0.160491     3.738680
H         -0.092426    -0.202776     2.240970
O         -2.552283     1.901749     0.193843
H         -1.976931     1.085456    -0.094548
H         -2.580680     1.825291     1.177092

units ang
no_reorient
no_com
symmetry c1
}

set {
basis        aug-cc-pVTZ
scf_type     df
}

energy("mp2")
--------------------------------------------------------------------------

    Molecular point group: c1

    Geometry (in Angstrom), charge = -1, multiplicity = 1:

       Center              X                  Y                   Z               Mass
    ------------   -----------------  -----------------  -----------------  -----------------
         CL           0.000000000000     0.000000000000     0.000000000000    34.968852682000
         O            3.272233000000    -0.339230000000     0.465325000000    15.994914619570
         H            2.339576000000    -0.145698000000     0.219241000000     1.007825032230
         H            3.571731000000     0.299655000000     1.166361000000     1.007825032230
         O            0.347877000000     2.802529000000     1.428865000000    15.994914619570
         H           -0.125574000000     3.335043000000     0.784056000000     1.007825032230
         H            0.515121000000     1.891836000000     1.111430000000     1.007825032230
         O            0.954444000000    -2.748896000000     1.108647000000    15.994914619570
         H            1.725578000000    -3.078670000000     0.722052000000     1.007825032230
         H            0.880431000000    -1.768924000000     0.971943000000     1.007825032230
         O           -0.111136000000    -0.616714000000     3.117009000000    15.994914619570
         H           -0.296790000000     0.160491000000     3.738680000000     1.007825032230
         H           -0.092426000000    -0.202776000000     2.240970000000     1.007825032230
         O           -2.552283000000     1.901749000000     0.193843000000    15.994914619570
         H           -1.976931000000     1.085456000000    -0.094548000000     1.007825032230
         H           -2.580680000000     1.825291000000     1.177092000000     1.007825032230

  Charge       = -1
  Multiplicity = 1
  Basis Set: AUG-CC-PVTZ
    Blend: AUG-CC-PVTZ
  Basis Set: (AUG-CC-PVTZ AUX)
    Blend: AUG-CC-PVTZ-JKFIT

    Orbital Energies [Eh]
    ---------------------

    Doubly Occupied:

       1A   -104.600659     2A    -20.429639     3A    -20.424779
       4A    -20.420685     5A    -20.416026     6A    -20.389855
       7A    -10.326655     8A     -7.792762     9A     -7.792676
      10A     -7.792628    11A     -1.197626    12A     -1.197176
      13A     -1.189600    14A     -1.181485    15A     -1.180347
      16A     -0.850548    17A     -0.582779    18A     -0.574799
      19A     -0.566796    20A     -0.547314    21A     -0.541973
      22A     -0.438399    23A     -0.435442    24A     -0.433873
      25A     -0.429511    26A     -0.408358    27A     -0.370393
      28A     -0.368886    29A     -0.359494    30A     -0.353789
      31A     -0.338906    32A     -0.260311    33A     -0.256350
      34A     -0.252547

  @DF-RHF Final Energy:  -839.91083478894041

   => Energetics <=

    Nuclear Repulsion Energy =            317.8227374726071162
    One-Electron Energy =               -1806.0610065807343290
    Two-Electron Energy =                 648.3274343191868638
    Total Energy =                       -839.9108347889404058
 Dipole X            :        -36.4929903           36.3755574           -0.1174329
 Dipole Y            :        -20.8527628           21.5376017            0.6848389
 Dipole Z            :       -119.3363983          118.1963012           -1.1400971
 Magnitude           :                                                    1.3351465
  Basis Set: (AUG-CC-PVTZ AUX)
    Blend: AUG-CC-PVTZ-RI
	 Reference Energy          =    -839.9108347889404058 [Eh]
	 Singles Energy            =      -0.0000000000000000 [Eh]
	 Same-Spin Energy          =      -0.4206844932791454 [Eh]
	 Opposite-Spin Energy      =      -1.2803123588913730 [Eh]
	 Correlation Energy        =      -1.7009968521705183 [Eh]
	 Total Energy              =    -841.6118316411109390 [Eh]

	 ================> DF-SCS-MP2 Energies <==================
	-----------------------------------------------------------
	 SCS Same-Spin Scale       =       0.3333333333333333 [-]
	 SCS Opposite-Spin Scale   =       1.2000000000000000 [-]
	 SCS Same-Spin Energy      =      -0.1402281644263818 [Eh]
	 SCS Opposite-Spin Energy  =      -1.5363748306696474 [Eh]
	 SCS Correlation Energy    =      -1.6766029950960293 [Eh]
	 SCS Total Energy          =    -841.5874377840364104 [Eh]
	-----------------------------------------------------------

*** Psi4 exiting successfully. Buy a developer a beer!
