                               Psi4 1.8.2 release

  ==> Input File <==

--------------------------------------------------------------------------
MEMORY 60 GB

molecule dimer {
0 1
Gh(Cl)     0.000000     0.000000     0.000000
Gh(O)      2.247823     1.054428     2.091133
Gh(H)      1.975481     0.561471     1.348335
Gh(H)      2.892441     0.520458     2.606351
O          0.349162    -2.885324     1.690405
H          0.406239    -3.703972     1.217566
H          0.590132    -2.160564     1.081020
Gh(O)      1.622947     1.853072    -2.013003
Gh(H)      2.373746     1.475204    -2.405921
Gh(H)      1.243024     1.154997    -1.444838

units ang
no_reorient
no_com
symmetry c1
}

set {
basis        aug-cc-pVTZ
scf_type     df
}

energy("mp2")
--------------------------------------------------------------------------

    Molecular point group: c1

    Geometry (in Angstrom), charge = 0, multiplicity = 1:

       Center              X                  Y                   Z               Mass
    ------------   -----------------  -----------------  -----------------  -----------------
      Gh(CL)          0.000000000000     0.000000000000     0.000000000000    34.968852682000
      Gh(O)           2.247823000000     1.054428000000     2.091133000000    15.994914619570
      Gh(H)           1.975481000000     0.561471000000     1.348335000000     1.007825032230
      Gh(H)           2.892441000000     0.520458000000     2.606351000000     1.007825032230
         O            0.349162000000    -2.885324000000     1.690405000000    15.994914619570
         H            0.406239000000    -3.703972000000     1.217566000000     1.007825032230
         H            0.590132000000    -2.160564000000     1.081020000000     1.007825032230
      Gh(O)           1.622947000000     1.853072000000    -2.013003000000    15.994914619570
      Gh(H)           2.373746000000     1.475204000000    -2.405921000000     1.007825032230
      Gh(H)           1.243024000000     1.154997000000    -1.444838000000     1.007825032230

  Charge       = 0
  Multiplicity = 1
  Basis Set: AUG-CC-PVTZ
    Blend: AUG-CC-PVTZ
  Basis Set: (AUG-CC-PVTZ AUX)
    Blend: AUG-CC-PVTZ-JKFIT

    Orbital Energies [Eh]
    ---------------------

    Doubly Occupied:

       1A    -20.566230     2A     -1.348596     3A     -0.722424
       4A     -0.576443     5A     -0.508817

  @DF-RHF Final Energy:   -76.05966736275442

   => Energetics <=

    Nuclear Repulsion Energy =              9.1416759543381474
    One-Electron Energy =                -122.9576620609623063
    Two-Electron Energy =                  37.7563187438697483
    Total Energy =                        -76.0596673627544249
 Dipole X            :         -6.9614757            7.1614327            0.1999570
 Dipole Y            :         54.6346829          -54.7021440           -0.0674611
 Dipole Z            :        -30.6252567           29.8989179           -0.7263387
 Magnitude           :                                                    0.7563741
  Basis Set: (AUG-CC-PVTZ AUX)
    Blend: AUG-CC-PVTZ-RI
	 Reference Energy          =     -76.0596673627544249 [Eh]
	 Singles Energy            =      -0.0000000000000000 [Eh]
	 Same-Spin Energy          =      -0.0683927779158692 [Eh]
	 Opposite-Spin Energy      =      -0.2155608389866680 [Eh]
	 Correlation Energy        =      -0.2839536169025372 [Eh]
	 Total Energy              =     -76.3436209796569614 [Eh]

	 ================> DF-SCS-MP2 Energies <==================
	-----------------------------------------------------------
	 SCS Same-Spin Scale       =       0.3333333333333333 [-]
	 SCS Opposite-Spin Scale   =       1.2000000000000000 [-]
	 SCS Same-Spin Energy      =      -0.0227975926386231 [Eh]
	 SCS Opposite-Spin Energy  =      -0.2586730067840016 [Eh]
	 SCS Correlation Energy    =      -0.2814705994226246 [Eh]
	 SCS Total Energy          =     -76.3411379621770436 [Eh]
	-----------------------------------------------------------

*** Psi4 exiting successfully. Buy a developer a beer!
