                               Psi4 1.8.2 release

  ==> Input File <==

--------------------------------------------------------------------------
MEMORY 60 GB

molecule dimer {
0 1
Gh(Cl)     0.000000     0.000000     0.000000
Gh(O)      2.766194    -0.990872     1.334512
Gh(H)      3.039003    -1.669598     0.704789
Gh(H)      1.972907    -0.601045     0.984498
O          1.954164    -2.033443    -1.248793
H          2.754129    -1.997806    -1.786639
H          1.469395    -1.174972    -1.109340
Gh(O)      0.724065     0.495149     3.233155
Gh(H)      0.262707     0.210693     2.462424
Gh(H)      1.506162    -0.008643     3.265816
Gh(O)     -2.376968     0.795770    -2.094079
Gh(H)     -2.494931     0.396759    -1.199738
Gh(H)     -2.033227     1.702484    -1.954161
Gh(O)     -1.121666    -3.050928     0.529231
Gh(H)     -0.453203    -2.425550     0.260200
Gh(H)     -1.712015    -3.186147    -0.206178

units ang
no_reorient
no_com
symmetry c1
}

set {
basis        aug-cc-pVTZ
scf_type     df
}

energy("mp2")
--------------------------------------------------------------------------

    Molecular point group: c1

    Geometry (in Angstrom), charge = 0, multiplicity = 1:

       Center              X                  Y                   Z               Mass
    ------------   -----------------  -----------------  -----------------  -----------------
      Gh(CL)          0.000000000000     0.000000000000     0.000000000000    34.968852682000
      Gh(O)           2.766194000000    -0.990872000000     1.334512000000    15.994914619570
      Gh(H)           3.039003000000    -1.669598000000     0.704789000000     1.007825032230
      Gh(H)           1.972907000000    -0.601045000000     0.984498000000     1.007825032230
         O            1.954164000000    -2.033443000000    -1.248793000000    15.994914619570
         H            2.754129000000    -1.997806000000    -1.786639000000     1.007825032230
         H            1.469395000000    -1.174972000000    -1.109340000000     1.007825032230
      Gh(O)           0.724065000000     0.495149000000     3.233155000000    15.994914619570
      Gh(H)           0.262707000000     0.210693000000     2.462424000000     1.007825032230
      Gh(H)           1.506162000000    -0.008643000000     3.265816000000     1.007825032230
      Gh(O)          -2.376968000000     0.795770000000    -2.094079000000    15.994914619570
      Gh(H)          -2.494931000000     0.396759000000    -1.199738000000     1.007825032230
      Gh(H)          -2.033227000000     1.702484000000    -1.954161000000     1.007825032230
      Gh(O)          -1.121666000000    -3.050928000000     0.529231000000    15.994914619570
      Gh(H)          -0.453203000000    -2.425550000000     0.260200000000     1.007825032230
      Gh(H)          -1.712015000000    -3.186147000000    -0.206178000000     1.007825032230

  Charge       = 0
  Multiplicity = 1
  Basis Set: AUG-CC-PVTZ
    Blend: AUG-CC-PVTZ
  Basis Set: (AUG-CC-PVTZ AUX)
    Blend: AUG-CC-PVTZ-JKFIT

    Orbital Energies [Eh]
    ---------------------

    Doubly Occupied:

       1A    -20.564845     2A     -1.334160     3A     -0.726077
       4A     -0.557218     5A     -0.504518

  @DF-RHF Final Energy:   -76.05444699522646

   => Energetics <=

    Nuclear Repulsion Energy =              8.9574022998173035
    One-Electron Energy =                -122.6500570959075844
    Two-Electron Energy =                  37.6382078008638317
    Total Energy =                        -76.0544469952264421
 Dipole X            :        -37.3069137           37.5239818            0.2170680
 Dipole Y            :         37.3450716          -36.7368844            0.6081872
 Dipole Z            :         24.0785451          -24.3516212           -0.2730762
 Magnitude           :                                                    0.7011282
  Basis Set: (AUG-CC-PVTZ AUX)
    Blend: AUG-CC-PVTZ-RI
	 Reference Energy          =     -76.0544469952264564 [Eh]
	 Singles Energy            =      -0.0000000000000000 [Eh]
	 Same-Spin Energy          =      -0.0687533616248880 [Eh]
	 Opposite-Spin Energy      =      -0.2167626295159906 [Eh]
	 Correlation Energy        =      -0.2855159911408786 [Eh]
	 Total Energy              =     -76.3399629863673397 [Eh]

	 ================> DF-SCS-MP2 Energies <==================
	-----------------------------------------------------------
	 SCS Same-Spin Scale       =       0.3333333333333333 [-]
	 SCS Opposite-Spin Scale   =       1.2000000000000000 [-]
	 SCS Same-Spin Energy      =      -0.0229177872082960 [Eh]
	 SCS Opposite-Spin Energy  =      -0.2601151554191887 [Eh]
	 SCS Correlation Energy    =      -0.2830329426274847 [Eh]
	 SCS Total Energy          =     -76.3374799378539421 [Eh]
	-----------------------------------------------------------

*** Psi4 exiting successfully. Buy a developer a beer!
