                               Psi4 1.8.2 release

  ==> Input File <==

--------------------------------------------------------------------------
MEMORY 60 GB

molecule dimer {
0 1
Gh(Cl)     0.000000     0.000000     0.000000
O         -1.296686    -0.789802     2.747488
H         -0.958037    -0.553647     1.932824
H         -0.724324    -1.377608     3.241656
Gh(O)     -2.076983    -2.553794    -0.486353
Gh(H)     -1.591041    -1.707135    -0.380617
Gh(H)     -3.010769    -2.279472    -0.495510
Gh(O)     -0.476781     2.792384     1.610098
Gh(H)     -0.194248     1.959841     1.163400
Gh(H)      0.285662     3.369797     1.728100
Gh(O)      2.175372    -1.021934     2.331685
Gh(H)      2.807418    -1.629194     1.955755
Gh(H)      1.693498    -0.623625     1.563577
Gh(O)     -2.432882     1.506271    -1.718991
Gh(H)     -1.619892     1.326935    -1.279633
Gh(H)     -2.709491     0.637243    -2.073644

units ang
no_reorient
no_com
symmetry c1
}

set {
basis        aug-cc-pVTZ
scf_type     df
}

energy("mp2")
--------------------------------------------------------------------------

    Molecular point group: c1

    Geometry (in Angstrom), charge = 0, multiplicity = 1:

       Center              X                  Y                   Z               Mass
    ------------   -----------------  -----------------  -----------------  -----------------
      Gh(CL)          0.000000000000     0.000000000000     0.000000000000    34.968852682000
         O           -1.296686000000    -0.789802000000     2.747488000000    15.994914619570
         H           -0.958037000000    -0.553647000000     1.932824000000     1.007825032230
         H           -0.724324000000    -1.377608000000     3.241656000000     1.007825032230
      Gh(O)          -2.076983000000    -2.553794000000    -0.486353000000    15.994914619570
      Gh(H)          -1.591041000000    -1.707135000000    -0.380617000000     1.007825032230
      Gh(H)          -3.010769000000    -2.279472000000    -0.495510000000     1.007825032230
      Gh(O)          -0.476781000000     2.792384000000     1.610098000000    15.994914619570
      Gh(H)          -0.194248000000     1.959841000000     1.163400000000     1.007825032230
      Gh(H)           0.285662000000     3.369797000000     1.728100000000     1.007825032230
      Gh(O)           2.175372000000    -1.021934000000     2.331685000000    15.994914619570
      Gh(H)           2.807418000000    -1.629194000000     1.955755000000     1.007825032230
      Gh(H)           1.693498000000    -0.623625000000     1.563577000000     1.007825032230
      Gh(O)          -2.432882000000     1.506271000000    -1.718991000000    15.994914619570
      Gh(H)          -1.619892000000     1.326935000000    -1.279633000000     1.007825032230
      Gh(H)          -2.709491000000     0.637243000000    -2.073644000000     1.007825032230

  Charge       = 0
  Multiplicity = 1
  Basis Set: AUG-CC-PVTZ
    Blend: AUG-CC-PVTZ
  Basis Set: (AUG-CC-PVTZ AUX)
    Blend: AUG-CC-PVTZ-JKFIT

    Orbital Energies [Eh]
    ---------------------

    Doubly Occupied:

       1A    -20.559137     2A     -1.359153     3A     -0.746961
       4A     -0.571544     5A     -0.509675

  @DF-RHF Final Energy:   -76.05887076422890

   => Energetics <=

    Nuclear Repulsion Energy =              9.3936726826362769
    One-Electron Energy =                -123.4121435788628958
    Two-Electron Energy =                  37.9596001319977105
    Total Energy =                        -76.0588707642289137
 Dipole X            :         23.4142496          -22.7822528            0.6319968
 Dipole Y            :         15.3486084          -15.5896188           -0.2410104
 Dipole Z            :        -51.5420203           51.3143489           -0.2276715
 Magnitude           :                                                    0.7136808
  Basis Set: (AUG-CC-PVTZ AUX)
    Blend: AUG-CC-PVTZ-RI
	 Reference Energy          =     -76.0588707642288995 [Eh]
	 Singles Energy            =      -0.0000000000000000 [Eh]
	 Same-Spin Energy          =      -0.0679513816042359 [Eh]
	 Opposite-Spin Energy      =      -0.2146300247220130 [Eh]
	 Correlation Energy        =      -0.2825814063262488 [Eh]
	 Total Energy              =     -76.3414521705551437 [Eh]

	 ================> DF-SCS-MP2 Energies <==================
	-----------------------------------------------------------
	 SCS Same-Spin Scale       =       0.3333333333333333 [-]
	 SCS Opposite-Spin Scale   =       1.2000000000000000 [-]
	 SCS Same-Spin Energy      =      -0.0226504605347453 [Eh]
	 SCS Opposite-Spin Energy  =      -0.2575560296664156 [Eh]
	 SCS Correlation Energy    =      -0.2802064902011608 [Eh]
	 SCS Total Energy          =     -76.3390772544300660 [Eh]
	-----------------------------------------------------------

*** Psi4 exiting successfully. Buy a developer a beer!
