                               Psi4 1.9 release

  ==> Input File <==

--------------------------------------------------------------------------
MEMORY 60 GB

molecule dimer {
-1 1
Cl     0.000000     0.000000     0.000000
--
0 1
O      1.087017    -1.938826     2.134205
H      1.242037    -1.061945     1.749816
H      0.542211    -2.402701     1.471366
O     -2.357560     1.098794     1.961526
H     -1.852852     0.324910     1.716449
H     -2.821126     1.412667     1.135968
O     -1.308863     1.084084    -2.918475
H     -0.877334     0.596674    -2.186330
H     -2.054769     0.500763    -3.101511
O      3.206515     0.353628    -1.306580
H      2.420873     0.715524    -0.930580
H      3.817413     0.545332    -0.612808
O     -1.360642    -2.838085     0.606738
H     -1.416503    -1.957719     0.217323
H     -1.726871    -2.747994     1.472142
O      1.537381    -2.218729    -1.585335
H      2.389844    -1.888690    -1.756621
H      1.246941    -1.520306    -0.997139

units ang
no_reorient
no_com
symmetry c1
}

set {
basis        aug-cc-pVTZ
scf_type     df
}

energy("mp2", bsse_type="cp")
--------------------------------------------------------------------------

                               Psi4 1.9 release
    Molecular point group: c1
  Charge       = 0
  Multiplicity = 1
  Basis Set: AUG-CC-PVTZ
    Blend: AUG-CC-PVTZ
  Basis Set: (AUG-CC-PVTZ AUX)
    Blend: AUG-CC-PVTZ-JKFIT
  @DF-RHF Final Energy:  -456.35069489857938
    Total Energy =                       -456.3506948985793770
 Dipole X            :        -14.3075797           13.8718143           -0.4357654
 Dipole Y            :         82.4265289          -81.5540732            0.8724556
 Dipole Z            :         20.3580694          -20.1922773            0.1657920
 Magnitude           :                                                    0.9892206
  Basis Set: (AUG-CC-PVTZ AUX)
    Blend: AUG-CC-PVTZ-RI
	 Reference Energy          =    -456.3506948985793770 [Eh]
	 Singles Energy            =      -0.0000000000000000 [Eh]
	 Same-Spin Energy          =      -0.4142740423438118 [Eh]
	 Opposite-Spin Energy      =      -1.3002056274624201 [Eh]
	 Correlation Energy        =      -1.7144796698062319 [Eh]
	 Total Energy              =    -458.0651745683856007 [Eh]
	 SCS Total Energy          =    -458.0490329989822271 [Eh]
                               Psi4 1.9 release
    Molecular point group: c1
  Multiplicity = 1
  Basis Set: AUG-CC-PVTZ
    Blend: AUG-CC-PVTZ
  Basis Set: (AUG-CC-PVTZ AUX)
    Blend: AUG-CC-PVTZ-JKFIT
  @DF-RHF Final Energy:  -459.57358540651239
    Total Energy =                       -459.5735854065123931
  Basis Set: (AUG-CC-PVTZ AUX)
	 Singles Energy            =      -0.0000000000000000 [Eh]
	 Same-Spin Energy          =      -0.0636270594889845 [Eh]
	 Opposite-Spin Energy      =      -0.1841094162363918 [Eh]
	 Correlation Energy        =      -0.2477364757253763 [Eh]
	 Total Energy              =    -459.8213218822377826 [Eh]
	 SCS Total Energy          =    -459.8157257258257005 [Eh]
                               Psi4 1.9 release
    Molecular point group: c1

    Geometry (in Bohr), charge = -1, multiplicity = 1:

       Center              X                  Y                   Z               Mass
    ------------   -----------------  -----------------  -----------------  -----------------
         CL           0.000000000000     0.000000000000     0.000000000000    34.968852682000
         O            2.054164423717    -3.663850144917     4.033062945583    15.994914619570
         H            2.347109767685    -2.006785210299     3.306673009944     1.007825032230
         H            1.024630292211    -4.540446851364     2.780478770310     1.007825032230
         O           -4.455142724334     2.076419728296     3.706746927965    15.994914619570
         H           -3.501382831007     0.613990915423     3.243618518316     1.007825032230
         H           -5.331155505408     2.669553736472     2.146668407284     1.007825032230
         O           -2.473392605745     2.048621856991    -5.515118453996    15.994914619570
         H           -1.657920980552     1.127550446181    -4.131564919872     1.007825032230
         H           -3.882950661081     0.946304923763    -5.861006365095     1.007825032230
         O            6.059435167172     0.668260070293    -2.469078361001    15.994914619570
         H            4.574786954515     1.352144396192    -1.758541337829     1.007825032230
         H            7.213865077762     1.030528127448    -1.158039287490     1.007825032230
         O           -2.571240734795    -5.363203370770     1.146568649908    15.994914619570
         H           -2.676802725889    -3.699552740605     0.410680950763     1.007825032230
         H           -3.263313243995    -5.192956054401     2.781945197784     1.007825032230
         O            2.905229040482    -4.192790156611    -2.995848967103    15.994914619570
         H            4.516150642569    -3.569106835891    -3.319532596228     1.007825032230
         H            2.356376984605    -2.872961966890    -1.884319619013     1.007825032230

  Charge       = -1
  Multiplicity = 1
  Basis Set: AUG-CC-PVTZ
    Blend: AUG-CC-PVTZ
  Basis Set: (AUG-CC-PVTZ AUX)
    Blend: AUG-CC-PVTZ-JKFIT

    Orbital Energies [Eh]
    ---------------------

    Doubly Occupied:

       1A   -104.597532     2A    -20.450385     3A    -20.437306
       4A    -20.435603     5A    -20.431969     6A    -20.401099
       7A    -20.393423     8A    -10.323406     9A     -7.789513
      10A     -7.789459    11A     -7.789422    12A     -1.250553
      13A     -1.231011    14A     -1.212125    15A     -1.210653
      16A     -1.197298    17A     -1.182813    18A     -0.845363
      19A     -0.601341    20A     -0.595661    21A     -0.580801
      22A     -0.565878    23A     -0.550813    24A     -0.545313
      25A     -0.487009    26A     -0.462353    27A     -0.457062
      28A     -0.449148    29A     -0.441547    30A     -0.433114
      31A     -0.396119    32A     -0.383306    33A     -0.377940
      34A     -0.374411    35A     -0.349100    36A     -0.343438
      37A     -0.257716    38A     -0.253156    39A     -0.250704

  @DF-RHF Final Energy:  -915.99452227580241

   => Energetics <=

    Nuclear Repulsion Energy =            404.9618314722886794
    One-Electron Energy =               -2085.6629779275572218
    Two-Electron Energy =                 764.7066241794661892
    Total Energy =                       -915.9945222758024101
 Dipole X            :        -14.3422374           13.8718143           -0.4704230
 Dipole Y            :         82.9214679          -81.5540732            1.3673947
 Dipole Z            :         20.5187014          -20.1922773            0.3264241
 Magnitude           :                                                    1.4824367
  Basis Set: (AUG-CC-PVTZ AUX)
    Blend: AUG-CC-PVTZ-RI
	 Reference Energy          =    -915.9945222758024101 [Eh]
	 Singles Energy            =      -0.0000000000000000 [Eh]
	 Same-Spin Energy          =      -0.4876059495156979 [Eh]
	 Opposite-Spin Energy      =      -1.4908968298193543 [Eh]
	 Correlation Energy        =      -1.9785027793350523 [Eh]
	 Total Energy              =    -917.9730250551374411 [Eh]

	 ================> DF-SCS-MP2 Energies <==================
	-----------------------------------------------------------
	 SCS Same-Spin Scale       =       0.3333333333333333 [-]
	 SCS Opposite-Spin Scale   =       1.2000000000000000 [-]
	 SCS Same-Spin Energy      =      -0.1625353165052326 [Eh]
	 SCS Opposite-Spin Energy  =      -1.7890761957832251 [Eh]
	 SCS Correlation Energy    =      -1.9516115122884576 [Eh]
	 SCS Total Energy          =    -917.9461337880908331 [Eh]
	-----------------------------------------------------------

*** Psi4 exiting successfully. Buy a developer a beer!
