                               Psi4 1.8.2 release

  ==> Input File <==

--------------------------------------------------------------------------
MEMORY 60 GB

molecule dimer {
0 1
Gh(Cl)     0.000000     0.000000     0.000000
Gh(O)     -0.173399    -2.130297    -2.421957
Gh(H)     -0.233698    -1.609613    -1.627445
Gh(H)      0.741541    -2.269770    -2.594685
Gh(O)     -1.028624     2.347533    -2.150277
Gh(H)     -1.885952     2.313957    -2.529985
Gh(H)     -0.906437     1.866831    -1.296814
Gh(O)      2.078078     0.785667     2.064740
Gh(H)      2.174484    -0.068130     2.543642
Gh(H)      1.384144     0.706821     1.444220
Gh(O)      1.955819    -2.555345     0.911533
Gh(H)      1.829860    -2.942121     1.778607
Gh(H)      1.125160    -2.719941     0.440877
Gh(O)     -1.696135    -2.267627     1.075756
Gh(H)     -1.700190    -2.290389     2.057532
Gh(H)     -1.174776    -1.505571     0.797835
O         -3.020585     0.879792     1.057446
H         -3.488907     0.101516     1.445361
H         -2.091292     0.587939     0.905517

units ang
no_reorient
no_com
symmetry c1
}

set {
basis        aug-cc-pVTZ
scf_type     df
}

energy("mp2")
--------------------------------------------------------------------------

    Molecular point group: c1

    Geometry (in Angstrom), charge = 0, multiplicity = 1:

       Center              X                  Y                   Z               Mass
    ------------   -----------------  -----------------  -----------------  -----------------
      Gh(CL)          0.000000000000     0.000000000000     0.000000000000    34.968852682000
      Gh(O)          -0.173399000000    -2.130297000000    -2.421957000000    15.994914619570
      Gh(H)          -0.233698000000    -1.609613000000    -1.627445000000     1.007825032230
      Gh(H)           0.741541000000    -2.269770000000    -2.594685000000     1.007825032230
      Gh(O)          -1.028624000000     2.347533000000    -2.150277000000    15.994914619570
      Gh(H)          -1.885952000000     2.313957000000    -2.529985000000     1.007825032230
      Gh(H)          -0.906437000000     1.866831000000    -1.296814000000     1.007825032230
      Gh(O)           2.078078000000     0.785667000000     2.064740000000    15.994914619570
      Gh(H)           2.174484000000    -0.068130000000     2.543642000000     1.007825032230
      Gh(H)           1.384144000000     0.706821000000     1.444220000000     1.007825032230
      Gh(O)           1.955819000000    -2.555345000000     0.911533000000    15.994914619570
      Gh(H)           1.829860000000    -2.942121000000     1.778607000000     1.007825032230
      Gh(H)           1.125160000000    -2.719941000000     0.440877000000     1.007825032230
      Gh(O)          -1.696135000000    -2.267627000000     1.075756000000    15.994914619570
      Gh(H)          -1.700190000000    -2.290389000000     2.057532000000     1.007825032230
      Gh(H)          -1.174776000000    -1.505571000000     0.797835000000     1.007825032230
         O           -3.020585000000     0.879792000000     1.057446000000    15.994914619570
         H           -3.488907000000     0.101516000000     1.445361000000     1.007825032230
         H           -2.091292000000     0.587939000000     0.905517000000     1.007825032230

  Charge       = 0
  Multiplicity = 1
  Basis Set: AUG-CC-PVTZ
    Blend: AUG-CC-PVTZ
  Basis Set: (AUG-CC-PVTZ AUX)
    Blend: AUG-CC-PVTZ-JKFIT

    Orbital Energies [Eh]
    ---------------------

    Doubly Occupied:

       1A    -20.571577     2A     -1.337860     3A     -0.704427
       4A     -0.576510     5A     -0.507552

  @DF-RHF Final Energy:   -76.05711581950594

   => Energetics <=

    Nuclear Repulsion Energy =              8.9164476226612379
    One-Electron Energy =                -122.5512716843049930
    Two-Electron Energy =                  37.5777082421378239
    Total Energy =                        -76.0571158195059240
 Dipole X            :         56.5126952          -56.2096749            0.3030203
 Dipole Y            :        -15.3052920           14.6034085           -0.7018834
 Dipole Z            :        -20.2740577           20.4287822            0.1547245
 Magnitude           :                                                    0.7800009
  Basis Set: (AUG-CC-PVTZ AUX)
    Blend: AUG-CC-PVTZ-RI
	 Reference Energy          =     -76.0571158195059382 [Eh]
	 Singles Energy            =      -0.0000000000000000 [Eh]
	 Same-Spin Energy          =      -0.0688857879273268 [Eh]
	 Opposite-Spin Energy      =      -0.2173807408551158 [Eh]
	 Correlation Energy        =      -0.2862665287824426 [Eh]
	 Total Energy              =     -76.3433823482883867 [Eh]

	 ================> DF-SCS-MP2 Energies <==================
	-----------------------------------------------------------
	 SCS Same-Spin Scale       =       0.3333333333333333 [-]
	 SCS Opposite-Spin Scale   =       1.2000000000000000 [-]
	 SCS Same-Spin Energy      =      -0.0229619293091089 [Eh]
	 SCS Opposite-Spin Energy  =      -0.2608568890261389 [Eh]
	 SCS Correlation Energy    =      -0.2838188183352479 [Eh]
	 SCS Total Energy          =     -76.3409346378411868 [Eh]
	-----------------------------------------------------------

*** Psi4 exiting successfully. Buy a developer a beer!
