                               Psi4 1.8.2 release

  ==> Input File <==

--------------------------------------------------------------------------
MEMORY 60 GB

molecule dimer {
-1 1
Cl         0.000000     0.000000     0.000000
Gh(O)      2.580413    -0.085154    -1.557658
Gh(H)      1.740288    -0.171482    -1.041132
Gh(H)      2.991017    -0.923894    -1.427814
Gh(O)     -2.460905    -2.327479    -0.521416
Gh(H)     -1.544293    -2.447915    -0.236860
Gh(H)     -2.917761    -3.166475    -0.428069
Gh(O)      0.510044     1.531334     2.976305
Gh(H)      0.808066     1.990027     2.164238
Gh(H)      0.061676     0.714654     2.566184
Gh(O)     -3.154292     0.989802    -0.487484
Gh(H)     -3.631637     0.174371    -0.654459
Gh(H)     -2.267810     0.655784    -0.465304
Gh(O)     -0.248988    -1.979578    -2.367955
Gh(H)      0.454594    -1.824462    -2.932228
Gh(H)     -0.066118    -1.448601    -1.593092

units ang
no_reorient
no_com
symmetry c1
}

set {
basis        aug-cc-pVTZ
scf_type     df
}

energy("mp2")
--------------------------------------------------------------------------

    Molecular point group: c1

    Geometry (in Angstrom), charge = -1, multiplicity = 1:

       Center              X                  Y                   Z               Mass
    ------------   -----------------  -----------------  -----------------  -----------------
         CL           0.000000000000     0.000000000000     0.000000000000    34.968852682000
      Gh(O)           2.580413000000    -0.085154000000    -1.557658000000    15.994914619570
      Gh(H)           1.740288000000    -0.171482000000    -1.041132000000     1.007825032230
      Gh(H)           2.991017000000    -0.923894000000    -1.427814000000     1.007825032230
      Gh(O)          -2.460905000000    -2.327479000000    -0.521416000000    15.994914619570
      Gh(H)          -1.544293000000    -2.447915000000    -0.236860000000     1.007825032230
      Gh(H)          -2.917761000000    -3.166475000000    -0.428069000000     1.007825032230
      Gh(O)           0.510044000000     1.531334000000     2.976305000000    15.994914619570
      Gh(H)           0.808066000000     1.990027000000     2.164238000000     1.007825032230
      Gh(H)           0.061676000000     0.714654000000     2.566184000000     1.007825032230
      Gh(O)          -3.154292000000     0.989802000000    -0.487484000000    15.994914619570
      Gh(H)          -3.631637000000     0.174371000000    -0.654459000000     1.007825032230
      Gh(H)          -2.267810000000     0.655784000000    -0.465304000000     1.007825032230
      Gh(O)          -0.248988000000    -1.979578000000    -2.367955000000    15.994914619570
      Gh(H)           0.454594000000    -1.824462000000    -2.932228000000     1.007825032230
      Gh(H)          -0.066118000000    -1.448601000000    -1.593092000000     1.007825032230

  Charge       = -1
  Multiplicity = 1
  Basis Set: AUG-CC-PVTZ
    Blend: AUG-CC-PVTZ
  Basis Set: (AUG-CC-PVTZ AUX)
    Blend: AUG-CC-PVTZ-JKFIT

    Orbital Energies [Eh]
    ---------------------

    Doubly Occupied:

       1A   -104.507193     2A    -10.230043     3A     -7.696131
       4A     -7.696091     5A     -7.696074     6A     -0.733469
       7A     -0.150313     8A     -0.150308     9A     -0.150302

  @DF-RHF Final Energy:  -459.57357080000867

   => Energetics <=

    Nuclear Repulsion Energy =              0.0000000000000000
    One-Electron Energy =                -641.1273074479277057
    Two-Electron Energy =                 181.5537366479190382
    Total Energy =                       -459.5735708000086674
 Dipole X            :         -0.0000069            0.0000000           -0.0000069
 Dipole Y            :          0.0000752            0.0000000            0.0000752
 Dipole Z            :         -0.0001849            0.0000000           -0.0001849
 Magnitude           :                                                    0.0001997
  Basis Set: (AUG-CC-PVTZ AUX)
    Blend: AUG-CC-PVTZ-RI
	 Reference Energy          =    -459.5735708000086674 [Eh]
	 Singles Energy            =      -0.0000000000000000 [Eh]
	 Same-Spin Energy          =      -0.0635224449066174 [Eh]
	 Opposite-Spin Energy      =      -0.1838418748840347 [Eh]
	 Correlation Energy        =      -0.2473643197906520 [Eh]
	 Total Energy              =    -459.8209351197993442 [Eh]

	 ================> DF-SCS-MP2 Energies <==================
	-----------------------------------------------------------
	 SCS Same-Spin Scale       =       0.3333333333333333 [-]
	 SCS Opposite-Spin Scale   =       1.2000000000000000 [-]
	 SCS Same-Spin Energy      =      -0.0211741483022058 [Eh]
	 SCS Opposite-Spin Energy  =      -0.2206102498608416 [Eh]
	 SCS Correlation Energy    =      -0.2417843981630474 [Eh]
	 SCS Total Energy          =    -459.8153551981716873 [Eh]
	-----------------------------------------------------------

*** Psi4 exiting successfully. Buy a developer a beer!
