                               Psi4 1.8.2 release

  ==> Input File <==

--------------------------------------------------------------------------
MEMORY 60 GB

molecule dimer {
0 1
Gh(Cl)     0.000000     0.000000     0.000000
Gh(O)      2.463279    -1.637242     1.524697
Gh(H)      2.153801    -1.174206     0.704797
Gh(H)      3.424703    -1.765351     1.439217
Gh(O)     -3.116776     0.013193     0.922660
Gh(H)     -3.430576    -0.157029     0.005481
Gh(H)     -2.173003    -0.131358     0.884899
Gh(O)     -0.255395    -0.965558     3.259253
Gh(H)      0.115940    -0.895008     2.380767
Gh(H)     -0.515949    -0.061156     3.400927
Gh(O)      0.593896     2.305977    -1.825798
Gh(H)      1.456929     2.664655    -1.817872
Gh(H)      0.413740     1.886953    -0.968415
O         -0.301908    -2.719564    -1.155955
H         -0.223765    -1.800429    -0.769036
H          0.140094    -2.598246    -2.035538
Gh(O)     -2.739786     0.110883    -1.903292
Gh(H)     -3.291889     0.616513    -2.564165
Gh(H)     -1.849346     0.283247    -1.934967

units ang
no_reorient
no_com
symmetry c1
}

set {
basis        aug-cc-pVTZ
scf_type     df
}

energy("mp2")
--------------------------------------------------------------------------

    Molecular point group: c1

    Geometry (in Angstrom), charge = 0, multiplicity = 1:

       Center              X                  Y                   Z               Mass
    ------------   -----------------  -----------------  -----------------  -----------------
      Gh(CL)          0.000000000000     0.000000000000     0.000000000000    34.968852682000
      Gh(O)           2.463279000000    -1.637242000000     1.524697000000    15.994914619570
      Gh(H)           2.153801000000    -1.174206000000     0.704797000000     1.007825032230
      Gh(H)           3.424703000000    -1.765351000000     1.439217000000     1.007825032230
      Gh(O)          -3.116776000000     0.013193000000     0.922660000000    15.994914619570
      Gh(H)          -3.430576000000    -0.157029000000     0.005481000000     1.007825032230
      Gh(H)          -2.173003000000    -0.131358000000     0.884899000000     1.007825032230
      Gh(O)          -0.255395000000    -0.965558000000     3.259253000000    15.994914619570
      Gh(H)           0.115940000000    -0.895008000000     2.380767000000     1.007825032230
      Gh(H)          -0.515949000000    -0.061156000000     3.400927000000     1.007825032230
      Gh(O)           0.593896000000     2.305977000000    -1.825798000000    15.994914619570
      Gh(H)           1.456929000000     2.664655000000    -1.817872000000     1.007825032230
      Gh(H)           0.413740000000     1.886953000000    -0.968415000000     1.007825032230
         O           -0.301908000000    -2.719564000000    -1.155955000000    15.994914619570
         H           -0.223765000000    -1.800429000000    -0.769036000000     1.007825032230
         H            0.140094000000    -2.598246000000    -2.035538000000     1.007825032230
      Gh(O)          -2.739786000000     0.110883000000    -1.903292000000    15.994914619570
      Gh(H)          -3.291889000000     0.616513000000    -2.564165000000     1.007825032230
      Gh(H)          -1.849346000000     0.283247000000    -1.934967000000     1.007825032230

  Charge       = 0
  Multiplicity = 1
  Basis Set: AUG-CC-PVTZ
    Blend: AUG-CC-PVTZ
  Basis Set: (AUG-CC-PVTZ AUX)
    Blend: AUG-CC-PVTZ-JKFIT

    Orbital Energies [Eh]
    ---------------------

    Doubly Occupied:

       1A    -20.575234     2A     -1.336543     3A     -0.691091
       4A     -0.583574     5A     -0.508291

  @DF-RHF Final Energy:   -76.05515555948519

   => Energetics <=

    Nuclear Repulsion Energy =              8.8438662127776340
    One-Electron Energy =                -122.4085724461581606
    Two-Electron Energy =                  37.5095506738953191
    Total Energy =                        -76.0551555594852005
 Dipole X            :          5.0573253           -4.7223028            0.3350225
 Dipole Y            :         50.0951552          -49.4261402            0.6690150
 Dipole Z            :         22.4572837          -22.7753837           -0.3181000
 Magnitude           :                                                    0.8130245
  Basis Set: (AUG-CC-PVTZ AUX)
    Blend: AUG-CC-PVTZ-RI
	 Reference Energy          =     -76.0551555594851862 [Eh]
	 Singles Energy            =      -0.0000000000000000 [Eh]
	 Same-Spin Energy          =      -0.0691695718023574 [Eh]
	 Opposite-Spin Energy      =      -0.2184302299716900 [Eh]
	 Correlation Energy        =      -0.2875998017740474 [Eh]
	 Total Energy              =     -76.3427553612592362 [Eh]

	 ================> DF-SCS-MP2 Energies <==================
	-----------------------------------------------------------
	 SCS Same-Spin Scale       =       0.3333333333333333 [-]
	 SCS Opposite-Spin Scale   =       1.2000000000000000 [-]
	 SCS Same-Spin Energy      =      -0.0230565239341191 [Eh]
	 SCS Opposite-Spin Energy  =      -0.2621162759660280 [Eh]
	 SCS Correlation Energy    =      -0.2851727999001471 [Eh]
	 SCS Total Energy          =     -76.3403283593853388 [Eh]
	-----------------------------------------------------------

*** Psi4 exiting successfully. Buy a developer a beer!
