                               Psi4 1.8.2 release

  ==> Input File <==

--------------------------------------------------------------------------
MEMORY 60 GB

molecule dimer {
-1 1
Cl         0.000000     0.000000     0.000000
Gh(O)     -1.229184    -2.993822     0.453137
Gh(H)     -0.418614    -3.395812     0.092820
Gh(H)     -1.013280    -2.074811     0.585463
Gh(O)     -1.235222    -1.766810    -2.572586
Gh(H)     -2.178163    -1.662201    -2.417220
Gh(H)     -0.769873    -1.718371    -1.664414
Gh(O)     -1.384432    -0.260144     2.883153
Gh(H)     -0.766609    -0.589156     3.510778
Gh(H)     -0.859119    -0.152996     2.083720
Gh(O)      1.607896     0.813395    -2.710175
Gh(H)      2.315273     1.449805    -2.414289
Gh(H)      1.015105     0.595265    -1.995542
Gh(O)      1.117807     2.673918     1.419992
Gh(H)      1.158491     1.823418     1.031762
Gh(H)      0.169419     2.693657     1.399060
Gh(O)     -2.874762     0.414810    -1.653760
Gh(H)     -2.035974     0.467676    -1.186949
Gh(H)     -3.362591    -0.291211    -1.125177

units ang
no_reorient
no_com
symmetry c1
}

set {
basis        aug-cc-pVTZ
scf_type     df
}

energy("mp2")
--------------------------------------------------------------------------

    Molecular point group: c1

    Geometry (in Angstrom), charge = -1, multiplicity = 1:

       Center              X                  Y                   Z               Mass
    ------------   -----------------  -----------------  -----------------  -----------------
         CL           0.000000000000     0.000000000000     0.000000000000    34.968852682000
      Gh(O)          -1.229184000000    -2.993822000000     0.453137000000    15.994914619570
      Gh(H)          -0.418614000000    -3.395812000000     0.092820000000     1.007825032230
      Gh(H)          -1.013280000000    -2.074811000000     0.585463000000     1.007825032230
      Gh(O)          -1.235222000000    -1.766810000000    -2.572586000000    15.994914619570
      Gh(H)          -2.178163000000    -1.662201000000    -2.417220000000     1.007825032230
      Gh(H)          -0.769873000000    -1.718371000000    -1.664414000000     1.007825032230
      Gh(O)          -1.384432000000    -0.260144000000     2.883153000000    15.994914619570
      Gh(H)          -0.766609000000    -0.589156000000     3.510778000000     1.007825032230
      Gh(H)          -0.859119000000    -0.152996000000     2.083720000000     1.007825032230
      Gh(O)           1.607896000000     0.813395000000    -2.710175000000    15.994914619570
      Gh(H)           2.315273000000     1.449805000000    -2.414289000000     1.007825032230
      Gh(H)           1.015105000000     0.595265000000    -1.995542000000     1.007825032230
      Gh(O)           1.117807000000     2.673918000000     1.419992000000    15.994914619570
      Gh(H)           1.158491000000     1.823418000000     1.031762000000     1.007825032230
      Gh(H)           0.169419000000     2.693657000000     1.399060000000     1.007825032230
      Gh(O)          -2.874762000000     0.414810000000    -1.653760000000    15.994914619570
      Gh(H)          -2.035974000000     0.467676000000    -1.186949000000     1.007825032230
      Gh(H)          -3.362591000000    -0.291211000000    -1.125177000000     1.007825032230

  Charge       = -1
  Multiplicity = 1
  Basis Set: AUG-CC-PVTZ
    Blend: AUG-CC-PVTZ
  Basis Set: (AUG-CC-PVTZ AUX)
    Blend: AUG-CC-PVTZ-JKFIT

    Orbital Energies [Eh]
    ---------------------

    Doubly Occupied:

       1A   -104.507351     2A    -10.230079     3A     -7.696164
       4A     -7.696130     5A     -7.696119     6A     -0.733458
       7A     -0.150303     8A     -0.150301     9A     -0.150295

  @DF-RHF Final Energy:  -459.57359291820978

   => Energetics <=

    Nuclear Repulsion Energy =              0.0000000000000000
    One-Electron Energy =                -641.1267977508369995
    Two-Electron Energy =                 181.5532048326271877
    Total Energy =                       -459.5735929182097834
 Dipole X            :         -0.0001977            0.0000000           -0.0001977
 Dipole Y            :         -0.0000139            0.0000000           -0.0000139
 Dipole Z            :          0.0000474            0.0000000            0.0000474
 Magnitude           :                                                    0.0002038
  Basis Set: (AUG-CC-PVTZ AUX)
    Blend: AUG-CC-PVTZ-RI
	 Reference Energy          =    -459.5735929182097834 [Eh]
	 Singles Energy            =      -0.0000000000000000 [Eh]
	 Same-Spin Energy          =      -0.0636631209516365 [Eh]
	 Opposite-Spin Energy      =      -0.1843831627843962 [Eh]
	 Correlation Energy        =      -0.2480462837360327 [Eh]
	 Total Energy              =    -459.8216392019457999 [Eh]

	 ================> DF-SCS-MP2 Energies <==================
	-----------------------------------------------------------
	 SCS Same-Spin Scale       =       0.3333333333333333 [-]
	 SCS Opposite-Spin Scale   =       1.2000000000000000 [-]
	 SCS Same-Spin Energy      =      -0.0212210403172122 [Eh]
	 SCS Opposite-Spin Energy  =      -0.2212597953412754 [Eh]
	 SCS Correlation Energy    =      -0.2424808356584876 [Eh]
	 SCS Total Energy          =    -459.8160737538682952 [Eh]
	-----------------------------------------------------------

*** Psi4 exiting successfully. Buy a developer a beer!
