                               Psi4 1.8.2 release

  ==> Input File <==

--------------------------------------------------------------------------
MEMORY 60 GB

molecule dimer {
-1 1
Cl         0.000000     0.000000     0.000000
O         -0.847666     1.123183    -2.635575
H         -0.437574     0.880472    -1.760595
H         -0.764447     2.074687    -2.698382
O         -1.923843    -1.041384     2.309194
H         -0.989393    -0.988290     2.002993
H         -1.922107    -1.234669     3.265432
O         -1.085792     2.891213     1.281354
H         -0.827850     2.048774     0.893722
H         -1.837629     3.227416     0.720403
O          2.086666    -0.280613     2.774800
H          2.485722    -0.200190     3.622985
H          2.716073     0.112459     2.212730
O         -3.218433     0.993576    -0.104983
H         -3.390588     0.720767    -1.017887
H         -2.341262     0.608606     0.113792

units ang
no_reorient
no_com
symmetry c1
}

set {
basis        aug-cc-pVTZ
scf_type     df
}

energy("mp2")
--------------------------------------------------------------------------

    Molecular point group: c1

    Geometry (in Angstrom), charge = -1, multiplicity = 1:

       Center              X                  Y                   Z               Mass
    ------------   -----------------  -----------------  -----------------  -----------------
         CL           0.000000000000     0.000000000000     0.000000000000    34.968852682000
         O           -0.847666000000     1.123183000000    -2.635575000000    15.994914619570
         H           -0.437574000000     0.880472000000    -1.760595000000     1.007825032230
         H           -0.764447000000     2.074687000000    -2.698382000000     1.007825032230
         O           -1.923843000000    -1.041384000000     2.309194000000    15.994914619570
         H           -0.989393000000    -0.988290000000     2.002993000000     1.007825032230
         H           -1.922107000000    -1.234669000000     3.265432000000     1.007825032230
         O           -1.085792000000     2.891213000000     1.281354000000    15.994914619570
         H           -0.827850000000     2.048774000000     0.893722000000     1.007825032230
         H           -1.837629000000     3.227416000000     0.720403000000     1.007825032230
         O            2.086666000000    -0.280613000000     2.774800000000    15.994914619570
         H            2.485722000000    -0.200190000000     3.622985000000     1.007825032230
         H            2.716073000000     0.112459000000     2.212730000000     1.007825032230
         O           -3.218433000000     0.993576000000    -0.104983000000    15.994914619570
         H           -3.390588000000     0.720767000000    -1.017887000000     1.007825032230
         H           -2.341262000000     0.608606000000     0.113792000000     1.007825032230

  Charge       = -1
  Multiplicity = 1
  Basis Set: AUG-CC-PVTZ
    Blend: AUG-CC-PVTZ
  Basis Set: (AUG-CC-PVTZ AUX)
    Blend: AUG-CC-PVTZ-JKFIT

    Orbital Energies [Eh]
    ---------------------

    Doubly Occupied:

       1A   -104.566290     2A    -20.450023     3A    -20.409966
       4A    -20.399380     5A    -20.397839     6A    -20.392961
       7A    -10.291835     8A     -7.757962     9A     -7.757885
      10A     -7.757835    11A     -1.251916    12A     -1.182402
      13A     -1.177549    14A     -1.173855    15A     -1.172139
      16A     -0.812804    17A     -0.611316    18A     -0.556220
      19A     -0.544309    20A     -0.541621    21A     -0.538730
      22A     -0.476446    23A     -0.419637    24A     -0.417723
      25A     -0.416170    26A     -0.414275    27A     -0.397577
      28A     -0.350852    29A     -0.346383    30A     -0.340725
      31A     -0.333648    32A     -0.223701    33A     -0.222416
      34A     -0.218988

  @DF-RHF Final Energy:  -839.90878746571559

   => Energetics <=

    Nuclear Repulsion Energy =            309.5322218000409293
    One-Electron Energy =               -1790.2352567731027193
    Two-Electron Energy =                 640.7942475073460855
    Total Energy =                       -839.9087874657155908
 Dipole X            :         91.6017468          -89.2358893            2.3658575
 Dipole Y            :        -70.0888012           69.4244409           -0.6643602
 Dipole Z            :        -68.5088100           68.6981833            0.1893732
 Magnitude           :                                                    2.4646538
  Basis Set: (AUG-CC-PVTZ AUX)
    Blend: AUG-CC-PVTZ-RI
	 Reference Energy          =    -839.9087874657155908 [Eh]
	 Singles Energy            =      -0.0000000000000000 [Eh]
	 Same-Spin Energy          =      -0.4174533895335984 [Eh]
	 Opposite-Spin Energy      =      -1.2743685362270398 [Eh]
	 Correlation Energy        =      -1.6918219257606382 [Eh]
	 Total Energy              =    -841.6006093914762687 [Eh]

	 ================> DF-SCS-MP2 Energies <==================
	-----------------------------------------------------------
	 SCS Same-Spin Scale       =       0.3333333333333333 [-]
	 SCS Opposite-Spin Scale   =       1.2000000000000000 [-]
	 SCS Same-Spin Energy      =      -0.1391511298445328 [Eh]
	 SCS Opposite-Spin Energy  =      -1.5292422434724477 [Eh]
	 SCS Correlation Energy    =      -1.6683933733169805 [Eh]
	 SCS Total Energy          =    -841.5771808390326214 [Eh]
	-----------------------------------------------------------

*** Psi4 exiting successfully. Buy a developer a beer!
