                               Psi4 1.8.2 release

  ==> Input File <==

--------------------------------------------------------------------------
MEMORY 60 GB

molecule dimer {
-1 1
Cl         0.000000     0.000000     0.000000
O          2.976125    -0.550762     0.397420
H          3.132872     0.391178     0.501278
H          2.012343    -0.588243     0.284471
O         -1.163506    -2.546937     1.446773
H         -1.325678    -2.254056     2.392364
H         -0.300251    -2.204268     1.183553
O         -0.221715    -2.704216    -1.930969
H         -1.057768    -2.253285    -1.542346
H          0.064879    -2.081925    -2.649334
O         -2.291141     1.148067    -1.830105
H         -1.493164     0.913587    -1.305973
H         -1.983377     1.515748    -2.705823
O          0.895961     1.894020     2.415542
H          0.701813     1.480611     1.545901
H          1.152438     2.807136     2.240683
O          0.316353     2.781308    -1.575780
H          0.288134     1.911789    -1.139865
H          0.658674     3.383529    -0.879089

units ang
no_reorient
no_com
symmetry c1
}

set {
basis        aug-cc-pVTZ
scf_type     df
}

energy("mp2")
--------------------------------------------------------------------------

    Molecular point group: c1

    Geometry (in Angstrom), charge = -1, multiplicity = 1:

       Center              X                  Y                   Z               Mass
    ------------   -----------------  -----------------  -----------------  -----------------
         CL           0.000000000000     0.000000000000     0.000000000000    34.968852682000
         O            2.976125000000    -0.550762000000     0.397420000000    15.994914619570
         H            3.132872000000     0.391178000000     0.501278000000     1.007825032230
         H            2.012343000000    -0.588243000000     0.284471000000     1.007825032230
         O           -1.163506000000    -2.546937000000     1.446773000000    15.994914619570
         H           -1.325678000000    -2.254056000000     2.392364000000     1.007825032230
         H           -0.300251000000    -2.204268000000     1.183553000000     1.007825032230
         O           -0.221715000000    -2.704216000000    -1.930969000000    15.994914619570
         H           -1.057768000000    -2.253285000000    -1.542346000000     1.007825032230
         H            0.064879000000    -2.081925000000    -2.649334000000     1.007825032230
         O           -2.291141000000     1.148067000000    -1.830105000000    15.994914619570
         H           -1.493164000000     0.913587000000    -1.305973000000     1.007825032230
         H           -1.983377000000     1.515748000000    -2.705823000000     1.007825032230
         O            0.895961000000     1.894020000000     2.415542000000    15.994914619570
         H            0.701813000000     1.480611000000     1.545901000000     1.007825032230
         H            1.152438000000     2.807136000000     2.240683000000     1.007825032230
         O            0.316353000000     2.781308000000    -1.575780000000    15.994914619570
         H            0.288134000000     1.911789000000    -1.139865000000     1.007825032230
         H            0.658674000000     3.383529000000    -0.879089000000     1.007825032230

  Charge       = -1
  Multiplicity = 1
  Basis Set: AUG-CC-PVTZ
    Blend: AUG-CC-PVTZ
  Basis Set: (AUG-CC-PVTZ AUX)
    Blend: AUG-CC-PVTZ-JKFIT

    Orbital Energies [Eh]
    ---------------------

    Doubly Occupied:

       1A   -104.600532     2A    -20.436149     3A    -20.435913
       4A    -20.433775     5A    -20.427248     6A    -20.414828
       7A    -20.407951     8A    -10.326995     9A     -7.793102
      10A     -7.793016    11A     -7.792926    12A     -1.214134
      13A     -1.212460    14A     -1.197393    15A     -1.194964
      16A     -1.190428    17A     -1.182991    18A     -0.853528
      19A     -0.583352    20A     -0.580307    21A     -0.568711
      22A     -0.558323    23A     -0.552798    24A     -0.549547
      25A     -0.459256    26A     -0.447939    27A     -0.440858
      28A     -0.439671    29A     -0.436192    30A     -0.425448
      31A     -0.380680    32A     -0.377061    33A     -0.370962
      34A     -0.368543    35A     -0.354717    36A     -0.352911
      37A     -0.262276    38A     -0.257768    39A     -0.254012

  @DF-RHF Final Energy:  -915.97180213644947

   => Energetics <=

    Nuclear Repulsion Energy =            402.8517211458954534
    One-Electron Energy =               -2081.7877050054162282
    Two-Electron Energy =                 762.9641817230713059
    Total Energy =                       -915.9718021364494689
 Dipole X            :        -10.9956475           11.2392047            0.2435572
 Dipole Y            :         -4.5717623            6.0351068            1.4633445
 Dipole Z            :         20.3746351          -20.2033115            0.1713237
 Magnitude           :                                                    1.4933349
  Basis Set: (AUG-CC-PVTZ AUX)
    Blend: AUG-CC-PVTZ-RI
	 Reference Energy          =    -915.9718021364494689 [Eh]
	 Singles Energy            =      -0.0000000000000000 [Eh]
	 Same-Spin Energy          =      -0.4908193863499000 [Eh]
	 Opposite-Spin Energy      =      -1.4993423503418788 [Eh]
	 Correlation Energy        =      -1.9901617366917788 [Eh]
	 Total Energy              =    -917.9619638731412579 [Eh]

	 ================> DF-SCS-MP2 Energies <==================
	-----------------------------------------------------------
	 SCS Same-Spin Scale       =       0.3333333333333333 [-]
	 SCS Opposite-Spin Scale   =       1.2000000000000000 [-]
	 SCS Same-Spin Energy      =      -0.1636064621166333 [Eh]
	 SCS Opposite-Spin Energy  =      -1.7992108204102546 [Eh]
	 SCS Correlation Energy    =      -1.9628172825268879 [Eh]
	 SCS Total Energy          =    -917.9346194189763537 [Eh]
	-----------------------------------------------------------

*** Psi4 exiting successfully. Buy a developer a beer!
