                               Psi4 1.8.2 release

  ==> Input File <==

--------------------------------------------------------------------------
MEMORY 60 GB

molecule dimer {
-1 1
Cl         0.000000     0.000000     0.000000
O         -2.666239    -1.301881    -1.054630
H         -2.570208    -2.255430    -1.078506
H         -1.746081    -0.991791    -0.817387
O          2.937235     1.235636     1.266441
H          2.072901     1.332314     0.901382
H          3.468418     0.879650     0.560004
O          1.295345    -2.245929    -1.956363
H          1.158236    -1.580727    -1.284266
H          2.249821    -2.129765    -2.294281
O         -0.958484     0.502465     3.280993
H         -0.809748     0.779828     2.366636
H         -1.182722     1.362005     3.722428
O          0.241628     0.646788    -3.126455
H         -0.264673    -0.011637    -3.659669
H          0.068030     0.453437    -2.210305
O         -0.360914    -2.944825     1.314556
H         -0.173939    -2.033118     1.069273
H         -0.850519    -2.681567     2.112550

units ang
no_reorient
no_com
symmetry c1
}

set {
basis        aug-cc-pVTZ
scf_type     df
}

energy("mp2")
--------------------------------------------------------------------------

    Molecular point group: c1

    Geometry (in Angstrom), charge = -1, multiplicity = 1:

       Center              X                  Y                   Z               Mass
    ------------   -----------------  -----------------  -----------------  -----------------
         CL           0.000000000000     0.000000000000     0.000000000000    34.968852682000
         O           -2.666239000000    -1.301881000000    -1.054630000000    15.994914619570
         H           -2.570208000000    -2.255430000000    -1.078506000000     1.007825032230
         H           -1.746081000000    -0.991791000000    -0.817387000000     1.007825032230
         O            2.937235000000     1.235636000000     1.266441000000    15.994914619570
         H            2.072901000000     1.332314000000     0.901382000000     1.007825032230
         H            3.468418000000     0.879650000000     0.560004000000     1.007825032230
         O            1.295345000000    -2.245929000000    -1.956363000000    15.994914619570
         H            1.158236000000    -1.580727000000    -1.284266000000     1.007825032230
         H            2.249821000000    -2.129765000000    -2.294281000000     1.007825032230
         O           -0.958484000000     0.502465000000     3.280993000000    15.994914619570
         H           -0.809748000000     0.779828000000     2.366636000000     1.007825032230
         H           -1.182722000000     1.362005000000     3.722428000000     1.007825032230
         O            0.241628000000     0.646788000000    -3.126455000000    15.994914619570
         H           -0.264673000000    -0.011637000000    -3.659669000000     1.007825032230
         H            0.068030000000     0.453437000000    -2.210305000000     1.007825032230
         O           -0.360914000000    -2.944825000000     1.314556000000    15.994914619570
         H           -0.173939000000    -2.033118000000     1.069273000000     1.007825032230
         H           -0.850519000000    -2.681567000000     2.112550000000     1.007825032230

  Charge       = -1
  Multiplicity = 1
  Basis Set: AUG-CC-PVTZ
    Blend: AUG-CC-PVTZ
  Basis Set: (AUG-CC-PVTZ AUX)
    Blend: AUG-CC-PVTZ-JKFIT

    Orbital Energies [Eh]
    ---------------------

    Doubly Occupied:

       1A   -104.605958     2A    -20.448694     3A    -20.434765
       4A    -20.427582     5A    -20.417770     6A    -20.414042
       7A    -20.409061     8A    -10.331778     9A     -7.797890
      10A     -7.797851    11A     -7.797809    12A     -1.228837
      13A     -1.221973    14A     -1.204909    15A     -1.198069
      16A     -1.194453    17A     -1.186773    18A     -0.854543
      19A     -0.596130    20A     -0.579292    21A     -0.569057
      22A     -0.565553    23A     -0.548531    24A     -0.538378
      25A     -0.466340    26A     -0.459948    27A     -0.457589
      28A     -0.437338    29A     -0.433542    30A     -0.431485
      31A     -0.387774    32A     -0.383187    33A     -0.373230
      34A     -0.362716    35A     -0.353595    36A     -0.351092
      37A     -0.265168    38A     -0.262773    39A     -0.260644

  @DF-RHF Final Energy:  -915.99063811230235

   => Energetics <=

    Nuclear Repulsion Energy =            396.4373283205575831
    One-Electron Energy =               -2068.7436977993725122
    Two-Electron Energy =                 756.3157313665126367
    Total Energy =                       -915.9906381123023493
 Dipole X            :         -9.7412434           10.0686195            0.3273761
 Dipole Y            :         76.3286263          -75.0953900            1.2332363
 Dipole Z            :          5.5113174           -5.3211003            0.1902171
 Magnitude           :                                                    1.2900501
  Basis Set: (AUG-CC-PVTZ AUX)
    Blend: AUG-CC-PVTZ-RI
	 Reference Energy          =    -915.9906381123023493 [Eh]
	 Singles Energy            =      -0.0000000000000000 [Eh]
	 Same-Spin Energy          =      -0.4879281029972030 [Eh]
	 Opposite-Spin Energy      =      -1.4941046436030903 [Eh]
	 Correlation Energy        =      -1.9820327466002934 [Eh]
	 Total Energy              =    -917.9726708589026885 [Eh]

	 ================> DF-SCS-MP2 Energies <==================
	-----------------------------------------------------------
	 SCS Same-Spin Scale       =       0.3333333333333333 [-]
	 SCS Opposite-Spin Scale   =       1.2000000000000000 [-]
	 SCS Same-Spin Energy      =      -0.1626427009990677 [Eh]
	 SCS Opposite-Spin Energy  =      -1.7929255723237083 [Eh]
	 SCS Correlation Energy    =      -1.9555682733227759 [Eh]
	 SCS Total Energy          =    -917.9462063856251461 [Eh]
	-----------------------------------------------------------

*** Psi4 exiting successfully. Buy a developer a beer!
