                               Psi4 1.8.2 release

  ==> Input File <==

--------------------------------------------------------------------------
MEMORY 60 GB

molecule dimer {
-1 1
Cl         0.000000     0.000000     0.000000
Gh(O)      2.766194    -0.990872     1.334512
Gh(H)      3.039003    -1.669598     0.704789
Gh(H)      1.972907    -0.601045     0.984498
Gh(O)      1.954164    -2.033443    -1.248793
Gh(H)      2.754129    -1.997806    -1.786639
Gh(H)      1.469395    -1.174972    -1.109340
Gh(O)      0.724065     0.495149     3.233155
Gh(H)      0.262707     0.210693     2.462424
Gh(H)      1.506162    -0.008643     3.265816
Gh(O)     -2.376968     0.795770    -2.094079
Gh(H)     -2.494931     0.396759    -1.199738
Gh(H)     -2.033227     1.702484    -1.954161
Gh(O)     -1.121666    -3.050928     0.529231
Gh(H)     -0.453203    -2.425550     0.260200
Gh(H)     -1.712015    -3.186147    -0.206178

units ang
no_reorient
no_com
symmetry c1
}

set {
basis        aug-cc-pVTZ
scf_type     df
}

energy("mp2")
--------------------------------------------------------------------------

    Molecular point group: c1

    Geometry (in Angstrom), charge = -1, multiplicity = 1:

       Center              X                  Y                   Z               Mass
    ------------   -----------------  -----------------  -----------------  -----------------
         CL           0.000000000000     0.000000000000     0.000000000000    34.968852682000
      Gh(O)           2.766194000000    -0.990872000000     1.334512000000    15.994914619570
      Gh(H)           3.039003000000    -1.669598000000     0.704789000000     1.007825032230
      Gh(H)           1.972907000000    -0.601045000000     0.984498000000     1.007825032230
      Gh(O)           1.954164000000    -2.033443000000    -1.248793000000    15.994914619570
      Gh(H)           2.754129000000    -1.997806000000    -1.786639000000     1.007825032230
      Gh(H)           1.469395000000    -1.174972000000    -1.109340000000     1.007825032230
      Gh(O)           0.724065000000     0.495149000000     3.233155000000    15.994914619570
      Gh(H)           0.262707000000     0.210693000000     2.462424000000     1.007825032230
      Gh(H)           1.506162000000    -0.008643000000     3.265816000000     1.007825032230
      Gh(O)          -2.376968000000     0.795770000000    -2.094079000000    15.994914619570
      Gh(H)          -2.494931000000     0.396759000000    -1.199738000000     1.007825032230
      Gh(H)          -2.033227000000     1.702484000000    -1.954161000000     1.007825032230
      Gh(O)          -1.121666000000    -3.050928000000     0.529231000000    15.994914619570
      Gh(H)          -0.453203000000    -2.425550000000     0.260200000000     1.007825032230
      Gh(H)          -1.712015000000    -3.186147000000    -0.206178000000     1.007825032230

  Charge       = -1
  Multiplicity = 1
  Basis Set: AUG-CC-PVTZ
    Blend: AUG-CC-PVTZ
  Basis Set: (AUG-CC-PVTZ AUX)
    Blend: AUG-CC-PVTZ-JKFIT

    Orbital Energies [Eh]
    ---------------------

    Doubly Occupied:

       1A   -104.507139     2A    -10.230030     3A     -7.696106
       4A     -7.696081     5A     -7.696071     6A     -0.733470
       7A     -0.150314     8A     -0.150308     9A     -0.150305

  @DF-RHF Final Energy:  -459.57356891792955

   => Energetics <=

    Nuclear Repulsion Energy =              0.0000000000000000
    One-Electron Energy =                -641.1275030788079903
    Two-Electron Energy =                 181.5539341608784127
    Total Energy =                       -459.5735689179296060
 Dipole X            :          0.0001970            0.0000000            0.0001970
 Dipole Y            :         -0.0001979            0.0000000           -0.0001979
 Dipole Z            :          0.0000544            0.0000000            0.0000544
 Magnitude           :                                                    0.0002845
  Basis Set: (AUG-CC-PVTZ AUX)
    Blend: AUG-CC-PVTZ-RI
	 Reference Energy          =    -459.5735689179295491 [Eh]
	 Singles Energy            =      -0.0000000000000000 [Eh]
	 Same-Spin Energy          =      -0.0634250198435379 [Eh]
	 Opposite-Spin Energy      =      -0.1833503422898783 [Eh]
	 Correlation Energy        =      -0.2467753621334162 [Eh]
	 Total Energy              =    -459.8203442800629546 [Eh]

	 ================> DF-SCS-MP2 Energies <==================
	-----------------------------------------------------------
	 SCS Same-Spin Scale       =       0.3333333333333333 [-]
	 SCS Opposite-Spin Scale   =       1.2000000000000000 [-]
	 SCS Same-Spin Energy      =      -0.0211416732811793 [Eh]
	 SCS Opposite-Spin Energy  =      -0.2200204107478539 [Eh]
	 SCS Correlation Energy    =      -0.2411620840290332 [Eh]
	 SCS Total Energy          =    -459.8147310019585916 [Eh]
	-----------------------------------------------------------

*** Psi4 exiting successfully. Buy a developer a beer!
