                               Psi4 1.9 release

  ==> Input File <==

--------------------------------------------------------------------------
MEMORY 60 GB

molecule dimer {
-1 1
Cl     0.000000     0.000000     0.000000
--
0 1
O      1.204895    -0.292806     3.103745
H      0.858812    -0.438415     2.264549
H      0.985701    -1.004115     3.659773
O      0.789525    -2.891032     1.505917
H     -0.080665    -2.757418     1.853570
H      0.819466    -2.343279     0.748618
O     -0.872242     2.463895     1.602122
H     -1.313491     2.263765     2.460438
H     -0.729683     1.568483     1.276229
O      1.378925     2.839395    -1.431688
H      2.181119     3.120693    -1.891219
H      1.599881     2.296982    -0.701732
O     -0.356147    -2.668445    -1.634404
H      0.502565    -3.070606    -1.479224
H     -0.391807    -1.750591    -1.299217
O     -0.586778     0.539437    -3.392799
H     -0.357652     0.715562    -2.504387
H     -1.194776    -0.217509    -3.459535
O     -2.873076    -0.935610     0.706102
H     -2.054198    -0.673415     0.344225
H     -3.477967    -0.300884     1.099128

units ang
no_reorient
no_com
symmetry c1
}

set {
basis        aug-cc-pVTZ
scf_type     df
}

energy("mp2", bsse_type="cp")
--------------------------------------------------------------------------

                               Psi4 1.9 release
    Molecular point group: c1
  Charge       = 0
  Multiplicity = 1
  Basis Set: AUG-CC-PVTZ
    Blend: AUG-CC-PVTZ
  Basis Set: (AUG-CC-PVTZ AUX)
    Blend: AUG-CC-PVTZ-JKFIT
  @DF-RHF Final Energy:  -532.39807941918627
    Total Energy =                       -532.3980794191862742
 Dipole X            :         24.8657738          -24.8912439           -0.0254701
 Dipole Y            :         18.6920844          -19.1846414           -0.4925569
 Dipole Z            :        -10.4664614           11.4199476            0.9534862
 Magnitude           :                                                    1.0734975
  Basis Set: (AUG-CC-PVTZ AUX)
    Blend: AUG-CC-PVTZ-RI
	 Reference Energy          =    -532.3980794191862742 [Eh]
	 Singles Energy            =      -0.0000000000000000 [Eh]
	 Same-Spin Energy          =      -0.4812585096403488 [Eh]
	 Opposite-Spin Energy      =      -1.5119954554566657 [Eh]
	 Correlation Energy        =      -1.9932539650970145 [Eh]
	 Total Energy              =    -534.3913333842832571 [Eh]
	 SCS Total Energy          =    -534.3728934689477228 [Eh]
                               Psi4 1.9 release
    Molecular point group: c1
  Multiplicity = 1
  Basis Set: AUG-CC-PVTZ
    Blend: AUG-CC-PVTZ
  Basis Set: (AUG-CC-PVTZ AUX)
    Blend: AUG-CC-PVTZ-JKFIT
  @DF-RHF Final Energy:  -459.57360054919178
    Total Energy =                       -459.5736005491917808
  Basis Set: (AUG-CC-PVTZ AUX)
	 Singles Energy            =      -0.0000000000000000 [Eh]
	 Same-Spin Energy          =      -0.0638564260322132 [Eh]
	 Opposite-Spin Energy      =      -0.1851270316534945 [Eh]
	 Correlation Energy        =      -0.2489834576857078 [Eh]
	 Total Energy              =    -459.8225840068774914 [Eh]
	 SCS Total Energy          =    -459.8170384625200313 [Eh]
                               Psi4 1.9 release
    Molecular point group: c1

    Geometry (in Bohr), charge = -1, multiplicity = 1:

       Center              X                  Y                   Z               Mass
    ------------   -----------------  -----------------  -----------------  -----------------
         CL           0.000000000000     0.000000000000     0.000000000000    34.968852682000
         O            2.276921559934    -0.553323147891     5.865228013259    15.994914619570
         H            1.622919473257    -0.828484279293     4.279377407679     1.007825032230
         H            1.862704931590    -1.897502348464     6.915968651345     1.007825032230
         O            1.491986019202    -5.463258699935     2.845770697671    15.994914619570
         H           -0.152434757910    -5.210764833408     3.502739654365     1.007825032230
         H            1.548566309124    -4.428155545537     1.414682992588     1.007825032230
         O           -1.648298495122     4.656086751885     3.027571799571    15.994914619570
         H           -2.482138258254     4.277895862397     4.649553968669     1.007825032230
         H           -1.378901028402     2.964003302436     2.411723283367     1.007825032230
         O            2.605790597547     5.365678911994    -2.705498217104    15.994914619570
         H            4.121717557032     5.897255091633    -3.573885953262     1.007825032230
         H            3.023336923324     4.340666895106    -1.326081293470     1.007825032230
         O           -0.673020290403    -5.042630230847    -3.088575938353    15.994914619570
         H            0.949710210241    -5.802604379188    -2.795328238204     1.007825032230
         H           -0.740407924037    -3.308137547691    -2.455164307539     1.007825032230
         O           -1.108849716444     1.019388191939    -6.411460908727    15.994914619570
         H           -0.675864328222     1.352216205785    -4.732605542157     1.007825032230
         H           -2.257799421270    -0.411032439822    -6.537573671436     1.007825032230
         O           -5.429326777626    -1.768046660240     1.334339396638    15.994914619570
         H           -3.881871627463    -1.272569918775     0.650490975536     1.007825032230
         H           -6.572405103380    -0.568588355532     2.077050896822     1.007825032230

  Charge       = -1
  Multiplicity = 1
  Basis Set: AUG-CC-PVTZ
    Blend: AUG-CC-PVTZ
  Basis Set: (AUG-CC-PVTZ AUX)
    Blend: AUG-CC-PVTZ-JKFIT

    Orbital Energies [Eh]
    ---------------------

    Doubly Occupied:

       1A   -104.610121     2A    -20.436190     3A    -20.435133
       4A    -20.422209     5A    -20.420455     6A    -20.418535
       7A    -20.418402     8A    -20.418122     9A    -10.336392
      10A     -7.802512    11A     -7.802445    12A     -7.802398
      13A     -1.238338    14A     -1.229961    15A     -1.225904
      16A     -1.212420    17A     -1.207525    18A     -1.204223
      19A     -1.198463    20A     -0.862181    21A     -0.620132
      22A     -0.611719    23A     -0.604448    24A     -0.601585
      25A     -0.589604    26A     -0.587659    27A     -0.552959
      28A     -0.468655    29A     -0.450973    30A     -0.448527
      31A     -0.445205    32A     -0.435510    33A     -0.432660
      34A     -0.423222    35A     -0.390680    36A     -0.382861
      37A     -0.374386    38A     -0.371825    39A     -0.369211
      40A     -0.363303    41A     -0.360349    42A     -0.270764
      43A     -0.268127    44A     -0.267539

  @DF-RHF Final Energy:  -992.05162779222064

   => Energetics <=

    Nuclear Repulsion Energy =            506.8410707315826471
    One-Electron Energy =               -2394.9977207415927296
    Two-Electron Energy =                 896.1050222177893829
    Total Energy =                       -992.0516277922206427
 Dipole X            :         25.2228875          -24.8912439            0.3316437
 Dipole Y            :         19.0027147          -19.1846414           -0.1819267
 Dipole Z            :        -10.6597347           11.4199476            0.7602129
 Magnitude           :                                                    0.8491222
  Basis Set: (AUG-CC-PVTZ AUX)
    Blend: AUG-CC-PVTZ-RI
	 Reference Energy          =    -992.0516277922206427 [Eh]
	 Singles Energy            =      -0.0000000000000000 [Eh]
	 Same-Spin Energy          =      -0.5563076411373628 [Eh]
	 Opposite-Spin Energy      =      -1.7052097983149730 [Eh]
	 Correlation Energy        =      -2.2615174394523359 [Eh]
	 Total Energy              =    -994.3131452316729337 [Eh]

	 ================> DF-SCS-MP2 Energies <==================
	-----------------------------------------------------------
	 SCS Same-Spin Scale       =       0.3333333333333333 [-]
	 SCS Opposite-Spin Scale   =       1.2000000000000000 [-]
	 SCS Same-Spin Energy      =      -0.1854358803791209 [Eh]
	 SCS Opposite-Spin Energy  =      -2.0462517579779673 [Eh]
	 SCS Correlation Energy    =      -2.2316876383570881 [Eh]
	 SCS Total Energy          =    -994.2833154305777725 [Eh]
	-----------------------------------------------------------

*** Psi4 exiting successfully. Buy a developer a beer!
