                               Psi4 1.8.2 release

  ==> Input File <==

--------------------------------------------------------------------------
MEMORY 60 GB

molecule dimer {
0 1
Gh(Cl)     0.000000     0.000000     0.000000
Gh(O)      1.843131    -2.928078     0.028869
Gh(H)      1.734144    -3.339101    -0.815892
Gh(H)      1.476043    -2.034862    -0.124140
Gh(O)     -0.739325     0.185713     3.270818
Gh(H)     -0.593132     0.273354     2.341271
Gh(H)     -1.651095     0.407133     3.553063
O          3.026441     0.116813     0.654019
H          3.740367    -0.459401     0.917951
H          2.256261    -0.016604     1.231702
Gh(O)     -3.062313     1.140314    -0.135008
Gh(H)     -3.441508     1.597141     0.629278
Gh(H)     -2.174978     0.899555     0.162993
Gh(O)      0.894047     2.914112    -0.227527
Gh(H)      1.684458     3.103862     0.278795
Gh(H)      0.585305     2.078635     0.100756

units ang
no_reorient
no_com
symmetry c1
}

set {
basis        aug-cc-pVTZ
scf_type     df
}

energy("mp2")
--------------------------------------------------------------------------

    Molecular point group: c1

    Geometry (in Angstrom), charge = 0, multiplicity = 1:

       Center              X                  Y                   Z               Mass
    ------------   -----------------  -----------------  -----------------  -----------------
      Gh(CL)          0.000000000000     0.000000000000     0.000000000000    34.968852682000
      Gh(O)           1.843131000000    -2.928078000000     0.028869000000    15.994914619570
      Gh(H)           1.734144000000    -3.339101000000    -0.815892000000     1.007825032230
      Gh(H)           1.476043000000    -2.034862000000    -0.124140000000     1.007825032230
      Gh(O)          -0.739325000000     0.185713000000     3.270818000000    15.994914619570
      Gh(H)          -0.593132000000     0.273354000000     2.341271000000     1.007825032230
      Gh(H)          -1.651095000000     0.407133000000     3.553063000000     1.007825032230
         O            3.026441000000     0.116813000000     0.654019000000    15.994914619570
         H            3.740367000000    -0.459401000000     0.917951000000     1.007825032230
         H            2.256261000000    -0.016604000000     1.231702000000     1.007825032230
      Gh(O)          -3.062313000000     1.140314000000    -0.135008000000    15.994914619570
      Gh(H)          -3.441508000000     1.597141000000     0.629278000000     1.007825032230
      Gh(H)          -2.174978000000     0.899555000000     0.162993000000     1.007825032230
      Gh(O)           0.894047000000     2.914112000000    -0.227527000000    15.994914619570
      Gh(H)           1.684458000000     3.103862000000     0.278795000000     1.007825032230
      Gh(H)           0.585305000000     2.078635000000     0.100756000000     1.007825032230

  Charge       = 0
  Multiplicity = 1
  Basis Set: AUG-CC-PVTZ
    Blend: AUG-CC-PVTZ
  Basis Set: (AUG-CC-PVTZ AUX)
    Blend: AUG-CC-PVTZ-JKFIT

    Orbital Energies [Eh]
    ---------------------

    Doubly Occupied:

       1A    -20.565561     2A     -1.346559     3A     -0.725003
       4A     -0.572687     5A     -0.508118

  @DF-RHF Final Energy:   -76.05953396500985

   => Energetics <=

    Nuclear Repulsion Energy =              9.1249333654195386
    One-Electron Energy =                -122.9330753141611865
    Two-Electron Energy =                  37.7486079837318016
    Total Energy =                        -76.0595339650098481
 Dipole X            :        -57.1207970           57.0851416           -0.0356554
 Dipole Y            :         -1.3457970            0.8664375           -0.4793595
 Dipole Z            :        -13.3821323           13.9495898            0.5674575
 Magnitude           :                                                    0.7436833
  Basis Set: (AUG-CC-PVTZ AUX)
    Blend: AUG-CC-PVTZ-RI
	 Reference Energy          =     -76.0595339650098481 [Eh]
	 Singles Energy            =      -0.0000000000000000 [Eh]
	 Same-Spin Energy          =      -0.0684196370191767 [Eh]
	 Opposite-Spin Energy      =      -0.2157426520548031 [Eh]
	 Correlation Energy        =      -0.2841622890739798 [Eh]
	 Total Energy              =     -76.3436962540838238 [Eh]

	 ================> DF-SCS-MP2 Energies <==================
	-----------------------------------------------------------
	 SCS Same-Spin Scale       =       0.3333333333333333 [-]
	 SCS Opposite-Spin Scale   =       1.2000000000000000 [-]
	 SCS Same-Spin Energy      =      -0.0228065456730589 [Eh]
	 SCS Opposite-Spin Energy  =      -0.2588911824657638 [Eh]
	 SCS Correlation Energy    =      -0.2816977281388227 [Eh]
	 SCS Total Energy          =     -76.3412316931486714 [Eh]
	-----------------------------------------------------------

*** Psi4 exiting successfully. Buy a developer a beer!
