                               Psi4 1.8.2 release

  ==> Input File <==

--------------------------------------------------------------------------
MEMORY 60 GB

molecule dimer {
0 1
Gh(Cl)     0.000000     0.000000     0.000000
Gh(O)     -1.652811    -1.435957     2.395903
Gh(H)     -1.528767    -2.339541     2.643559
Gh(H)     -1.043488    -1.261638     1.661966
Gh(O)      2.190527    -2.113525     1.676719
Gh(H)      3.042459    -1.604979     1.864963
Gh(H)      2.252391    -2.309383     0.719254
Gh(O)     -1.852063     2.109778     1.864448
Gh(H)     -1.394061     2.041390     2.691589
Gh(H)     -1.471182     1.475343     1.236059
O         -2.723100     0.051082    -1.912710
H         -3.515131     0.614816    -1.963275
H         -2.101677     0.471886    -1.368991
Gh(O)     -0.158646     3.092762    -0.275158
Gh(H)     -0.735780     3.182659    -1.002850
Gh(H)     -0.140681     2.112324    -0.117622

units ang
no_reorient
no_com
symmetry c1
}

set {
basis        aug-cc-pVTZ
scf_type     df
}

energy("mp2")
--------------------------------------------------------------------------

    Molecular point group: c1

    Geometry (in Angstrom), charge = 0, multiplicity = 1:

       Center              X                  Y                   Z               Mass
    ------------   -----------------  -----------------  -----------------  -----------------
      Gh(CL)          0.000000000000     0.000000000000     0.000000000000    34.968852682000
      Gh(O)          -1.652811000000    -1.435957000000     2.395903000000    15.994914619570
      Gh(H)          -1.528767000000    -2.339541000000     2.643559000000     1.007825032230
      Gh(H)          -1.043488000000    -1.261638000000     1.661966000000     1.007825032230
      Gh(O)           2.190527000000    -2.113525000000     1.676719000000    15.994914619570
      Gh(H)           3.042459000000    -1.604979000000     1.864963000000     1.007825032230
      Gh(H)           2.252391000000    -2.309383000000     0.719254000000     1.007825032230
      Gh(O)          -1.852063000000     2.109778000000     1.864448000000    15.994914619570
      Gh(H)          -1.394061000000     2.041390000000     2.691589000000     1.007825032230
      Gh(H)          -1.471182000000     1.475343000000     1.236059000000     1.007825032230
         O           -2.723100000000     0.051082000000    -1.912710000000    15.994914619570
         H           -3.515131000000     0.614816000000    -1.963275000000     1.007825032230
         H           -2.101677000000     0.471886000000    -1.368991000000     1.007825032230
      Gh(O)          -0.158646000000     3.092762000000    -0.275158000000    15.994914619570
      Gh(H)          -0.735780000000     3.182659000000    -1.002850000000     1.007825032230
      Gh(H)          -0.140681000000     2.112324000000    -0.117622000000     1.007825032230

  Charge       = 0
  Multiplicity = 1
  Basis Set: AUG-CC-PVTZ
    Blend: AUG-CC-PVTZ
  Basis Set: (AUG-CC-PVTZ AUX)
    Blend: AUG-CC-PVTZ-JKFIT

    Orbital Energies [Eh]
    ---------------------

    Doubly Occupied:

       1A    -20.564090     2A     -1.355131     3A     -0.729048
       4A     -0.578798     5A     -0.509896

  @DF-RHF Final Energy:   -76.05979552343088

   => Energetics <=

    Nuclear Repulsion Energy =              9.2603785245734329
    One-Electron Energy =                -123.1664190471138340
    Two-Electron Energy =                  37.8462449991095156
    Total Energy =                        -76.0597955234308785
 Dipole X            :         51.6731282          -51.7815345           -0.1084063
 Dipole Y            :         -2.1602851            2.8258171            0.6655320
 Dipole Z            :         35.5495056          -35.2130546            0.3364510
 Magnitude           :                                                    0.7535808
  Basis Set: (AUG-CC-PVTZ AUX)
    Blend: AUG-CC-PVTZ-RI
	 Reference Energy          =     -76.0597955234308785 [Eh]
	 Singles Energy            =      -0.0000000000000000 [Eh]
	 Same-Spin Energy          =      -0.0681986960971731 [Eh]
	 Opposite-Spin Energy      =      -0.2151620566762157 [Eh]
	 Correlation Energy        =      -0.2833607527733888 [Eh]
	 Total Energy              =     -76.3431562762042688 [Eh]

	 ================> DF-SCS-MP2 Energies <==================
	-----------------------------------------------------------
	 SCS Same-Spin Scale       =       0.3333333333333333 [-]
	 SCS Opposite-Spin Scale   =       1.2000000000000000 [-]
	 SCS Same-Spin Energy      =      -0.0227328986990577 [Eh]
	 SCS Opposite-Spin Energy  =      -0.2581944680114588 [Eh]
	 SCS Correlation Energy    =      -0.2809273667105165 [Eh]
	 SCS Total Energy          =     -76.3407228901413930 [Eh]
	-----------------------------------------------------------

*** Psi4 exiting successfully. Buy a developer a beer!
