                               Psi4 1.8.2 release

  ==> Input File <==

--------------------------------------------------------------------------
MEMORY 60 GB

molecule dimer {
0 1
Gh(Cl)     0.000000     0.000000     0.000000
O         -2.199916    -1.571015     1.467295
H         -1.882318    -2.506238     1.325476
H         -1.614150    -0.972649     0.951732
Gh(O)      0.797188    -2.893542     1.082174
Gh(H)      0.638924    -1.985322     0.894663
Gh(H)      1.422652    -3.264080     0.452093
Gh(O)     -2.721750     0.879998    -1.804564
Gh(H)     -2.687678     0.053166    -2.351965
Gh(H)     -2.079379     0.700004    -1.079329
Gh(O)     -0.897884    -1.728912    -2.615415
Gh(H)     -0.741817    -1.169751    -1.853770
Gh(H)     -0.428522    -2.544201    -2.358736

units ang
no_reorient
no_com
symmetry c1
}

set {
basis        aug-cc-pVTZ
scf_type     df
}

energy("mp2")
--------------------------------------------------------------------------

    Molecular point group: c1

    Geometry (in Angstrom), charge = 0, multiplicity = 1:

       Center              X                  Y                   Z               Mass
    ------------   -----------------  -----------------  -----------------  -----------------
      Gh(CL)          0.000000000000     0.000000000000     0.000000000000    34.968852682000
         O           -2.199916000000    -1.571015000000     1.467295000000    15.994914619570
         H           -1.882318000000    -2.506238000000     1.325476000000     1.007825032230
         H           -1.614150000000    -0.972649000000     0.951732000000     1.007825032230
      Gh(O)           0.797188000000    -2.893542000000     1.082174000000    15.994914619570
      Gh(H)           0.638924000000    -1.985322000000     0.894663000000     1.007825032230
      Gh(H)           1.422652000000    -3.264080000000     0.452093000000     1.007825032230
      Gh(O)          -2.721750000000     0.879998000000    -1.804564000000    15.994914619570
      Gh(H)          -2.687678000000     0.053166000000    -2.351965000000     1.007825032230
      Gh(H)          -2.079379000000     0.700004000000    -1.079329000000     1.007825032230
      Gh(O)          -0.897884000000    -1.728912000000    -2.615415000000    15.994914619570
      Gh(H)          -0.741817000000    -1.169751000000    -1.853770000000     1.007825032230
      Gh(H)          -0.428522000000    -2.544201000000    -2.358736000000     1.007825032230

  Charge       = 0
  Multiplicity = 1
  Basis Set: AUG-CC-PVTZ
    Blend: AUG-CC-PVTZ
  Basis Set: (AUG-CC-PVTZ AUX)
    Blend: AUG-CC-PVTZ-JKFIT

    Orbital Energies [Eh]
    ---------------------

    Doubly Occupied:

       1A    -20.571259     2A     -1.334805     3A     -0.705757
       4A     -0.572102     5A     -0.506637

  @DF-RHF Final Energy:   -76.05613483651426

   => Energetics <=

    Nuclear Repulsion Energy =              8.8783390827619844
    One-Electron Energy =                -122.4878232221566918
    Two-Electron Energy =                  37.5533493028804486
    Total Energy =                        -76.0561348365142607
 Dipole X            :         40.4604055          -39.8652768            0.5951287
 Dipole Y            :         30.1052051          -30.3244484           -0.2192433
 Dipole Z            :        -26.9186471           26.4855850           -0.4330621
 Magnitude           :                                                    0.7679769
  Basis Set: (AUG-CC-PVTZ AUX)
    Blend: AUG-CC-PVTZ-RI
	 Reference Energy          =     -76.0561348365142607 [Eh]
	 Singles Energy            =      -0.0000000000000000 [Eh]
	 Same-Spin Energy          =      -0.0689275959191356 [Eh]
	 Opposite-Spin Energy      =      -0.2176532288876054 [Eh]
	 Correlation Energy        =      -0.2865808248067410 [Eh]
	 Total Energy              =     -76.3427156613210087 [Eh]

	 ================> DF-SCS-MP2 Energies <==================
	-----------------------------------------------------------
	 SCS Same-Spin Scale       =       0.3333333333333333 [-]
	 SCS Opposite-Spin Scale   =       1.2000000000000000 [-]
	 SCS Same-Spin Energy      =      -0.0229758653063785 [Eh]
	 SCS Opposite-Spin Energy  =      -0.2611838746651265 [Eh]
	 SCS Correlation Energy    =      -0.2841597399715050 [Eh]
	 SCS Total Energy          =     -76.3402945764857606 [Eh]
	-----------------------------------------------------------

*** Psi4 exiting successfully. Buy a developer a beer!
