                               Psi4 1.8.2 release

  ==> Input File <==

--------------------------------------------------------------------------
MEMORY 60 GB

molecule dimer {
-1 1
Cl         0.000000     0.000000     0.000000
O         -0.280808    -3.080814    -0.219496
H         -0.189651    -2.233915    -0.698426
H         -1.211460    -3.317950    -0.131329
O         -2.481935     1.642067    -1.399642
H         -3.385130     1.319635    -1.209210
H         -2.045854     1.470675    -0.571808
O          3.200063    -0.253611    -0.094584
H          2.299885    -0.264054     0.155672
H          3.393302     0.468831    -0.634648
O         -0.386088     0.401159     3.233560
H         -0.468246     0.509841     2.292034
H          0.523611     0.081762     3.396811
O          1.511570     0.499460    -2.904062
H          2.403978     0.871797    -2.676264
H          0.955551     0.438546    -2.110677

units ang
no_reorient
no_com
symmetry c1
}

set {
basis        aug-cc-pVTZ
scf_type     df
}

energy("mp2")
--------------------------------------------------------------------------

    Molecular point group: c1

    Geometry (in Angstrom), charge = -1, multiplicity = 1:

       Center              X                  Y                   Z               Mass
    ------------   -----------------  -----------------  -----------------  -----------------
         CL           0.000000000000     0.000000000000     0.000000000000    34.968852682000
         O           -0.280808000000    -3.080814000000    -0.219496000000    15.994914619570
         H           -0.189651000000    -2.233915000000    -0.698426000000     1.007825032230
         H           -1.211460000000    -3.317950000000    -0.131329000000     1.007825032230
         O           -2.481935000000     1.642067000000    -1.399642000000    15.994914619570
         H           -3.385130000000     1.319635000000    -1.209210000000     1.007825032230
         H           -2.045854000000     1.470675000000    -0.571808000000     1.007825032230
         O            3.200063000000    -0.253611000000    -0.094584000000    15.994914619570
         H            2.299885000000    -0.264054000000     0.155672000000     1.007825032230
         H            3.393302000000     0.468831000000    -0.634648000000     1.007825032230
         O           -0.386088000000     0.401159000000     3.233560000000    15.994914619570
         H           -0.468246000000     0.509841000000     2.292034000000     1.007825032230
         H            0.523611000000     0.081762000000     3.396811000000     1.007825032230
         O            1.511570000000     0.499460000000    -2.904062000000    15.994914619570
         H            2.403978000000     0.871797000000    -2.676264000000     1.007825032230
         H            0.955551000000     0.438546000000    -2.110677000000     1.007825032230

  Charge       = -1
  Multiplicity = 1
  Basis Set: AUG-CC-PVTZ
    Blend: AUG-CC-PVTZ
  Basis Set: (AUG-CC-PVTZ AUX)
    Blend: AUG-CC-PVTZ-JKFIT

    Orbital Energies [Eh]
    ---------------------

    Doubly Occupied:

       1A   -104.583985     2A    -20.434064     3A    -20.418878
       4A    -20.418634     5A    -20.411651     6A    -20.410159
       7A    -10.309537     8A     -7.775666     9A     -7.775607
      10A     -7.775559    11A     -1.218526    12A     -1.217790
      13A     -1.202469    14A     -1.190765    15A     -1.190083
      16A     -0.829273    17A     -0.603556    18A     -0.573553
      19A     -0.573297    20A     -0.569744    21A     -0.568485
      22A     -0.457394    23A     -0.440905    24A     -0.439002
      25A     -0.422658    26A     -0.422197    27A     -0.377413
      28A     -0.369129    29A     -0.364733    30A     -0.357295
      31A     -0.356726    32A     -0.243404    33A     -0.239598
      34A     -0.235561

  @DF-RHF Final Energy:  -839.92068512818560

   => Energetics <=

    Nuclear Repulsion Energy =            299.2509501643731937
    One-Electron Energy =               -1768.7886780149265178
    Two-Electron Energy =                 629.6170427223678416
    Total Energy =                       -839.9206851281855961
 Dipole X            :        -28.7524400           27.9271324           -0.8253077
 Dipole Y            :         13.8207897          -13.2068121            0.6139775
 Dipole Z            :         25.5045047          -25.0608619            0.4436428
 Magnitude           :                                                    1.1202322
  Basis Set: (AUG-CC-PVTZ AUX)
    Blend: AUG-CC-PVTZ-RI
	 Reference Energy          =    -839.9206851281855961 [Eh]
	 Singles Energy            =      -0.0000000000000000 [Eh]
	 Same-Spin Energy          =      -0.4150546745170820 [Eh]
	 Opposite-Spin Energy      =      -1.2699556433288073 [Eh]
	 Correlation Energy        =      -1.6850103178458893 [Eh]
	 Total Energy              =    -841.6056954460315183 [Eh]

	 ================> DF-SCS-MP2 Energies <==================
	-----------------------------------------------------------
	 SCS Same-Spin Scale       =       0.3333333333333333 [-]
	 SCS Opposite-Spin Scale   =       1.2000000000000000 [-]
	 SCS Same-Spin Energy      =      -0.1383515581723607 [Eh]
	 SCS Opposite-Spin Energy  =      -1.5239467719945687 [Eh]
	 SCS Correlation Energy    =      -1.6622983301669294 [Eh]
	 SCS Total Energy          =    -841.5829834583524871 [Eh]
	-----------------------------------------------------------

*** Psi4 exiting successfully. Buy a developer a beer!
