                               Psi4 1.8.2 release

  ==> Input File <==

--------------------------------------------------------------------------
MEMORY 60 GB

molecule dimer {
0 1
Gh(Cl)     0.000000     0.000000     0.000000
Gh(O)     -1.699511    -2.602859     1.388887
Gh(H)     -1.009799    -3.281339     1.476309
Gh(H)     -1.370004    -1.833268     0.834273
Gh(O)      2.047824    -2.283636     1.627081
Gh(H)      2.928790    -2.527615     1.228704
Gh(H)      2.063927    -1.332444     1.617770
Gh(O)     -2.694511     1.035503     1.396479
Gh(H)     -3.182629     0.216460     1.160035
Gh(H)     -1.779856     0.860726     1.190389
O          1.374557    -2.211274    -1.879035
H          1.185050    -3.173037    -1.766271
H          1.030023    -1.776112    -1.054907
Gh(O)     -1.324787    -2.152761    -2.403691
Gh(H)     -0.760749    -1.736481    -1.759069
Gh(H)     -0.832269    -2.768136    -2.931446

units ang
no_reorient
no_com
symmetry c1
}

set {
basis        aug-cc-pVTZ
scf_type     df
}

energy("mp2")
--------------------------------------------------------------------------

    Molecular point group: c1

    Geometry (in Angstrom), charge = 0, multiplicity = 1:

       Center              X                  Y                   Z               Mass
    ------------   -----------------  -----------------  -----------------  -----------------
      Gh(CL)          0.000000000000     0.000000000000     0.000000000000    34.968852682000
      Gh(O)          -1.699511000000    -2.602859000000     1.388887000000    15.994914619570
      Gh(H)          -1.009799000000    -3.281339000000     1.476309000000     1.007825032230
      Gh(H)          -1.370004000000    -1.833268000000     0.834273000000     1.007825032230
      Gh(O)           2.047824000000    -2.283636000000     1.627081000000    15.994914619570
      Gh(H)           2.928790000000    -2.527615000000     1.228704000000     1.007825032230
      Gh(H)           2.063927000000    -1.332444000000     1.617770000000     1.007825032230
      Gh(O)          -2.694511000000     1.035503000000     1.396479000000    15.994914619570
      Gh(H)          -3.182629000000     0.216460000000     1.160035000000     1.007825032230
      Gh(H)          -1.779856000000     0.860726000000     1.190389000000     1.007825032230
         O            1.374557000000    -2.211274000000    -1.879035000000    15.994914619570
         H            1.185050000000    -3.173037000000    -1.766271000000     1.007825032230
         H            1.030023000000    -1.776112000000    -1.054907000000     1.007825032230
      Gh(O)          -1.324787000000    -2.152761000000    -2.403691000000    15.994914619570
      Gh(H)          -0.760749000000    -1.736481000000    -1.759069000000     1.007825032230
      Gh(H)          -0.832269000000    -2.768136000000    -2.931446000000     1.007825032230

  Charge       = 0
  Multiplicity = 1
  Basis Set: AUG-CC-PVTZ
    Blend: AUG-CC-PVTZ
  Basis Set: (AUG-CC-PVTZ AUX)
    Blend: AUG-CC-PVTZ-JKFIT

    Orbital Energies [Eh]
    ---------------------

    Doubly Occupied:

       1A    -20.572281     2A     -1.336535     3A     -0.701644
       4A     -0.576801     5A     -0.507445

  @DF-RHF Final Energy:   -76.05657118416796

   => Energetics <=

    Nuclear Repulsion Energy =              8.8869739200330606
    One-Electron Energy =                -122.4976740147380383
    Two-Electron Energy =                  37.5541289105370168
    Total Energy =                        -76.0565711841679644
 Dipole X            :        -25.3149078           24.9661715           -0.3487363
 Dipole Y            :         42.4373537          -42.7821542           -0.3448005
 Dipole Z            :         34.3497717          -33.7381460            0.6116257
 Magnitude           :                                                    0.7839581
  Basis Set: (AUG-CC-PVTZ AUX)
    Blend: AUG-CC-PVTZ-RI
	 Reference Energy          =     -76.0565711841679644 [Eh]
	 Singles Energy            =      -0.0000000000000000 [Eh]
	 Same-Spin Energy          =      -0.0689911049058254 [Eh]
	 Opposite-Spin Energy      =      -0.2178685329459476 [Eh]
	 Correlation Energy        =      -0.2868596378517730 [Eh]
	 Total Energy              =     -76.3434308220197408 [Eh]

	 ================> DF-SCS-MP2 Energies <==================
	-----------------------------------------------------------
	 SCS Same-Spin Scale       =       0.3333333333333333 [-]
	 SCS Opposite-Spin Scale   =       1.2000000000000000 [-]
	 SCS Same-Spin Energy      =      -0.0229970349686085 [Eh]
	 SCS Opposite-Spin Energy  =      -0.2614422395351371 [Eh]
	 SCS Correlation Energy    =      -0.2844392745037456 [Eh]
	 SCS Total Energy          =     -76.3410104586717040 [Eh]
	-----------------------------------------------------------

*** Psi4 exiting successfully. Buy a developer a beer!
