                               Psi4 1.8.2 release

  ==> Input File <==

--------------------------------------------------------------------------
MEMORY 60 GB

molecule dimer {
0 1
Gh(Cl)     0.000000     0.000000     0.000000
Gh(O)     -0.847666     1.123183    -2.635575
Gh(H)     -0.437574     0.880472    -1.760595
Gh(H)     -0.764447     2.074687    -2.698382
O         -1.923843    -1.041384     2.309194
H         -0.989393    -0.988290     2.002993
H         -1.922107    -1.234669     3.265432
Gh(O)     -1.085792     2.891213     1.281354
Gh(H)     -0.827850     2.048774     0.893722
Gh(H)     -1.837629     3.227416     0.720403
Gh(O)      2.086666    -0.280613     2.774800
Gh(H)      2.485722    -0.200190     3.622985
Gh(H)      2.716073     0.112459     2.212730
Gh(O)     -3.218433     0.993576    -0.104983
Gh(H)     -3.390588     0.720767    -1.017887
Gh(H)     -2.341262     0.608606     0.113792

units ang
no_reorient
no_com
symmetry c1
}

set {
basis        aug-cc-pVTZ
scf_type     df
}

energy("mp2")
--------------------------------------------------------------------------

    Molecular point group: c1

    Geometry (in Angstrom), charge = 0, multiplicity = 1:

       Center              X                  Y                   Z               Mass
    ------------   -----------------  -----------------  -----------------  -----------------
      Gh(CL)          0.000000000000     0.000000000000     0.000000000000    34.968852682000
      Gh(O)          -0.847666000000     1.123183000000    -2.635575000000    15.994914619570
      Gh(H)          -0.437574000000     0.880472000000    -1.760595000000     1.007825032230
      Gh(H)          -0.764447000000     2.074687000000    -2.698382000000     1.007825032230
         O           -1.923843000000    -1.041384000000     2.309194000000    15.994914619570
         H           -0.989393000000    -0.988290000000     2.002993000000     1.007825032230
         H           -1.922107000000    -1.234669000000     3.265432000000     1.007825032230
      Gh(O)          -1.085792000000     2.891213000000     1.281354000000    15.994914619570
      Gh(H)          -0.827850000000     2.048774000000     0.893722000000     1.007825032230
      Gh(H)          -1.837629000000     3.227416000000     0.720403000000     1.007825032230
      Gh(O)           2.086666000000    -0.280613000000     2.774800000000    15.994914619570
      Gh(H)           2.485722000000    -0.200190000000     3.622985000000     1.007825032230
      Gh(H)           2.716073000000     0.112459000000     2.212730000000     1.007825032230
      Gh(O)          -3.218433000000     0.993576000000    -0.104983000000    15.994914619570
      Gh(H)          -3.390588000000     0.720767000000    -1.017887000000     1.007825032230
      Gh(H)          -2.341262000000     0.608606000000     0.113792000000     1.007825032230

  Charge       = 0
  Multiplicity = 1
  Basis Set: AUG-CC-PVTZ
    Blend: AUG-CC-PVTZ
  Basis Set: (AUG-CC-PVTZ AUX)
    Blend: AUG-CC-PVTZ-JKFIT

    Orbital Energies [Eh]
    ---------------------

    Doubly Occupied:

       1A    -20.569337     2A     -1.339474     3A     -0.712208
       4A     -0.573228     5A     -0.507314

  @DF-RHF Final Energy:   -76.05787087551974

   => Energetics <=

    Nuclear Repulsion Energy =              8.9713349872304935
    One-Electron Energy =                -122.6552869843682458
    Two-Electron Energy =                  37.6260811216180073
    Total Energy =                        -76.0578708755197397
 Dipole X            :         35.2066335          -34.5862286            0.6204049
 Dipole Y            :         19.8507660          -19.9442281           -0.0934621
 Dipole Z            :        -44.4335329           44.8658342            0.4323013
 Magnitude           :                                                    0.7619198
  Basis Set: (AUG-CC-PVTZ AUX)
    Blend: AUG-CC-PVTZ-RI
	 Reference Energy          =     -76.0578708755197397 [Eh]
	 Singles Energy            =      -0.0000000000000000 [Eh]
	 Same-Spin Energy          =      -0.0687233539497695 [Eh]
	 Opposite-Spin Energy      =      -0.2166341269909354 [Eh]
	 Correlation Energy        =      -0.2853574809407048 [Eh]
	 Total Energy              =     -76.3432283564604433 [Eh]

	 ================> DF-SCS-MP2 Energies <==================
	-----------------------------------------------------------
	 SCS Same-Spin Scale       =       0.3333333333333333 [-]
	 SCS Opposite-Spin Scale   =       1.2000000000000000 [-]
	 SCS Same-Spin Energy      =      -0.0229077846499232 [Eh]
	 SCS Opposite-Spin Energy  =      -0.2599609523891224 [Eh]
	 SCS Correlation Energy    =      -0.2828687370390456 [Eh]
	 SCS Total Energy          =     -76.3407396125587923 [Eh]
	-----------------------------------------------------------

*** Psi4 exiting successfully. Buy a developer a beer!
