                               Psi4 1.8.2 release

  ==> Input File <==

--------------------------------------------------------------------------
MEMORY 60 GB

molecule dimer {
-1 1
Cl         0.000000     0.000000     0.000000
Gh(O)     -0.722002    -3.248013     0.354964
Gh(H)     -0.613309    -2.289253     0.433906
Gh(H)     -1.574971    -3.503131     0.680548
Gh(O)     -1.526330     2.399946     1.544144
Gh(H)     -1.173898     2.409457     2.433870
Gh(H)     -1.098273     1.621727     1.168734
Gh(O)      3.178802    -0.106216     0.211667
Gh(H)      3.377119    -0.828001     0.797087
Gh(H)      2.256728     0.086519     0.321265
Gh(O)      1.888706     2.928582     0.086703
Gh(H)      1.196918     2.292193     0.279175
Gh(H)      1.627389     3.844402     0.410362
Gh(O)      0.992794    -0.592290     3.268874
Gh(H)      1.905677    -0.231051     3.156662
Gh(H)      0.406310    -0.199508     2.620077

units ang
no_reorient
no_com
symmetry c1
}

set {
basis        aug-cc-pVTZ
scf_type     df
}

energy("mp2")
--------------------------------------------------------------------------

    Molecular point group: c1

    Geometry (in Angstrom), charge = -1, multiplicity = 1:

       Center              X                  Y                   Z               Mass
    ------------   -----------------  -----------------  -----------------  -----------------
         CL           0.000000000000     0.000000000000     0.000000000000    34.968852682000
      Gh(O)          -0.722002000000    -3.248013000000     0.354964000000    15.994914619570
      Gh(H)          -0.613309000000    -2.289253000000     0.433906000000     1.007825032230
      Gh(H)          -1.574971000000    -3.503131000000     0.680548000000     1.007825032230
      Gh(O)          -1.526330000000     2.399946000000     1.544144000000    15.994914619570
      Gh(H)          -1.173898000000     2.409457000000     2.433870000000     1.007825032230
      Gh(H)          -1.098273000000     1.621727000000     1.168734000000     1.007825032230
      Gh(O)           3.178802000000    -0.106216000000     0.211667000000    15.994914619570
      Gh(H)           3.377119000000    -0.828001000000     0.797087000000     1.007825032230
      Gh(H)           2.256728000000     0.086519000000     0.321265000000     1.007825032230
      Gh(O)           1.888706000000     2.928582000000     0.086703000000    15.994914619570
      Gh(H)           1.196918000000     2.292193000000     0.279175000000     1.007825032230
      Gh(H)           1.627389000000     3.844402000000     0.410362000000     1.007825032230
      Gh(O)           0.992794000000    -0.592290000000     3.268874000000    15.994914619570
      Gh(H)           1.905677000000    -0.231051000000     3.156662000000     1.007825032230
      Gh(H)           0.406310000000    -0.199508000000     2.620077000000     1.007825032230

  Charge       = -1
  Multiplicity = 1
  Basis Set: AUG-CC-PVTZ
    Blend: AUG-CC-PVTZ
  Basis Set: (AUG-CC-PVTZ AUX)
    Blend: AUG-CC-PVTZ-JKFIT

    Orbital Energies [Eh]
    ---------------------

    Doubly Occupied:

       1A   -104.507220     2A    -10.230052     3A     -7.696123
       4A     -7.696105     5A     -7.696096     6A     -0.733469
       7A     -0.150312     8A     -0.150307     9A     -0.150304

  @DF-RHF Final Energy:  -459.57357228667394

   => Energetics <=

    Nuclear Repulsion Energy =              0.0000000000000000
    One-Electron Energy =                -641.1271827139761399
    Two-Electron Energy =                 181.5536104273022318
    Total Energy =                       -459.5735722866738797
 Dipole X            :          0.0002951            0.0000000            0.0002951
 Dipole Y            :          0.0000247            0.0000000            0.0000247
 Dipole Z            :          0.0003216            0.0000000            0.0003216
 Magnitude           :                                                    0.0004372
  Basis Set: (AUG-CC-PVTZ AUX)
    Blend: AUG-CC-PVTZ-RI
	 Reference Energy          =    -459.5735722866739366 [Eh]
	 Singles Energy            =      -0.0000000000000000 [Eh]
	 Same-Spin Energy          =      -0.0634661728493438 [Eh]
	 Opposite-Spin Energy      =      -0.1834930374223167 [Eh]
	 Correlation Energy        =      -0.2469592102716605 [Eh]
	 Total Energy              =    -459.8205314969455912 [Eh]

	 ================> DF-SCS-MP2 Energies <==================
	-----------------------------------------------------------
	 SCS Same-Spin Scale       =       0.3333333333333333 [-]
	 SCS Opposite-Spin Scale   =       1.2000000000000000 [-]
	 SCS Same-Spin Energy      =      -0.0211553909497813 [Eh]
	 SCS Opposite-Spin Energy  =      -0.2201916449067800 [Eh]
	 SCS Correlation Energy    =      -0.2413470358565613 [Eh]
	 SCS Total Energy          =    -459.8149193225304998 [Eh]
	-----------------------------------------------------------

*** Psi4 exiting successfully. Buy a developer a beer!
