                               Psi4 1.8.2 release

  ==> Input File <==

--------------------------------------------------------------------------
MEMORY 60 GB

molecule dimer {
0 1
Gh(Cl)     0.000000     0.000000     0.000000
Gh(O)      1.242748     0.373838    -2.862966
Gh(H)      1.138454     0.351436    -1.908457
Gh(H)      2.040450     0.897382    -2.964663
Gh(O)      0.276420     3.153674    -0.747807
Gh(H)      0.355701     2.306751    -0.429567
Gh(H)     -0.187972     3.065629    -1.574720
Gh(O)      0.006494     0.560028     2.997778
Gh(H)      0.008803     0.499540     2.013278
Gh(H)      0.769493     0.188003     3.383861
Gh(O)      3.047364     0.861757     0.211652
Gh(H)      2.118883     0.732903     0.199202
Gh(H)      3.204150     1.194867    -0.687368
O          2.269934    -2.438292    -1.028284
H          2.047839    -1.483943    -0.900356
H          1.445497    -2.891753    -0.787702

units ang
no_reorient
no_com
symmetry c1
}

set {
basis        aug-cc-pVTZ
scf_type     df
}

energy("mp2")
--------------------------------------------------------------------------

    Molecular point group: c1

    Geometry (in Angstrom), charge = 0, multiplicity = 1:

       Center              X                  Y                   Z               Mass
    ------------   -----------------  -----------------  -----------------  -----------------
      Gh(CL)          0.000000000000     0.000000000000     0.000000000000    34.968852682000
      Gh(O)           1.242748000000     0.373838000000    -2.862966000000    15.994914619570
      Gh(H)           1.138454000000     0.351436000000    -1.908457000000     1.007825032230
      Gh(H)           2.040450000000     0.897382000000    -2.964663000000     1.007825032230
      Gh(O)           0.276420000000     3.153674000000    -0.747807000000    15.994914619570
      Gh(H)           0.355701000000     2.306751000000    -0.429567000000     1.007825032230
      Gh(H)          -0.187972000000     3.065629000000    -1.574720000000     1.007825032230
      Gh(O)           0.006494000000     0.560028000000     2.997778000000    15.994914619570
      Gh(H)           0.008803000000     0.499540000000     2.013278000000     1.007825032230
      Gh(H)           0.769493000000     0.188003000000     3.383861000000     1.007825032230
      Gh(O)           3.047364000000     0.861757000000     0.211652000000    15.994914619570
      Gh(H)           2.118883000000     0.732903000000     0.199202000000     1.007825032230
      Gh(H)           3.204150000000     1.194867000000    -0.687368000000     1.007825032230
         O            2.269934000000    -2.438292000000    -1.028284000000    15.994914619570
         H            2.047839000000    -1.483943000000    -0.900356000000     1.007825032230
         H            1.445497000000    -2.891753000000    -0.787702000000     1.007825032230

  Charge       = 0
  Multiplicity = 1
  Basis Set: AUG-CC-PVTZ
    Blend: AUG-CC-PVTZ
  Basis Set: (AUG-CC-PVTZ AUX)
    Blend: AUG-CC-PVTZ-JKFIT

    Orbital Energies [Eh]
    ---------------------

    Doubly Occupied:

       1A    -20.571592     2A     -1.343206     3A     -0.703162
       4A     -0.583110     5A     -0.508934

  @DF-RHF Final Energy:   -76.05808159830625

   => Energetics <=

    Nuclear Repulsion Energy =              8.9877812545457285
    One-Electron Energy =                -122.6717154144945994
    Two-Electron Energy =                  37.6258525616426311
    Total Energy =                        -76.0580815983062450
 Dipole X            :        -41.6029373           40.9178770           -0.6850604
 Dipole Y            :         45.4554916          -45.1304998            0.3249918
 Dipole Z            :         18.9765303          -18.7353684            0.2411619
 Magnitude           :                                                    0.7956673
  Basis Set: (AUG-CC-PVTZ AUX)
    Blend: AUG-CC-PVTZ-RI
	 Reference Energy          =     -76.0580815983062450 [Eh]
	 Singles Energy            =      -0.0000000000000000 [Eh]
	 Same-Spin Energy          =      -0.0688136498859389 [Eh]
	 Opposite-Spin Energy      =      -0.2170866851506911 [Eh]
	 Correlation Energy        =      -0.2859003350366299 [Eh]
	 Total Energy              =     -76.3439819333428744 [Eh]

	 ================> DF-SCS-MP2 Energies <==================
	-----------------------------------------------------------
	 SCS Same-Spin Scale       =       0.3333333333333333 [-]
	 SCS Opposite-Spin Scale   =       1.2000000000000000 [-]
	 SCS Same-Spin Energy      =      -0.0229378832953130 [Eh]
	 SCS Opposite-Spin Energy  =      -0.2605040221808293 [Eh]
	 SCS Correlation Energy    =      -0.2834419054761422 [Eh]
	 SCS Total Energy          =     -76.3415235037823834 [Eh]
	-----------------------------------------------------------

*** Psi4 exiting successfully. Buy a developer a beer!
