                               Psi4 1.8.2 release

  ==> Input File <==

--------------------------------------------------------------------------
MEMORY 60 GB

molecule dimer {
0 1
Gh(Cl)     0.000000     0.000000     0.000000
Gh(O)     -0.798897     3.124496    -0.215681
Gh(H)      0.060559     3.616307    -0.380398
Gh(H)     -0.556490     2.210170     0.138435
Gh(O)      2.730753    -0.341451    -2.110045
Gh(H)      2.680631    -1.003483    -1.437785
Gh(H)      1.867978    -0.486660    -2.459935
O          2.428296    -0.475128     2.348279
H          1.839286    -0.737724     1.638816
H          2.905468    -1.272764     2.554222
Gh(O)     -1.218819     0.750935     2.669050
Gh(H)     -1.171669     0.087468     3.394068
Gh(H)     -0.655150     0.411680     1.957964
Gh(O)     -0.679205    -3.054936    -0.078274
Gh(H)     -0.469217    -2.104139    -0.091012
Gh(H)     -0.608392    -3.314175    -1.020973

units ang
no_reorient
no_com
symmetry c1
}

set {
basis        aug-cc-pVTZ
scf_type     df
}

energy("mp2")
--------------------------------------------------------------------------

    Molecular point group: c1

    Geometry (in Angstrom), charge = 0, multiplicity = 1:

       Center              X                  Y                   Z               Mass
    ------------   -----------------  -----------------  -----------------  -----------------
      Gh(CL)          0.000000000000     0.000000000000     0.000000000000    34.968852682000
      Gh(O)          -0.798897000000     3.124496000000    -0.215681000000    15.994914619570
      Gh(H)           0.060559000000     3.616307000000    -0.380398000000     1.007825032230
      Gh(H)          -0.556490000000     2.210170000000     0.138435000000     1.007825032230
      Gh(O)           2.730753000000    -0.341451000000    -2.110045000000    15.994914619570
      Gh(H)           2.680631000000    -1.003483000000    -1.437785000000     1.007825032230
      Gh(H)           1.867978000000    -0.486660000000    -2.459935000000     1.007825032230
         O            2.428296000000    -0.475128000000     2.348279000000    15.994914619570
         H            1.839286000000    -0.737724000000     1.638816000000     1.007825032230
         H            2.905468000000    -1.272764000000     2.554222000000     1.007825032230
      Gh(O)          -1.218819000000     0.750935000000     2.669050000000    15.994914619570
      Gh(H)          -1.171669000000     0.087468000000     3.394068000000     1.007825032230
      Gh(H)          -0.655150000000     0.411680000000     1.957964000000     1.007825032230
      Gh(O)          -0.679205000000    -3.054936000000    -0.078274000000    15.994914619570
      Gh(H)          -0.469217000000    -2.104139000000    -0.091012000000     1.007825032230
      Gh(H)          -0.608392000000    -3.314175000000    -1.020973000000     1.007825032230

  Charge       = 0
  Multiplicity = 1
  Basis Set: AUG-CC-PVTZ
    Blend: AUG-CC-PVTZ
  Basis Set: (AUG-CC-PVTZ AUX)
    Blend: AUG-CC-PVTZ-JKFIT

    Orbital Energies [Eh]
    ---------------------

    Doubly Occupied:

       1A    -20.567147     2A     -1.355070     3A     -0.717441
       4A     -0.586666     5A     -0.510719

  @DF-RHF Final Energy:   -76.06067975115194

   => Energetics <=

    Nuclear Repulsion Energy =              9.2142315324692667
    One-Electron Energy =                -123.0757350052924721
    Two-Electron Energy =                  37.8008237216712644
    Total Energy =                        -76.0606797511519375
 Dipole X            :        -45.7503629           45.6768007           -0.0735622
 Dipole Y            :         10.2765605          -10.9821661           -0.7056056
 Dipole Z            :        -43.7588040           43.4245269           -0.3342771
 Magnitude           :                                                    0.7842396
  Basis Set: (AUG-CC-PVTZ AUX)
    Blend: AUG-CC-PVTZ-RI
	 Reference Energy          =     -76.0606797511519375 [Eh]
	 Singles Energy            =      -0.0000000000000000 [Eh]
	 Same-Spin Energy          =      -0.0683612145125263 [Eh]
	 Opposite-Spin Energy      =      -0.2155381216993088 [Eh]
	 Correlation Energy        =      -0.2838993362118351 [Eh]
	 Total Energy              =     -76.3445790873637691 [Eh]

	 ================> DF-SCS-MP2 Energies <==================
	-----------------------------------------------------------
	 SCS Same-Spin Scale       =       0.3333333333333333 [-]
	 SCS Opposite-Spin Scale   =       1.2000000000000000 [-]
	 SCS Same-Spin Energy      =      -0.0227870715041754 [Eh]
	 SCS Opposite-Spin Energy  =      -0.2586457460391705 [Eh]
	 SCS Correlation Energy    =      -0.2814328175433459 [Eh]
	 SCS Total Energy          =     -76.3421125686952848 [Eh]
	-----------------------------------------------------------

*** Psi4 exiting successfully. Buy a developer a beer!
