                               Psi4 1.8.2 release

  ==> Input File <==

--------------------------------------------------------------------------
MEMORY 60 GB

molecule dimer {
-1 1
Cl         0.000000     0.000000     0.000000
O          2.577144     1.301097    -1.507566
H          1.636751     1.082512    -1.310522
H          2.493026     1.546902    -2.431710
O         -0.803884    -0.114309     3.230273
H         -1.032596    -0.160666     2.314983
H         -1.231357    -0.797408     3.797174
O          0.843661    -2.286358    -2.084704
H          0.687224    -1.478250    -1.561391
H          0.748808    -1.967004    -2.989697
O         -3.119480    -1.368652    -0.412857
H         -2.259889    -0.968028    -0.211314
H         -2.868990    -2.275884    -0.520071

units ang
no_reorient
no_com
symmetry c1
}

set {
basis        aug-cc-pVTZ
scf_type     df
}

energy("mp2")
--------------------------------------------------------------------------

    Molecular point group: c1

    Geometry (in Angstrom), charge = -1, multiplicity = 1:

       Center              X                  Y                   Z               Mass
    ------------   -----------------  -----------------  -----------------  -----------------
         CL           0.000000000000     0.000000000000     0.000000000000    34.968852682000
         O            2.577144000000     1.301097000000    -1.507566000000    15.994914619570
         H            1.636751000000     1.082512000000    -1.310522000000     1.007825032230
         H            2.493026000000     1.546902000000    -2.431710000000     1.007825032230
         O           -0.803884000000    -0.114309000000     3.230273000000    15.994914619570
         H           -1.032596000000    -0.160666000000     2.314983000000     1.007825032230
         H           -1.231357000000    -0.797408000000     3.797174000000     1.007825032230
         O            0.843661000000    -2.286358000000    -2.084704000000    15.994914619570
         H            0.687224000000    -1.478250000000    -1.561391000000     1.007825032230
         H            0.748808000000    -1.967004000000    -2.989697000000     1.007825032230
         O           -3.119480000000    -1.368652000000    -0.412857000000    15.994914619570
         H           -2.259889000000    -0.968028000000    -0.211314000000     1.007825032230
         H           -2.868990000000    -2.275884000000    -0.520071000000     1.007825032230

  Charge       = -1
  Multiplicity = 1
  Basis Set: AUG-CC-PVTZ
    Blend: AUG-CC-PVTZ
  Basis Set: (AUG-CC-PVTZ AUX)
    Blend: AUG-CC-PVTZ-JKFIT

    Orbital Energies [Eh]
    ---------------------

    Doubly Occupied:

       1A   -104.572071     2A    -20.420698     3A    -20.420492
       4A    -20.419653     5A    -20.411907     6A    -10.296964
       7A     -7.763119     8A     -7.763030     9A     -7.762990
      10A     -1.210264    11A     -1.200921    12A     -1.199771
      13A     -1.194079    14A     -0.812778    15A     -0.588608
      16A     -0.564622    17A     -0.553159    18A     -0.551310
      19A     -0.451132    20A     -0.446104    21A     -0.436648
      22A     -0.422422    23A     -0.367213    24A     -0.364245
      25A     -0.363072    26A     -0.355474    27A     -0.230314
      28A     -0.224462    29A     -0.221175

  @DF-RHF Final Energy:  -763.85838520907009

   => Energetics <=

    Nuclear Repulsion Energy =            212.3653500230594489
    One-Electron Energy =               -1489.2700730860337899
    Two-Electron Energy =                 513.0463378539043333
    Total Energy =                       -763.8583852090700930
 Dipole X            :         10.6340866          -11.0501641           -0.4160775
 Dipole Y            :         47.0117220          -46.7964257            0.2152964
 Dipole Z            :         16.6525172          -17.2180128           -0.5654956
 Magnitude           :                                                    0.7343421
  Basis Set: (AUG-CC-PVTZ AUX)
    Blend: AUG-CC-PVTZ-RI
	 Reference Energy          =    -763.8583852090700930 [Eh]
	 Singles Energy            =      -0.0000000000000000 [Eh]
	 Same-Spin Energy          =      -0.3450018735104895 [Eh]
	 Opposite-Spin Energy      =      -1.0532764110423556 [Eh]
	 Correlation Energy        =      -1.3982782845528452 [Eh]
	 Total Energy              =    -765.2566634936229093 [Eh]

	 ================> DF-SCS-MP2 Energies <==================
	-----------------------------------------------------------
	 SCS Same-Spin Scale       =       0.3333333333333333 [-]
	 SCS Opposite-Spin Scale   =       1.2000000000000000 [-]
	 SCS Same-Spin Energy      =      -0.1150006245034965 [Eh]
	 SCS Opposite-Spin Energy  =      -1.2639316932508267 [Eh]
	 SCS Correlation Energy    =      -1.3789323177543231 [Eh]
	 SCS Total Energy          =    -765.2373175268244267 [Eh]
	-----------------------------------------------------------

*** Psi4 exiting successfully. Buy a developer a beer!
