                               Psi4 1.8.2 release

  ==> Input File <==

--------------------------------------------------------------------------
MEMORY 60 GB

molecule dimer {
-1 1
Cl         0.000000     0.000000     0.000000
O          1.279422     1.813072     2.395684
H          0.682919     1.310388     1.792513
H          1.966367     1.174297     2.713761
O          0.654636     0.433879    -3.071352
H          0.416601     0.627639    -2.150429
H          1.079299    -0.421006    -3.057450
O         -2.751681    -1.662134    -0.715478
H         -1.767176    -1.405085    -0.782986
H         -2.615721    -2.522329    -0.314722
O         -0.054526    -2.456372     1.915545
H         -0.644121    -2.325736     2.724853
H         -0.025853    -1.607846     1.466047

units ang
no_reorient
no_com
symmetry c1
}

set {
basis        aug-cc-pVTZ
scf_type     df
}

energy("mp2")
--------------------------------------------------------------------------

    Molecular point group: c1

    Geometry (in Angstrom), charge = -1, multiplicity = 1:

       Center              X                  Y                   Z               Mass
    ------------   -----------------  -----------------  -----------------  -----------------
         CL           0.000000000000     0.000000000000     0.000000000000    34.968852682000
         O            1.279422000000     1.813072000000     2.395684000000    15.994914619570
         H            0.682919000000     1.310388000000     1.792513000000     1.007825032230
         H            1.966367000000     1.174297000000     2.713761000000     1.007825032230
         O            0.654636000000     0.433879000000    -3.071352000000    15.994914619570
         H            0.416601000000     0.627639000000    -2.150429000000     1.007825032230
         H            1.079299000000    -0.421006000000    -3.057450000000     1.007825032230
         O           -2.751681000000    -1.662134000000    -0.715478000000    15.994914619570
         H           -1.767176000000    -1.405085000000    -0.782986000000     1.007825032230
         H           -2.615721000000    -2.522329000000    -0.314722000000     1.007825032230
         O           -0.054526000000    -2.456372000000     1.915545000000    15.994914619570
         H           -0.644121000000    -2.325736000000     2.724853000000     1.007825032230
         H           -0.025853000000    -1.607846000000     1.466047000000     1.007825032230

  Charge       = -1
  Multiplicity = 1
  Basis Set: AUG-CC-PVTZ
    Blend: AUG-CC-PVTZ
  Basis Set: (AUG-CC-PVTZ AUX)
    Blend: AUG-CC-PVTZ-JKFIT

    Orbital Energies [Eh]
    ---------------------

    Doubly Occupied:

       1A   -104.583391     2A    -20.421851     3A    -20.419344
       4A    -20.419173     5A    -20.407300     6A    -10.308993
       7A     -7.775127     8A     -7.775071     9A     -7.774984
      10A     -1.193733    11A     -1.193482    12A     -1.191026
      13A     -1.187933    14A     -0.828804    15A     -0.564686
      16A     -0.560874    17A     -0.557270    18A     -0.534320
      19A     -0.445060    20A     -0.436595    21A     -0.431890
      22A     -0.429859    23A     -0.364504    24A     -0.359634
      25A     -0.357298    26A     -0.354362    27A     -0.241881
      28A     -0.239340    29A     -0.234219

  @DF-RHF Final Energy:  -763.85779703761955

   => Energetics <=

    Nuclear Repulsion Energy =            217.3089810689907324
    One-Electron Energy =               -1499.1495404975646579
    Two-Electron Energy =                 517.9827623909543490
    Total Energy =                       -763.8577970376195481
 Dipole X            :         15.4716278          -14.9002581            0.5713698
 Dipole Y            :         37.4309918          -38.0630866           -0.6320948
 Dipole Z            :        -11.7235866           12.4472084            0.7236217
 Magnitude           :                                                    1.1178710
  Basis Set: (AUG-CC-PVTZ AUX)
    Blend: AUG-CC-PVTZ-RI
	 Reference Energy          =    -763.8577970376195481 [Eh]
	 Singles Energy            =      -0.0000000000000000 [Eh]
	 Same-Spin Energy          =      -0.3472549892536742 [Eh]
	 Opposite-Spin Energy      =      -1.0574109464980330 [Eh]
	 Correlation Energy        =      -1.4046659357517073 [Eh]
	 Total Energy              =    -765.2624629733712709 [Eh]

	 ================> DF-SCS-MP2 Energies <==================
	-----------------------------------------------------------
	 SCS Same-Spin Scale       =       0.3333333333333333 [-]
	 SCS Opposite-Spin Scale   =       1.2000000000000000 [-]
	 SCS Same-Spin Energy      =      -0.1157516630845580 [Eh]
	 SCS Opposite-Spin Energy  =      -1.2688931357976396 [Eh]
	 SCS Correlation Energy    =      -1.3846447988821977 [Eh]
	 SCS Total Energy          =    -765.2424418365017118 [Eh]
	-----------------------------------------------------------

*** Psi4 exiting successfully. Buy a developer a beer!
