                               Psi4 1.8.2 release

  ==> Input File <==

--------------------------------------------------------------------------
MEMORY 60 GB

molecule dimer {
0 1
Gh(Cl)     0.000000     0.000000     0.000000
O          0.309276     2.230580     2.384255
H          0.172358     1.780632     1.568707
H          0.070820     1.580932     3.070981
Gh(O)     -3.106756    -1.201459     0.184859
Gh(H)     -3.615730    -1.153433    -0.609588
Gh(H)     -2.337299    -0.547263     0.106862
Gh(O)      2.375058     0.829933    -1.953883
Gh(H)      2.611264     1.792549    -2.051113
Gh(H)      1.790705     0.628269    -1.215983
Gh(O)     -0.849852     2.660511    -1.102632
Gh(H)     -0.932491     2.833868    -2.029998
Gh(H)     -0.711092     1.689129    -1.111696

units ang
no_reorient
no_com
symmetry c1
}

set {
basis        aug-cc-pVTZ
scf_type     df
}

energy("mp2")
--------------------------------------------------------------------------

    Molecular point group: c1

    Geometry (in Angstrom), charge = 0, multiplicity = 1:

       Center              X                  Y                   Z               Mass
    ------------   -----------------  -----------------  -----------------  -----------------
      Gh(CL)          0.000000000000     0.000000000000     0.000000000000    34.968852682000
         O            0.309276000000     2.230580000000     2.384255000000    15.994914619570
         H            0.172358000000     1.780632000000     1.568707000000     1.007825032230
         H            0.070820000000     1.580932000000     3.070981000000     1.007825032230
      Gh(O)          -3.106756000000    -1.201459000000     0.184859000000    15.994914619570
      Gh(H)          -3.615730000000    -1.153433000000    -0.609588000000     1.007825032230
      Gh(H)          -2.337299000000    -0.547263000000     0.106862000000     1.007825032230
      Gh(O)           2.375058000000     0.829933000000    -1.953883000000    15.994914619570
      Gh(H)           2.611264000000     1.792549000000    -2.051113000000     1.007825032230
      Gh(H)           1.790705000000     0.628269000000    -1.215983000000     1.007825032230
      Gh(O)          -0.849852000000     2.660511000000    -1.102632000000    15.994914619570
      Gh(H)          -0.932491000000     2.833868000000    -2.029998000000     1.007825032230
      Gh(H)          -0.711092000000     1.689129000000    -1.111696000000     1.007825032230

  Charge       = 0
  Multiplicity = 1
  Basis Set: AUG-CC-PVTZ
    Blend: AUG-CC-PVTZ
  Basis Set: (AUG-CC-PVTZ AUX)
    Blend: AUG-CC-PVTZ-JKFIT

    Orbital Energies [Eh]
    ---------------------

    Doubly Occupied:

       1A    -20.567132     2A     -1.353112     3A     -0.718012
       4A     -0.583990     5A     -0.510195

  @DF-RHF Final Energy:   -76.06005371738983

   => Energetics <=

    Nuclear Repulsion Energy =              9.1873830046181801
    One-Electron Energy =                -123.0299896655032938
    Two-Electron Energy =                  37.7825529434952898
    Total Energy =                        -76.0600537173898203
 Dipole X            :         -5.3847154            5.1351153           -0.2496001
 Dipole Y            :        -40.8054314           40.0739177           -0.7315137
 Dipole Z            :        -44.9042193           44.8124513           -0.0917679
 Magnitude           :                                                    0.7783533
  Basis Set: (AUG-CC-PVTZ AUX)
    Blend: AUG-CC-PVTZ-RI
	 Reference Energy          =     -76.0600537173898346 [Eh]
	 Singles Energy            =      -0.0000000000000000 [Eh]
	 Same-Spin Energy          =      -0.0683874915676396 [Eh]
	 Opposite-Spin Energy      =      -0.2158390059932095 [Eh]
	 Correlation Energy        =      -0.2842264975608491 [Eh]
	 Total Energy              =     -76.3442802149506861 [Eh]

	 ================> DF-SCS-MP2 Energies <==================
	-----------------------------------------------------------
	 SCS Same-Spin Scale       =       0.3333333333333333 [-]
	 SCS Opposite-Spin Scale   =       1.2000000000000000 [-]
	 SCS Same-Spin Energy      =      -0.0227958305225465 [Eh]
	 SCS Opposite-Spin Energy  =      -0.2590068071918514 [Eh]
	 SCS Correlation Energy    =      -0.2818026377143980 [Eh]
	 SCS Total Energy          =     -76.3418563551042269 [Eh]
	-----------------------------------------------------------

*** Psi4 exiting successfully. Buy a developer a beer!
