                               Psi4 1.8.2 release

  ==> Input File <==

--------------------------------------------------------------------------
MEMORY 60 GB

molecule dimer {
-1 1
Cl         0.000000     0.000000     0.000000
O         -0.626448    -3.113592     0.754314
H         -0.239394    -2.239675     0.691889
H         -1.537945    -2.905973     0.527826
O          1.128243    -1.708551    -2.677056
H          0.826606    -1.143339    -1.981423
H          0.825023    -2.562071    -2.503514
O          2.956940    -0.462505     1.050307
H          2.187350    -0.102340     0.693405
H          2.611752    -1.280708     1.398652
O         -0.731735     3.351951     0.529715
H         -0.503408     2.491672     0.171643
H         -0.052956     3.760527     1.140496
O          1.659667     1.365866    -2.584794
H          1.265558     1.161297    -3.485117
H          1.085125     0.911723    -1.915010

units ang
no_reorient
no_com
symmetry c1
}

set {
basis        aug-cc-pVTZ
scf_type     df
}

energy("mp2")
--------------------------------------------------------------------------

    Molecular point group: c1

    Geometry (in Angstrom), charge = -1, multiplicity = 1:

       Center              X                  Y                   Z               Mass
    ------------   -----------------  -----------------  -----------------  -----------------
         CL           0.000000000000     0.000000000000     0.000000000000    34.968852682000
         O           -0.626448000000    -3.113592000000     0.754314000000    15.994914619570
         H           -0.239394000000    -2.239675000000     0.691889000000     1.007825032230
         H           -1.537945000000    -2.905973000000     0.527826000000     1.007825032230
         O            1.128243000000    -1.708551000000    -2.677056000000    15.994914619570
         H            0.826606000000    -1.143339000000    -1.981423000000     1.007825032230
         H            0.825023000000    -2.562071000000    -2.503514000000     1.007825032230
         O            2.956940000000    -0.462505000000     1.050307000000    15.994914619570
         H            2.187350000000    -0.102340000000     0.693405000000     1.007825032230
         H            2.611752000000    -1.280708000000     1.398652000000     1.007825032230
         O           -0.731735000000     3.351951000000     0.529715000000    15.994914619570
         H           -0.503408000000     2.491672000000     0.171643000000     1.007825032230
         H           -0.052956000000     3.760527000000     1.140496000000     1.007825032230
         O            1.659667000000     1.365866000000    -2.584794000000    15.994914619570
         H            1.265558000000     1.161297000000    -3.485117000000     1.007825032230
         H            1.085125000000     0.911723000000    -1.915010000000     1.007825032230

  Charge       = -1
  Multiplicity = 1
  Basis Set: AUG-CC-PVTZ
    Blend: AUG-CC-PVTZ
  Basis Set: (AUG-CC-PVTZ AUX)
    Blend: AUG-CC-PVTZ-JKFIT

    Orbital Energies [Eh]
    ---------------------

    Doubly Occupied:

       1A   -104.599283     2A    -20.431315     3A    -20.427684
       4A    -20.420673     5A    -20.417547     6A    -20.408423
       7A    -10.324507     8A     -7.790625     9A     -7.790582
      10A     -7.790564    11A     -1.222582    12A     -1.220534
      13A     -1.213582    14A     -1.198724    15A     -1.183047
      16A     -0.842987    17A     -0.599241    18A     -0.588833
      19A     -0.573766    20A     -0.567073    21A     -0.551646
      22A     -0.464281    23A     -0.449722    24A     -0.445603
      25A     -0.427264    26A     -0.426539    27A     -0.377947
      28A     -0.371194    29A     -0.369738    30A     -0.360653
      31A     -0.357102    32A     -0.256472    33A     -0.253852
      34A     -0.251984

  @DF-RHF Final Energy:  -839.92968758559459

   => Energetics <=

    Nuclear Repulsion Energy =            301.3081979504842707
    One-Electron Energy =               -1772.5246288367120542
    Two-Electron Energy =                 631.2867433006331339
    Total Energy =                       -839.9296875855945927
 Dipole X            :        -80.4071193           78.5389963           -1.8681229
 Dipole Y            :         11.7764114          -12.1765164           -0.4001051
 Dipole Z            :         54.8694297          -54.1997358            0.6696939
 Magnitude           :                                                    2.0244647
  Basis Set: (AUG-CC-PVTZ AUX)
    Blend: AUG-CC-PVTZ-RI
	 Reference Energy          =    -839.9296875855945927 [Eh]
	 Singles Energy            =      -0.0000000000000000 [Eh]
	 Same-Spin Energy          =      -0.4151437504482879 [Eh]
	 Opposite-Spin Energy      =      -1.2708178958408396 [Eh]
	 Correlation Energy        =      -1.6859616462891276 [Eh]
	 Total Energy              =    -841.6156492318837081 [Eh]

	 ================> DF-SCS-MP2 Energies <==================
	-----------------------------------------------------------
	 SCS Same-Spin Scale       =       0.3333333333333333 [-]
	 SCS Opposite-Spin Scale   =       1.2000000000000000 [-]
	 SCS Same-Spin Energy      =      -0.1383812501494293 [Eh]
	 SCS Opposite-Spin Energy  =      -1.5249814750090074 [Eh]
	 SCS Correlation Energy    =      -1.6633627251584366 [Eh]
	 SCS Total Energy          =    -841.5930503107530285 [Eh]
	-----------------------------------------------------------

*** Psi4 exiting successfully. Buy a developer a beer!
