                               Psi4 1.8.2 release

  ==> Input File <==

--------------------------------------------------------------------------
MEMORY 60 GB

molecule dimer {
-1 1
Cl         0.000000     0.000000     0.000000
O         -2.199916    -1.571015     1.467295
H         -1.882318    -2.506238     1.325476
H         -1.614150    -0.972649     0.951732
O          0.797188    -2.893542     1.082174
H          0.638924    -1.985322     0.894663
H          1.422652    -3.264080     0.452093
O         -2.721750     0.879998    -1.804564
H         -2.687678     0.053166    -2.351965
H         -2.079379     0.700004    -1.079329
O         -0.897884    -1.728912    -2.615415
H         -0.741817    -1.169751    -1.853770
H         -0.428522    -2.544201    -2.358736

units ang
no_reorient
no_com
symmetry c1
}

set {
basis        aug-cc-pVTZ
scf_type     df
}

energy("mp2")
--------------------------------------------------------------------------

    Molecular point group: c1

    Geometry (in Angstrom), charge = -1, multiplicity = 1:

       Center              X                  Y                   Z               Mass
    ------------   -----------------  -----------------  -----------------  -----------------
         CL           0.000000000000     0.000000000000     0.000000000000    34.968852682000
         O           -2.199916000000    -1.571015000000     1.467295000000    15.994914619570
         H           -1.882318000000    -2.506238000000     1.325476000000     1.007825032230
         H           -1.614150000000    -0.972649000000     0.951732000000     1.007825032230
         O            0.797188000000    -2.893542000000     1.082174000000    15.994914619570
         H            0.638924000000    -1.985322000000     0.894663000000     1.007825032230
         H            1.422652000000    -3.264080000000     0.452093000000     1.007825032230
         O           -2.721750000000     0.879998000000    -1.804564000000    15.994914619570
         H           -2.687678000000     0.053166000000    -2.351965000000     1.007825032230
         H           -2.079379000000     0.700004000000    -1.079329000000     1.007825032230
         O           -0.897884000000    -1.728912000000    -2.615415000000    15.994914619570
         H           -0.741817000000    -1.169751000000    -1.853770000000     1.007825032230
         H           -0.428522000000    -2.544201000000    -2.358736000000     1.007825032230

  Charge       = -1
  Multiplicity = 1
  Basis Set: AUG-CC-PVTZ
    Blend: AUG-CC-PVTZ
  Basis Set: (AUG-CC-PVTZ AUX)
    Blend: AUG-CC-PVTZ-JKFIT

    Orbital Energies [Eh]
    ---------------------

    Doubly Occupied:

       1A   -104.586516     2A    -20.427276     3A    -20.423189
       4A    -20.411194     5A    -20.395081     6A    -10.311951
       7A     -7.778040     8A     -7.778004     9A     -7.777966
      10A     -1.215670    11A     -1.212417    12A     -1.180401
      13A     -1.165176    14A     -0.832281    15A     -0.596614
      16A     -0.571273    17A     -0.542064    18A     -0.538861
      19A     -0.456306    20A     -0.442499    21A     -0.427720
      22A     -0.410813    23A     -0.372669    24A     -0.372260
      25A     -0.350939    26A     -0.337213    27A     -0.243342
      28A     -0.240916    29A     -0.239316

  @DF-RHF Final Energy:  -763.86441913934550

   => Energetics <=

    Nuclear Repulsion Energy =            232.6292497475409107
    One-Electron Energy =               -1529.7113961640868638
    Two-Electron Energy =                 533.2177272772005381
    Total Energy =                       -763.8644191393455003
 Dipole X            :         92.2123309          -89.8587147            2.3536162
 Dipole Y            :        102.4407157         -102.4171826            0.0235331
 Dipole Z            :         35.8419354          -35.8744020           -0.0324666
 Magnitude           :                                                    2.3539578
  Basis Set: (AUG-CC-PVTZ AUX)
    Blend: AUG-CC-PVTZ-RI
	 Reference Energy          =    -763.8644191393455003 [Eh]
	 Singles Energy            =      -0.0000000000000000 [Eh]
	 Same-Spin Energy          =      -0.3479787365000568 [Eh]
	 Opposite-Spin Energy      =      -1.0578202574258666 [Eh]
	 Correlation Energy        =      -1.4057989939259234 [Eh]
	 Total Energy              =    -765.2702181332714417 [Eh]

	 ================> DF-SCS-MP2 Energies <==================
	-----------------------------------------------------------
	 SCS Same-Spin Scale       =       0.3333333333333333 [-]
	 SCS Opposite-Spin Scale   =       1.2000000000000000 [-]
	 SCS Same-Spin Energy      =      -0.1159929121666856 [Eh]
	 SCS Opposite-Spin Energy  =      -1.2693843089110399 [Eh]
	 SCS Correlation Energy    =      -1.3853772210777255 [Eh]
	 SCS Total Energy          =    -765.2497963604232609 [Eh]
	-----------------------------------------------------------

*** Psi4 exiting successfully. Buy a developer a beer!
