                               Psi4 1.8.2 release

  ==> Input File <==

--------------------------------------------------------------------------
MEMORY 60 GB

molecule dimer {
-1 1
Cl         0.000000     0.000000     0.000000
Gh(O)      1.643517    -2.671033    -0.571244
Gh(H)      1.442644    -3.447881     0.013578
Gh(H)      0.828471    -2.107925    -0.378806
Gh(O)     -2.118199    -2.087345     0.884562
Gh(H)     -1.644371    -1.233785     0.607522
Gh(H)     -3.051365    -1.880592     0.681310
Gh(O)      0.599442     1.213303     2.922861
Gh(H)      0.626392     1.960370     2.295878
Gh(H)      0.540948     0.461657     2.407060
Gh(O)     -2.500190     1.554417     0.736574
Gh(H)     -1.721962     1.048901     0.477950
Gh(H)     -3.117665     1.113809     0.151889
Gh(O)      0.419712     0.008157    -3.275042
Gh(H)     -0.472377     0.059341    -3.781707
Gh(H)      0.155255    -0.226504    -2.409947

units ang
no_reorient
no_com
symmetry c1
}

set {
basis        aug-cc-pVTZ
scf_type     df
}

energy("mp2")
--------------------------------------------------------------------------

    Molecular point group: c1

    Geometry (in Angstrom), charge = -1, multiplicity = 1:

       Center              X                  Y                   Z               Mass
    ------------   -----------------  -----------------  -----------------  -----------------
         CL           0.000000000000     0.000000000000     0.000000000000    34.968852682000
      Gh(O)           1.643517000000    -2.671033000000    -0.571244000000    15.994914619570
      Gh(H)           1.442644000000    -3.447881000000     0.013578000000     1.007825032230
      Gh(H)           0.828471000000    -2.107925000000    -0.378806000000     1.007825032230
      Gh(O)          -2.118199000000    -2.087345000000     0.884562000000    15.994914619570
      Gh(H)          -1.644371000000    -1.233785000000     0.607522000000     1.007825032230
      Gh(H)          -3.051365000000    -1.880592000000     0.681310000000     1.007825032230
      Gh(O)           0.599442000000     1.213303000000     2.922861000000    15.994914619570
      Gh(H)           0.626392000000     1.960370000000     2.295878000000     1.007825032230
      Gh(H)           0.540948000000     0.461657000000     2.407060000000     1.007825032230
      Gh(O)          -2.500190000000     1.554417000000     0.736574000000    15.994914619570
      Gh(H)          -1.721962000000     1.048901000000     0.477950000000     1.007825032230
      Gh(H)          -3.117665000000     1.113809000000     0.151889000000     1.007825032230
      Gh(O)           0.419712000000     0.008157000000    -3.275042000000    15.994914619570
      Gh(H)          -0.472377000000     0.059341000000    -3.781707000000     1.007825032230
      Gh(H)           0.155255000000    -0.226504000000    -2.409947000000     1.007825032230

  Charge       = -1
  Multiplicity = 1
  Basis Set: AUG-CC-PVTZ
    Blend: AUG-CC-PVTZ
  Basis Set: (AUG-CC-PVTZ AUX)
    Blend: AUG-CC-PVTZ-JKFIT

    Orbital Energies [Eh]
    ---------------------

    Doubly Occupied:

       1A   -104.507279     2A    -10.230060     3A     -7.696135
       4A     -7.696120     5A     -7.696098     6A     -0.733463
       7A     -0.150309     8A     -0.150302     9A     -0.150301

  @DF-RHF Final Energy:  -459.57358246988309

   => Energetics <=

    Nuclear Repulsion Energy =              0.0000000000000000
    One-Electron Energy =                -641.1270424659993523
    Two-Electron Energy =                 181.5534599961162598
    Total Energy =                       -459.5735824698830925
 Dipole X            :         -0.0001384            0.0000000           -0.0001384
 Dipole Y            :         -0.0000544            0.0000000           -0.0000544
 Dipole Z            :          0.0000021            0.0000000            0.0000021
 Magnitude           :                                                    0.0001487
  Basis Set: (AUG-CC-PVTZ AUX)
    Blend: AUG-CC-PVTZ-RI
	 Reference Energy          =    -459.5735824698830925 [Eh]
	 Singles Energy            =      -0.0000000000000000 [Eh]
	 Same-Spin Energy          =      -0.0636300982369423 [Eh]
	 Opposite-Spin Energy      =      -0.1843288631891639 [Eh]
	 Correlation Energy        =      -0.2479589614261062 [Eh]
	 Total Energy              =    -459.8215414313091856 [Eh]

	 ================> DF-SCS-MP2 Energies <==================
	-----------------------------------------------------------
	 SCS Same-Spin Scale       =       0.3333333333333333 [-]
	 SCS Opposite-Spin Scale   =       1.2000000000000000 [-]
	 SCS Same-Spin Energy      =      -0.0212100327456474 [Eh]
	 SCS Opposite-Spin Energy  =      -0.2211946358269967 [Eh]
	 SCS Correlation Energy    =      -0.2424046685726441 [Eh]
	 SCS Total Energy          =    -459.8159871384557391 [Eh]
	-----------------------------------------------------------

*** Psi4 exiting successfully. Buy a developer a beer!
