                               Psi4 1.8.2 release

  ==> Input File <==

--------------------------------------------------------------------------
MEMORY 60 GB

molecule dimer {
0 1
Gh(Cl)     0.000000     0.000000     0.000000
Gh(O)     -1.296686    -0.789802     2.747488
Gh(H)     -0.958037    -0.553647     1.932824
Gh(H)     -0.724324    -1.377608     3.241656
O         -2.076983    -2.553794    -0.486353
H         -1.591041    -1.707135    -0.380617
H         -3.010769    -2.279472    -0.495510
Gh(O)     -0.476781     2.792384     1.610098
Gh(H)     -0.194248     1.959841     1.163400
Gh(H)      0.285662     3.369797     1.728100
Gh(O)      2.175372    -1.021934     2.331685
Gh(H)      2.807418    -1.629194     1.955755
Gh(H)      1.693498    -0.623625     1.563577
Gh(O)     -2.432882     1.506271    -1.718991
Gh(H)     -1.619892     1.326935    -1.279633
Gh(H)     -2.709491     0.637243    -2.073644

units ang
no_reorient
no_com
symmetry c1
}

set {
basis        aug-cc-pVTZ
scf_type     df
}

energy("mp2")
--------------------------------------------------------------------------

    Molecular point group: c1

    Geometry (in Angstrom), charge = 0, multiplicity = 1:

       Center              X                  Y                   Z               Mass
    ------------   -----------------  -----------------  -----------------  -----------------
      Gh(CL)          0.000000000000     0.000000000000     0.000000000000    34.968852682000
      Gh(O)          -1.296686000000    -0.789802000000     2.747488000000    15.994914619570
      Gh(H)          -0.958037000000    -0.553647000000     1.932824000000     1.007825032230
      Gh(H)          -0.724324000000    -1.377608000000     3.241656000000     1.007825032230
         O           -2.076983000000    -2.553794000000    -0.486353000000    15.994914619570
         H           -1.591041000000    -1.707135000000    -0.380617000000     1.007825032230
         H           -3.010769000000    -2.279472000000    -0.495510000000     1.007825032230
      Gh(O)          -0.476781000000     2.792384000000     1.610098000000    15.994914619570
      Gh(H)          -0.194248000000     1.959841000000     1.163400000000     1.007825032230
      Gh(H)           0.285662000000     3.369797000000     1.728100000000     1.007825032230
      Gh(O)           2.175372000000    -1.021934000000     2.331685000000    15.994914619570
      Gh(H)           2.807418000000    -1.629194000000     1.955755000000     1.007825032230
      Gh(H)           1.693498000000    -0.623625000000     1.563577000000     1.007825032230
      Gh(O)          -2.432882000000     1.506271000000    -1.718991000000    15.994914619570
      Gh(H)          -1.619892000000     1.326935000000    -1.279633000000     1.007825032230
      Gh(H)          -2.709491000000     0.637243000000    -2.073644000000     1.007825032230

  Charge       = 0
  Multiplicity = 1
  Basis Set: AUG-CC-PVTZ
    Blend: AUG-CC-PVTZ
  Basis Set: (AUG-CC-PVTZ AUX)
    Blend: AUG-CC-PVTZ-JKFIT

    Orbital Energies [Eh]
    ---------------------

    Doubly Occupied:

       1A    -20.571169     2A     -1.344018     3A     -0.704795
       4A     -0.583016     5A     -0.509022

  @DF-RHF Final Energy:   -76.05847251978244

   => Energetics <=

    Nuclear Repulsion Energy =              9.0057275518937754
    One-Electron Energy =                -122.7043565202886413
    Two-Electron Energy =                  37.6401564486124371
    Total Energy =                        -76.0584725197824412
 Dipole X            :         39.8011054          -40.0955929           -0.2944874
 Dipole Y            :         46.8753425          -46.1413653            0.7339771
 Dipole Z            :          9.0711249           -9.0082318            0.0628930
 Magnitude           :                                                    0.7933479
  Basis Set: (AUG-CC-PVTZ AUX)
    Blend: AUG-CC-PVTZ-RI
	 Reference Energy          =     -76.0584725197824412 [Eh]
	 Singles Energy            =      -0.0000000000000000 [Eh]
	 Same-Spin Energy          =      -0.0687650827095801 [Eh]
	 Opposite-Spin Energy      =      -0.2169386763884352 [Eh]
	 Correlation Energy        =      -0.2857037590980153 [Eh]
	 Total Energy              =     -76.3441762788804539 [Eh]

	 ================> DF-SCS-MP2 Energies <==================
	-----------------------------------------------------------
	 SCS Same-Spin Scale       =       0.3333333333333333 [-]
	 SCS Opposite-Spin Scale   =       1.2000000000000000 [-]
	 SCS Same-Spin Energy      =      -0.0229216942365267 [Eh]
	 SCS Opposite-Spin Energy  =      -0.2603264116661222 [Eh]
	 SCS Correlation Energy    =      -0.2832481059026489 [Eh]
	 SCS Total Energy          =     -76.3417206256850847 [Eh]
	-----------------------------------------------------------

*** Psi4 exiting successfully. Buy a developer a beer!
