                               Psi4 1.9 release

  ==> Input File <==

--------------------------------------------------------------------------
MEMORY 60 GB

molecule dimer {
-1 1
Cl     0.000000     0.000000     0.000000
--
0 1
O     -1.632332     2.490935     1.090048
H     -2.053129     2.113159     1.904687
H     -1.215364     1.757596     0.622949
O      0.950607     2.374464    -2.175994
H      0.927656     1.703640    -1.451191
H      1.486632     2.014327    -2.868406
O      1.822289     1.832252     1.982226
H      1.341000     2.127700     2.740689
H      1.159400     1.352759     1.469391
O      1.460341    -2.851653    -1.369342
H      0.883151    -3.546723    -1.094304
H      1.133759    -1.999688    -1.056883
O     -0.794840    -0.536729    -3.305985
H     -1.209369    -0.160838    -4.088131
H     -0.723789     0.210704    -2.606868

units ang
no_reorient
no_com
symmetry c1
}

set {
basis        aug-cc-pVTZ
scf_type     df
}

energy("mp2", bsse_type="cp")
--------------------------------------------------------------------------

                               Psi4 1.9 release
    Molecular point group: c1
  Charge       = 0
  Multiplicity = 1
  Basis Set: AUG-CC-PVTZ
    Blend: AUG-CC-PVTZ
  Basis Set: (AUG-CC-PVTZ AUX)
    Blend: AUG-CC-PVTZ-JKFIT
  @DF-RHF Final Energy:  -380.28500538450618
    Total Energy =                       -380.2850053845061780
 Dipole X            :        -31.8184072           30.5728718           -1.2455354
 Dipole Y            :        -61.1327325           60.5596525           -0.5730800
 Dipole Z            :         69.9616846          -69.2781969            0.6834877
 Magnitude           :                                                    1.5319708
  Basis Set: (AUG-CC-PVTZ AUX)
    Blend: AUG-CC-PVTZ-RI
	 Reference Energy          =    -380.2850053845061780 [Eh]
	 Singles Energy            =      -0.0000000000000000 [Eh]
	 Same-Spin Energy          =      -0.3441106833572064 [Eh]
	 Opposite-Spin Energy      =      -1.0831393018554600 [Eh]
	 Correlation Energy        =      -1.4272499852126663 [Eh]
	 Total Energy              =    -381.7122553697188323 [Eh]
	 SCS Total Energy          =    -381.6994761078518081 [Eh]
                               Psi4 1.9 release
    Molecular point group: c1
  Multiplicity = 1
  Basis Set: AUG-CC-PVTZ
    Blend: AUG-CC-PVTZ
  Basis Set: (AUG-CC-PVTZ AUX)
    Blend: AUG-CC-PVTZ-JKFIT
  @DF-RHF Final Energy:  -459.57357420782239
    Total Energy =                       -459.5735742078223893
  Basis Set: (AUG-CC-PVTZ AUX)
	 Singles Energy            =      -0.0000000000000000 [Eh]
	 Same-Spin Energy          =      -0.0634566171556421 [Eh]
	 Opposite-Spin Energy      =      -0.1834073359545836 [Eh]
	 Correlation Energy        =      -0.2468639531102257 [Eh]
	 Total Energy              =    -459.8204381609326106 [Eh]
	 SCS Total Energy          =    -459.8148152166864406 [Eh]
                               Psi4 1.9 release
    Molecular point group: c1

    Geometry (in Bohr), charge = -1, multiplicity = 1:

       Center              X                  Y                   Z               Mass
    ------------   -----------------  -----------------  -----------------  -----------------
         CL           0.000000000000     0.000000000000     0.000000000000    34.968852682000
         O           -3.084660425821     4.707184946317     2.059892183603    15.994914619570
         H           -3.879851510235     3.993291769546     3.599336784720     1.007825032230
         H           -2.296705102741     3.321375079200     1.177203000128     1.007825032230
         O            1.796386882943     4.487086654759    -4.112032710639    15.994914619570
         H            1.753015778638     3.219413016375    -2.742353545729     1.007825032230
         H            2.809327329342     3.806526357115    -5.420501756620     1.007825032230
         O            3.443627131434     3.462454472822     3.745864258762    15.994914619570
         H            2.534122734239     4.020770277137     5.179151605055     1.007825032230
         H            2.190948469856     2.556344023748     2.776746561213     1.007825032230
         O            2.759644539777    -5.388843174840    -2.587681352087    15.994914619570
         H            1.668913517424    -6.702335112862    -2.067934857993     1.007825032230
         H            2.142494002273    -3.778862656365    -1.997219416652     1.007825032230
         O           -1.502029913559    -1.014270813591    -6.247406224872    15.994914619570
         H           -2.285376194619    -0.303939770566    -7.725447954994     1.007825032230
         H           -1.367762982619     0.398172853538    -4.926266565220     1.007825032230

  Charge       = -1
  Multiplicity = 1
  Basis Set: AUG-CC-PVTZ
    Blend: AUG-CC-PVTZ
  Basis Set: (AUG-CC-PVTZ AUX)
    Blend: AUG-CC-PVTZ-JKFIT

    Orbital Energies [Eh]
    ---------------------

    Doubly Occupied:

       1A   -104.587624     2A    -20.433779     3A    -20.420937
       4A    -20.416734     5A    -20.414306     6A    -20.409012
       7A    -10.312732     8A     -7.778857     9A     -7.778807
      10A     -7.778772    11A     -1.203872    12A     -1.203182
      13A     -1.200423    14A     -1.198055    15A     -1.192622
      16A     -0.830778    17A     -0.583379    18A     -0.574131
      19A     -0.567193    20A     -0.564202    21A     -0.561931
      22A     -0.438766    23A     -0.437684    24A     -0.436052
      25A     -0.431939    26A     -0.429571    27A     -0.372719
      28A     -0.364020    29A     -0.361828    30A     -0.361766
      31A     -0.354369    32A     -0.244554    33A     -0.241636
      34A     -0.240091

  @DF-RHF Final Energy:  -839.92570653754774

   => Energetics <=

    Nuclear Repulsion Energy =            298.7654748346950555
    One-Electron Energy =               -1767.9297125823061378
    Two-Electron Energy =                 629.2385312100632291
    Total Energy =                       -839.9257065375477396
 Dipole X            :        -31.9345244           30.5728718           -1.3616526
 Dipole Y            :        -61.6645389           60.5596525           -1.1048864
 Dipole Z            :         70.1424438          -69.2781969            0.8642469
 Magnitude           :                                                    1.9549410
  Basis Set: (AUG-CC-PVTZ AUX)
    Blend: AUG-CC-PVTZ-RI
	 Reference Energy          =    -839.9257065375477396 [Eh]
	 Singles Energy            =      -0.0000000000000000 [Eh]
	 Same-Spin Energy          =      -0.4157484752298951 [Eh]
	 Opposite-Spin Energy      =      -1.2722502744149591 [Eh]
	 Correlation Energy        =      -1.6879987496448541 [Eh]
	 Total Energy              =    -841.6137052871926016 [Eh]

	 ================> DF-SCS-MP2 Energies <==================
	-----------------------------------------------------------
	 SCS Same-Spin Scale       =       0.3333333333333333 [-]
	 SCS Opposite-Spin Scale   =       1.2000000000000000 [-]
	 SCS Same-Spin Energy      =      -0.1385828250766317 [Eh]
	 SCS Opposite-Spin Energy  =      -1.5267003292979509 [Eh]
	 SCS Correlation Energy    =      -1.6652831543745825 [Eh]
	 SCS Total Energy          =    -841.5909896919223456 [Eh]
	-----------------------------------------------------------

*** Psi4 exiting successfully. Buy a developer a beer!
