                               Psi4 1.8.2 release

  ==> Input File <==

--------------------------------------------------------------------------
MEMORY 60 GB

molecule dimer {
-1 1
Cl         0.000000     0.000000     0.000000
O          1.087017    -1.938826     2.134205
H          1.242037    -1.061945     1.749816
H          0.542211    -2.402701     1.471366
O         -2.357560     1.098794     1.961526
H         -1.852852     0.324910     1.716449
H         -2.821126     1.412667     1.135968
O         -1.308863     1.084084    -2.918475
H         -0.877334     0.596674    -2.186330
H         -2.054769     0.500763    -3.101511
O          3.206515     0.353628    -1.306580
H          2.420873     0.715524    -0.930580
H          3.817413     0.545332    -0.612808
O         -1.360642    -2.838085     0.606738
H         -1.416503    -1.957719     0.217323
H         -1.726871    -2.747994     1.472142
O          1.537381    -2.218729    -1.585335
H          2.389844    -1.888690    -1.756621
H          1.246941    -1.520306    -0.997139

units ang
no_reorient
no_com
symmetry c1
}

set {
basis        aug-cc-pVTZ
scf_type     df
}

energy("mp2")
--------------------------------------------------------------------------

    Molecular point group: c1

    Geometry (in Angstrom), charge = -1, multiplicity = 1:

       Center              X                  Y                   Z               Mass
    ------------   -----------------  -----------------  -----------------  -----------------
         CL           0.000000000000     0.000000000000     0.000000000000    34.968852682000
         O            1.087017000000    -1.938826000000     2.134205000000    15.994914619570
         H            1.242037000000    -1.061945000000     1.749816000000     1.007825032230
         H            0.542211000000    -2.402701000000     1.471366000000     1.007825032230
         O           -2.357560000000     1.098794000000     1.961526000000    15.994914619570
         H           -1.852852000000     0.324910000000     1.716449000000     1.007825032230
         H           -2.821126000000     1.412667000000     1.135968000000     1.007825032230
         O           -1.308863000000     1.084084000000    -2.918475000000    15.994914619570
         H           -0.877334000000     0.596674000000    -2.186330000000     1.007825032230
         H           -2.054769000000     0.500763000000    -3.101511000000     1.007825032230
         O            3.206515000000     0.353628000000    -1.306580000000    15.994914619570
         H            2.420873000000     0.715524000000    -0.930580000000     1.007825032230
         H            3.817413000000     0.545332000000    -0.612808000000     1.007825032230
         O           -1.360642000000    -2.838085000000     0.606738000000    15.994914619570
         H           -1.416503000000    -1.957719000000     0.217323000000     1.007825032230
         H           -1.726871000000    -2.747994000000     1.472142000000     1.007825032230
         O            1.537381000000    -2.218729000000    -1.585335000000    15.994914619570
         H            2.389844000000    -1.888690000000    -1.756621000000     1.007825032230
         H            1.246941000000    -1.520306000000    -0.997139000000     1.007825032230

  Charge       = -1
  Multiplicity = 1
  Basis Set: AUG-CC-PVTZ
    Blend: AUG-CC-PVTZ
  Basis Set: (AUG-CC-PVTZ AUX)
    Blend: AUG-CC-PVTZ-JKFIT

    Orbital Energies [Eh]
    ---------------------

    Doubly Occupied:

       1A   -104.597532     2A    -20.450385     3A    -20.437306
       4A    -20.435603     5A    -20.431969     6A    -20.401099
       7A    -20.393423     8A    -10.323406     9A     -7.789513
      10A     -7.789459    11A     -7.789422    12A     -1.250553
      13A     -1.231011    14A     -1.212125    15A     -1.210653
      16A     -1.197298    17A     -1.182813    18A     -0.845363
      19A     -0.601341    20A     -0.595661    21A     -0.580801
      22A     -0.565878    23A     -0.550813    24A     -0.545313
      25A     -0.487009    26A     -0.462353    27A     -0.457062
      28A     -0.449148    29A     -0.441547    30A     -0.433114
      31A     -0.396119    32A     -0.383306    33A     -0.377940
      34A     -0.374411    35A     -0.349100    36A     -0.343438
      37A     -0.257716    38A     -0.253156    39A     -0.250704

  @DF-RHF Final Energy:  -915.99452227524057

   => Energetics <=

    Nuclear Repulsion Energy =            404.9618314722886794
    One-Electron Energy =               -2085.6629779274107932
    Two-Electron Energy =                 764.7066241798816009
    Total Energy =                       -915.9945222752405698
 Dipole X            :        -14.3422374           13.8718143           -0.4704230
 Dipole Y            :         82.9214679          -81.5540732            1.3673947
 Dipole Z            :         20.5187014          -20.1922773            0.3264241
 Magnitude           :                                                    1.4824367
  Basis Set: (AUG-CC-PVTZ AUX)
    Blend: AUG-CC-PVTZ-RI
	 Reference Energy          =    -915.9945222752405698 [Eh]
	 Singles Energy            =      -0.0000000000000000 [Eh]
	 Same-Spin Energy          =      -0.4876059495158885 [Eh]
	 Opposite-Spin Energy      =      -1.4908968298223939 [Eh]
	 Correlation Energy        =      -1.9785027793382826 [Eh]
	 Total Energy              =    -917.9730250545788977 [Eh]

	 ================> DF-SCS-MP2 Energies <==================
	-----------------------------------------------------------
	 SCS Same-Spin Scale       =       0.3333333333333333 [-]
	 SCS Opposite-Spin Scale   =       1.2000000000000000 [-]
	 SCS Same-Spin Energy      =      -0.1625353165052962 [Eh]
	 SCS Opposite-Spin Energy  =      -1.7890761957868726 [Eh]
	 SCS Correlation Energy    =      -1.9516115122921689 [Eh]
	 SCS Total Energy          =    -917.9461337875327445 [Eh]
	-----------------------------------------------------------

*** Psi4 exiting successfully. Buy a developer a beer!
