                               Psi4 1.8.2 release

  ==> Input File <==

--------------------------------------------------------------------------
MEMORY 60 GB

molecule dimer {
0 1
Gh(Cl)     0.000000     0.000000     0.000000
Gh(O)      2.306524     0.633217    -2.188513
Gh(H)      1.570454     0.370574    -1.615926
Gh(H)      2.887146    -0.151513    -2.257538
Gh(O)      0.078149     0.201119     3.270859
Gh(H)      0.255800     0.302782     2.290721
Gh(H)     -0.317832     0.962546     3.712858
O          0.602014    -3.026089     0.733427
H         -0.271511    -3.137610     1.226318
H          0.722809    -2.074794     0.669439
Gh(O)      2.057172     1.804508     1.691988
Gh(H)      1.703814     1.155732     1.058885
Gh(H)      2.867329     1.350957     1.953438

units ang
no_reorient
no_com
symmetry c1
}

set {
basis        aug-cc-pVTZ
scf_type     df
}

energy("mp2")
--------------------------------------------------------------------------

    Molecular point group: c1

    Geometry (in Angstrom), charge = 0, multiplicity = 1:

       Center              X                  Y                   Z               Mass
    ------------   -----------------  -----------------  -----------------  -----------------
      Gh(CL)          0.000000000000     0.000000000000     0.000000000000    34.968852682000
      Gh(O)           2.306524000000     0.633217000000    -2.188513000000    15.994914619570
      Gh(H)           1.570454000000     0.370574000000    -1.615926000000     1.007825032230
      Gh(H)           2.887146000000    -0.151513000000    -2.257538000000     1.007825032230
      Gh(O)           0.078149000000     0.201119000000     3.270859000000    15.994914619570
      Gh(H)           0.255800000000     0.302782000000     2.290721000000     1.007825032230
      Gh(H)          -0.317832000000     0.962546000000     3.712858000000     1.007825032230
         O            0.602014000000    -3.026089000000     0.733427000000    15.994914619570
         H           -0.271511000000    -3.137610000000     1.226318000000     1.007825032230
         H            0.722809000000    -2.074794000000     0.669439000000     1.007825032230
      Gh(O)           2.057172000000     1.804508000000     1.691988000000    15.994914619570
      Gh(H)           1.703814000000     1.155732000000     1.058885000000     1.007825032230
      Gh(H)           2.867329000000     1.350957000000     1.953438000000     1.007825032230

  Charge       = 0
  Multiplicity = 1
  Basis Set: AUG-CC-PVTZ
    Blend: AUG-CC-PVTZ
  Basis Set: (AUG-CC-PVTZ AUX)
    Blend: AUG-CC-PVTZ-JKFIT

    Orbital Energies [Eh]
    ---------------------

    Doubly Occupied:

       1A    -20.571851     2A     -1.340130     3A     -0.703004
       4A     -0.579316     5A     -0.508163

  @DF-RHF Final Energy:   -76.05644515966853

   => Energetics <=

    Nuclear Repulsion Energy =              8.9394492828480381
    One-Electron Energy =                -122.5868575917403689
    Two-Electron Energy =                  37.5909631492237892
    Total Energy =                        -76.0564451596685274
 Dipole X            :        -10.4408143            9.9539623           -0.4868520
 Dipole Y            :         56.1531404          -55.5978515            0.5552889
 Dipole Z            :        -14.3927461           14.6702708            0.2775247
 Magnitude           :                                                    0.7889173
  Basis Set: (AUG-CC-PVTZ AUX)
    Blend: AUG-CC-PVTZ-RI
	 Reference Energy          =     -76.0564451596685274 [Eh]
	 Singles Energy            =      -0.0000000000000000 [Eh]
	 Same-Spin Energy          =      -0.0688603931412256 [Eh]
	 Opposite-Spin Energy      =      -0.2172583005956717 [Eh]
	 Correlation Energy        =      -0.2861186937368972 [Eh]
	 Total Energy              =     -76.3425638534054229 [Eh]

	 ================> DF-SCS-MP2 Energies <==================
	-----------------------------------------------------------
	 SCS Same-Spin Scale       =       0.3333333333333333 [-]
	 SCS Opposite-Spin Scale   =       1.2000000000000000 [-]
	 SCS Same-Spin Energy      =      -0.0229534643804085 [Eh]
	 SCS Opposite-Spin Energy  =      -0.2607099607148060 [Eh]
	 SCS Correlation Energy    =      -0.2836634250952145 [Eh]
	 SCS Total Energy          =     -76.3401085847637404 [Eh]
	-----------------------------------------------------------

*** Psi4 exiting successfully. Buy a developer a beer!
