                               Psi4 1.8.2 release

  ==> Input File <==

--------------------------------------------------------------------------
MEMORY 60 GB

molecule dimer {
-1 1
Cl         0.000000     0.000000     0.000000
Gh(O)      0.342923    -3.144879    -0.065421
Gh(H)      0.545982    -2.209152     0.245600
Gh(H)      0.550095    -3.627707     0.755600
Gh(O)      1.545164    -1.036990    -2.802892
Gh(H)      1.062947    -0.596055    -2.031424
Gh(H)      1.045874    -1.828531    -2.968351
Gh(O)     -2.202907    -0.562551    -2.232048
Gh(H)     -2.116080    -1.498992    -1.934838
Gh(H)     -1.695715    -0.086551    -1.598454
Gh(O)      2.746028     1.913676     0.329460
Gh(H)      1.934738     1.451620     0.279372
Gh(H)      3.036698     2.122048     1.297810

units ang
no_reorient
no_com
symmetry c1
}

set {
basis        aug-cc-pVTZ
scf_type     df
}

energy("mp2")
--------------------------------------------------------------------------

    Molecular point group: c1

    Geometry (in Angstrom), charge = -1, multiplicity = 1:

       Center              X                  Y                   Z               Mass
    ------------   -----------------  -----------------  -----------------  -----------------
         CL           0.000000000000     0.000000000000     0.000000000000    34.968852682000
      Gh(O)           0.342923000000    -3.144879000000    -0.065421000000    15.994914619570
      Gh(H)           0.545982000000    -2.209152000000     0.245600000000     1.007825032230
      Gh(H)           0.550095000000    -3.627707000000     0.755600000000     1.007825032230
      Gh(O)           1.545164000000    -1.036990000000    -2.802892000000    15.994914619570
      Gh(H)           1.062947000000    -0.596055000000    -2.031424000000     1.007825032230
      Gh(H)           1.045874000000    -1.828531000000    -2.968351000000     1.007825032230
      Gh(O)          -2.202907000000    -0.562551000000    -2.232048000000    15.994914619570
      Gh(H)          -2.116080000000    -1.498992000000    -1.934838000000     1.007825032230
      Gh(H)          -1.695715000000    -0.086551000000    -1.598454000000     1.007825032230
      Gh(O)           2.746028000000     1.913676000000     0.329460000000    15.994914619570
      Gh(H)           1.934738000000     1.451620000000     0.279372000000     1.007825032230
      Gh(H)           3.036698000000     2.122048000000     1.297810000000     1.007825032230

  Charge       = -1
  Multiplicity = 1
  Basis Set: AUG-CC-PVTZ
    Blend: AUG-CC-PVTZ
  Basis Set: (AUG-CC-PVTZ AUX)
    Blend: AUG-CC-PVTZ-JKFIT

    Orbital Energies [Eh]
    ---------------------

    Doubly Occupied:

       1A   -104.507042     2A    -10.230004     3A     -7.696068
       4A     -7.696060     5A     -7.696048     6A     -0.733473
       7A     -0.150315     8A     -0.150310     9A     -0.150308

  @DF-RHF Final Energy:  -459.57356328656175

   => Energetics <=

    Nuclear Repulsion Energy =              0.0000000000000000
    One-Electron Energy =                -641.1278841567589097
    Two-Electron Energy =                 181.5543208701971594
    Total Energy =                       -459.5735632865617504
 Dipole X            :          0.0003073            0.0000000            0.0003073
 Dipole Y            :         -0.0000596            0.0000000           -0.0000596
 Dipole Z            :         -0.0005034            0.0000000           -0.0005034
 Magnitude           :                                                    0.0005928
  Basis Set: (AUG-CC-PVTZ AUX)
    Blend: AUG-CC-PVTZ-RI
	 Reference Energy          =    -459.5735632865617504 [Eh]
	 Singles Energy            =      -0.0000000000000000 [Eh]
	 Same-Spin Energy          =      -0.0633222415587968 [Eh]
	 Opposite-Spin Energy      =      -0.1829573367850642 [Eh]
	 Correlation Energy        =      -0.2462795783438610 [Eh]
	 Total Energy              =    -459.8198428649056382 [Eh]

	 ================> DF-SCS-MP2 Energies <==================
	-----------------------------------------------------------
	 SCS Same-Spin Scale       =       0.3333333333333333 [-]
	 SCS Opposite-Spin Scale   =       1.2000000000000000 [-]
	 SCS Same-Spin Energy      =      -0.0211074138529323 [Eh]
	 SCS Opposite-Spin Energy  =      -0.2195488041420771 [Eh]
	 SCS Correlation Energy    =      -0.2406562179950094 [Eh]
	 SCS Total Energy          =    -459.8142195045567746 [Eh]
	-----------------------------------------------------------

*** Psi4 exiting successfully. Buy a developer a beer!
