                               Psi4 1.9 release

  ==> Input File <==

--------------------------------------------------------------------------
MEMORY 60 GB

molecule dimer {
-1 1
Cl     0.000000     0.000000     0.000000
--
0 1
O      2.392892    -2.249336     0.528916
H      1.674089    -1.706624     0.209313
H      2.557296    -2.872549    -0.137894
O      0.444889    -1.472921    -3.121234
H     -0.461387    -1.401078    -3.412750
H      0.507135    -1.039894    -2.245373
O     -3.046056    -0.925525     0.944484
H     -2.313189    -0.468576     0.501708
H     -3.729574    -0.239388     1.075466
O      3.113696     1.295050    -0.353510
H      2.241301     1.067437     0.024019
H      3.028581     1.517922    -1.237394
O     -0.067022     3.095066     0.593650
H      0.114241     3.470367    -0.335940
H     -0.162182     2.157073     0.397022
O      0.244648     0.314880     3.296093
H      0.874277     1.006974     3.592872
H      0.245306     0.331853     2.336846

units ang
no_reorient
no_com
symmetry c1
}

set {
basis        aug-cc-pVTZ
scf_type     df
}

energy("mp2", bsse_type="cp")
--------------------------------------------------------------------------

                               Psi4 1.9 release
    Molecular point group: c1
  Charge       = 0
  Multiplicity = 1
  Basis Set: AUG-CC-PVTZ
    Blend: AUG-CC-PVTZ
  Basis Set: (AUG-CC-PVTZ AUX)
    Blend: AUG-CC-PVTZ-JKFIT
  @DF-RHF Final Energy:  -456.33786727841709
    Total Energy =                       -456.3378672784170931
 Dipole X            :        -56.2673834           55.2561021           -1.0112813
 Dipole Y            :         -3.1762745            4.3108980            1.1346235
 Dipole Z            :        -31.9212340           29.9995666           -1.9216674
 Magnitude           :                                                    2.4500747
  Basis Set: (AUG-CC-PVTZ AUX)
    Blend: AUG-CC-PVTZ-RI
	 Reference Energy          =    -456.3378672784170931 [Eh]
	 Singles Energy            =      -0.0000000000000000 [Eh]
	 Same-Spin Energy          =      -0.4125134047502956 [Eh]
	 Opposite-Spin Energy      =      -1.2994384630527249 [Eh]
	 Correlation Energy        =      -1.7119518678030206 [Eh]
	 Total Energy              =    -458.0498191462201021 [Eh]
	 SCS Total Energy          =    -458.0346979023304357 [Eh]
                               Psi4 1.9 release
    Molecular point group: c1
  Multiplicity = 1
  Basis Set: AUG-CC-PVTZ
    Blend: AUG-CC-PVTZ
  Basis Set: (AUG-CC-PVTZ AUX)
    Blend: AUG-CC-PVTZ-JKFIT
  @DF-RHF Final Energy:  -459.57359265880888
    Total Energy =                       -459.5735926588088205
  Basis Set: (AUG-CC-PVTZ AUX)
	 Singles Energy            =      -0.0000000000000000 [Eh]
	 Same-Spin Energy          =      -0.0636846664877851 [Eh]
	 Opposite-Spin Energy      =      -0.1844001667300947 [Eh]
	 Correlation Energy        =      -0.2480848332178798 [Eh]
	 Total Energy              =    -459.8216774920267653 [Eh]
	 SCS Total Energy          =    -459.8161010810475773 [Eh]
                               Psi4 1.9 release
    Molecular point group: c1

    Geometry (in Bohr), charge = -1, multiplicity = 1:

       Center              X                  Y                   Z               Mass
    ------------   -----------------  -----------------  -----------------  -----------------
         CL           0.000000000000     0.000000000000     0.000000000000    34.968852682000
         O            4.521910527799    -4.250629004133     0.999506383373    15.994914619570
         H            3.163569719642    -3.225051959133     0.395544244498     1.007825032230
         H            4.832589061729    -5.428330891958    -0.260581894344     1.007825032230
         O            0.840718366229    -2.783417294435    -5.898277433467    15.994914619570
         H           -0.871895067847    -2.647653700404    -6.449162834656     1.007825032230
         H            0.958346258634    -1.965114859507    -4.243140019498     1.007825032230
         O           -5.756211602808    -1.748988772264     1.784816089877    15.994914619570
         H           -4.371293686422    -0.885480308963     0.948090714951     1.007825032230
         H           -7.047873424628    -0.452377757721     2.032336197242     1.007825032230
         O            5.884032677934     2.447289818774    -0.668037082611    15.994914619570
         H            4.235445054715     2.017163586180     0.045389331807     1.007825032230
         H            5.723188638765     2.868456859807    -2.338335769285     1.007825032230
         O           -0.126653224380     5.848827080216     1.121835914378    15.994914619570
         H            0.215884202298     6.558043184827    -0.634834594586     1.007825032230
         H           -0.306479562479     4.076277202620     0.750262845782     1.007825032230
         O            0.462317717141     0.595036962384     6.228713054039    15.994914619570
         H            1.652144087787     1.902905075457     6.789544083826     1.007825032230
         H            0.463561156932     0.627111283912     4.415998937372     1.007825032230

  Charge       = -1
  Multiplicity = 1
  Basis Set: AUG-CC-PVTZ
    Blend: AUG-CC-PVTZ
  Basis Set: (AUG-CC-PVTZ AUX)
    Blend: AUG-CC-PVTZ-JKFIT

    Orbital Energies [Eh]
    ---------------------

    Doubly Occupied:

       1A   -104.611755     2A    -20.442138     3A    -20.432463
       4A    -20.430910     5A    -20.421039     6A    -20.416122
       7A    -20.415186     8A    -10.337296     9A     -7.803424
      10A     -7.803377    11A     -7.803332    12A     -1.223638
      13A     -1.217496    14A     -1.214896    15A     -1.207894
      16A     -1.202299    17A     -1.195226    18A     -0.858236
      19A     -0.597132    20A     -0.595886    21A     -0.584168
      22A     -0.573546    23A     -0.566384    24A     -0.558363
      25A     -0.458200    26A     -0.452667    27A     -0.446843
      28A     -0.441928    29A     -0.439982    30A     -0.431170
      31A     -0.386583    32A     -0.375917    33A     -0.372602
      34A     -0.369800    35A     -0.363246    36A     -0.359110
      37A     -0.270296    38A     -0.268153    39A     -0.265289

  @DF-RHF Final Energy:  -915.99778999637624

   => Energetics <=

    Nuclear Repulsion Energy =            389.4456485620627859
    One-Electron Energy =               -2054.4588878608528830
    Two-Electron Energy =                 749.0154493024137992
    Total Energy =                       -915.9977899963762411
 Dipole X            :        -56.5222008           55.2561021           -1.2660987
 Dipole Y            :         -3.4108949            4.3108980            0.9000031
 Dipole Z            :        -32.0131946           29.9995666           -2.0136279
 Magnitude           :                                                    2.5431691
  Basis Set: (AUG-CC-PVTZ AUX)
    Blend: AUG-CC-PVTZ-RI
	 Reference Energy          =    -915.9977899963762411 [Eh]
	 Singles Energy            =      -0.0000000000000000 [Eh]
	 Same-Spin Energy          =      -0.4857498657448001 [Eh]
	 Opposite-Spin Energy      =      -1.4900555169976935 [Eh]
	 Correlation Energy        =      -1.9758053827424935 [Eh]
	 Total Energy              =    -917.9735953791187058 [Eh]

	 ================> DF-SCS-MP2 Energies <==================
	-----------------------------------------------------------
	 SCS Same-Spin Scale       =       0.3333333333333333 [-]
	 SCS Opposite-Spin Scale   =       1.2000000000000000 [-]
	 SCS Same-Spin Energy      =      -0.1619166219149333 [Eh]
	 SCS Opposite-Spin Energy  =      -1.7880666203972322 [Eh]
	 SCS Correlation Energy    =      -1.9499832423121655 [Eh]
	 SCS Total Energy          =    -917.9477732386884554 [Eh]
	-----------------------------------------------------------

*** Psi4 exiting successfully. Buy a developer a beer!
