                               Psi4 1.8.2 release

  ==> Input File <==

--------------------------------------------------------------------------
MEMORY 60 GB

molecule dimer {
-1 1
Cl         0.000000     0.000000     0.000000
O          1.179099    -2.702793    -1.094667
H          0.929403    -2.029129    -0.462359
H          1.092980    -3.573515    -0.633220
O          0.081134    -0.715370     3.048829
H          0.119206    -0.799922     2.117339
H          0.247800     0.236344     3.210993
O          3.112573     0.441417     0.245605
H          3.060093     0.433467     1.176247
H          2.153407     0.499648    -0.068952
O          1.136783     3.068748     0.881171
H          0.679395     2.461157     0.268662
H          1.062669     3.915090     0.427493

units ang
no_reorient
no_com
symmetry c1
}

set {
basis        aug-cc-pVTZ
scf_type     df
}

energy("mp2")
--------------------------------------------------------------------------

    Molecular point group: c1

    Geometry (in Angstrom), charge = -1, multiplicity = 1:

       Center              X                  Y                   Z               Mass
    ------------   -----------------  -----------------  -----------------  -----------------
         CL           0.000000000000     0.000000000000     0.000000000000    34.968852682000
         O            1.179099000000    -2.702793000000    -1.094667000000    15.994914619570
         H            0.929403000000    -2.029129000000    -0.462359000000     1.007825032230
         H            1.092980000000    -3.573515000000    -0.633220000000     1.007825032230
         O            0.081134000000    -0.715370000000     3.048829000000    15.994914619570
         H            0.119206000000    -0.799922000000     2.117339000000     1.007825032230
         H            0.247800000000     0.236344000000     3.210993000000     1.007825032230
         O            3.112573000000     0.441417000000     0.245605000000    15.994914619570
         H            3.060093000000     0.433467000000     1.176247000000     1.007825032230
         H            2.153407000000     0.499648000000    -0.068952000000     1.007825032230
         O            1.136783000000     3.068748000000     0.881171000000    15.994914619570
         H            0.679395000000     2.461157000000     0.268662000000     1.007825032230
         H            1.062669000000     3.915090000000     0.427493000000     1.007825032230

  Charge       = -1
  Multiplicity = 1
  Basis Set: AUG-CC-PVTZ
    Blend: AUG-CC-PVTZ
  Basis Set: (AUG-CC-PVTZ AUX)
    Blend: AUG-CC-PVTZ-JKFIT

    Orbital Energies [Eh]
    ---------------------

    Doubly Occupied:

       1A   -104.574845     2A    -20.433372     3A    -20.408257
       4A    -20.405356     5A    -20.389186     6A    -10.300249
       7A     -7.766358     8A     -7.766318     9A     -7.766259
      10A     -1.213769    11A     -1.195419    12A     -1.186082
      13A     -1.173461    14A     -0.819577    15A     -0.572572
      16A     -0.560533    17A     -0.556489    18A     -0.539220
      19A     -0.454024    20A     -0.433770    21A     -0.422559
      22A     -0.414518    23A     -0.376164    24A     -0.353812
      25A     -0.351384    26A     -0.334482    27A     -0.233321
      28A     -0.228011    29A     -0.227085

  @DF-RHF Final Energy:  -763.85496221701169

   => Energetics <=

    Nuclear Repulsion Energy =            226.4963159339677361
    One-Electron Energy =               -1517.7896430198411508
    Two-Electron Energy =                 527.4383648688617541
    Total Energy =                       -763.8549622170116891
 Dipole X            :       -102.6631760          100.9523160           -1.7108600
 Dipole Y            :         -2.8386976            3.5510902            0.7123926
 Dipole Z            :        -58.4353920           57.9838027           -0.4515893
 Magnitude           :                                                    1.9074795
  Basis Set: (AUG-CC-PVTZ AUX)
    Blend: AUG-CC-PVTZ-RI
	 Reference Energy          =    -763.8549622170116891 [Eh]
	 Singles Energy            =      -0.0000000000000000 [Eh]
	 Same-Spin Energy          =      -0.3465068225706884 [Eh]
	 Opposite-Spin Energy      =      -1.0551461901228247 [Eh]
	 Correlation Energy        =      -1.4016530126935132 [Eh]
	 Total Energy              =    -765.2566152297051758 [Eh]

	 ================> DF-SCS-MP2 Energies <==================
	-----------------------------------------------------------
	 SCS Same-Spin Scale       =       0.3333333333333333 [-]
	 SCS Opposite-Spin Scale   =       1.2000000000000000 [-]
	 SCS Same-Spin Energy      =      -0.1155022741902295 [Eh]
	 SCS Opposite-Spin Energy  =      -1.2661754281473896 [Eh]
	 SCS Correlation Energy    =      -1.3816777023376190 [Eh]
	 SCS Total Energy          =    -765.2366399193492725 [Eh]
	-----------------------------------------------------------

*** Psi4 exiting successfully. Buy a developer a beer!
