                               Psi4 1.8.2 release

  ==> Input File <==

--------------------------------------------------------------------------
MEMORY 60 GB

molecule dimer {
-1 1
Cl         0.000000     0.000000     0.000000
Gh(O)     -2.639249    -2.043355    -0.424183
Gh(H)     -1.808856    -1.471762    -0.429724
Gh(H)     -2.641062    -2.333764    -1.316977
Gh(O)      0.403629    -2.390235     2.477646
Gh(H)     -0.432481    -2.907837     2.347215
Gh(H)      0.412111    -1.672041     1.879690
Gh(O)     -0.714179     0.377929    -3.329396
Gh(H)     -1.198332    -0.133274    -2.628707
Gh(H)     -0.377953     1.213673    -2.933940
Gh(O)     -2.634641     1.896873     0.738049
Gh(H)     -1.800704     1.389428     0.628177
Gh(H)     -2.528308     2.751205     0.372104
Gh(O)      0.783633    -2.645861    -1.980641
Gh(H)      0.893785    -2.060143    -2.776260
Gh(H)      0.469594    -2.121247    -1.272007

units ang
no_reorient
no_com
symmetry c1
}

set {
basis        aug-cc-pVTZ
scf_type     df
}

energy("mp2")
--------------------------------------------------------------------------

    Molecular point group: c1

    Geometry (in Angstrom), charge = -1, multiplicity = 1:

       Center              X                  Y                   Z               Mass
    ------------   -----------------  -----------------  -----------------  -----------------
         CL           0.000000000000     0.000000000000     0.000000000000    34.968852682000
      Gh(O)          -2.639249000000    -2.043355000000    -0.424183000000    15.994914619570
      Gh(H)          -1.808856000000    -1.471762000000    -0.429724000000     1.007825032230
      Gh(H)          -2.641062000000    -2.333764000000    -1.316977000000     1.007825032230
      Gh(O)           0.403629000000    -2.390235000000     2.477646000000    15.994914619570
      Gh(H)          -0.432481000000    -2.907837000000     2.347215000000     1.007825032230
      Gh(H)           0.412111000000    -1.672041000000     1.879690000000     1.007825032230
      Gh(O)          -0.714179000000     0.377929000000    -3.329396000000    15.994914619570
      Gh(H)          -1.198332000000    -0.133274000000    -2.628707000000     1.007825032230
      Gh(H)          -0.377953000000     1.213673000000    -2.933940000000     1.007825032230
      Gh(O)          -2.634641000000     1.896873000000     0.738049000000    15.994914619570
      Gh(H)          -1.800704000000     1.389428000000     0.628177000000     1.007825032230
      Gh(H)          -2.528308000000     2.751205000000     0.372104000000     1.007825032230
      Gh(O)           0.783633000000    -2.645861000000    -1.980641000000    15.994914619570
      Gh(H)           0.893785000000    -2.060143000000    -2.776260000000     1.007825032230
      Gh(H)           0.469594000000    -2.121247000000    -1.272007000000     1.007825032230

  Charge       = -1
  Multiplicity = 1
  Basis Set: AUG-CC-PVTZ
    Blend: AUG-CC-PVTZ
  Basis Set: (AUG-CC-PVTZ AUX)
    Blend: AUG-CC-PVTZ-JKFIT

    Orbital Energies [Eh]
    ---------------------

    Doubly Occupied:

       1A   -104.507164     2A    -10.230036     3A     -7.696100
       4A     -7.696093     5A     -7.696083     6A     -0.733469
       7A     -0.150309     8A     -0.150309     9A     -0.150304

  @DF-RHF Final Energy:  -459.57356918954753

   => Energetics <=

    Nuclear Repulsion Energy =              0.0000000000000000
    One-Electron Energy =                -641.1274174003515327
    Two-Electron Energy =                 181.5538482108040057
    Total Energy =                       -459.5735691895475270
 Dipole X            :         -0.0004461            0.0000000           -0.0004461
 Dipole Y            :         -0.0003821            0.0000000           -0.0003821
 Dipole Z            :          0.0000353            0.0000000            0.0000353
 Magnitude           :                                                    0.0005884
  Basis Set: (AUG-CC-PVTZ AUX)
    Blend: AUG-CC-PVTZ-RI
	 Reference Energy          =    -459.5735691895475270 [Eh]
	 Singles Energy            =      -0.0000000000000000 [Eh]
	 Same-Spin Energy          =      -0.0633927115062157 [Eh]
	 Opposite-Spin Energy      =      -0.1830790122482764 [Eh]
	 Correlation Energy        =      -0.2464717237544920 [Eh]
	 Total Energy              =    -459.8200409133020230 [Eh]

	 ================> DF-SCS-MP2 Energies <==================
	-----------------------------------------------------------
	 SCS Same-Spin Scale       =       0.3333333333333333 [-]
	 SCS Opposite-Spin Scale   =       1.2000000000000000 [-]
	 SCS Same-Spin Energy      =      -0.0211309038354052 [Eh]
	 SCS Opposite-Spin Energy  =      -0.2196948146979316 [Eh]
	 SCS Correlation Energy    =      -0.2408257185333368 [Eh]
	 SCS Total Energy          =    -459.8143949080808852 [Eh]
	-----------------------------------------------------------

*** Psi4 exiting successfully. Buy a developer a beer!
