                               Psi4 1.8.2 release

  ==> Input File <==

--------------------------------------------------------------------------
MEMORY 60 GB

molecule dimer {
-1 1
Cl         0.000000     0.000000     0.000000
O          2.141828    -1.926721     1.172770
H          2.506845    -2.704525     0.813382
H          1.387579    -1.666552     0.663666
O         -1.667403    -0.134156    -2.964265
H         -1.403386     0.216697    -2.118502
H         -1.930230     0.658899    -3.498868
O          1.685848     1.175691    -2.172477
H          2.426841     0.570382    -2.393280
H          1.275175     0.748865    -1.444869
O         -2.150305    -0.295435     2.705843
H         -1.521020    -0.158825     2.012721
H         -1.597698    -0.371338     3.511263
O         -2.367779    -2.039496    -0.941391
H         -1.594146    -1.458780    -0.729704
H         -2.441774    -2.608355    -0.193390

units ang
no_reorient
no_com
symmetry c1
}

set {
basis        aug-cc-pVTZ
scf_type     df
}

energy("mp2")
--------------------------------------------------------------------------

    Molecular point group: c1

    Geometry (in Angstrom), charge = -1, multiplicity = 1:

       Center              X                  Y                   Z               Mass
    ------------   -----------------  -----------------  -----------------  -----------------
         CL           0.000000000000     0.000000000000     0.000000000000    34.968852682000
         O            2.141828000000    -1.926721000000     1.172770000000    15.994914619570
         H            2.506845000000    -2.704525000000     0.813382000000     1.007825032230
         H            1.387579000000    -1.666552000000     0.663666000000     1.007825032230
         O           -1.667403000000    -0.134156000000    -2.964265000000    15.994914619570
         H           -1.403386000000     0.216697000000    -2.118502000000     1.007825032230
         H           -1.930230000000     0.658899000000    -3.498868000000     1.007825032230
         O            1.685848000000     1.175691000000    -2.172477000000    15.994914619570
         H            2.426841000000     0.570382000000    -2.393280000000     1.007825032230
         H            1.275175000000     0.748865000000    -1.444869000000     1.007825032230
         O           -2.150305000000    -0.295435000000     2.705843000000    15.994914619570
         H           -1.521020000000    -0.158825000000     2.012721000000     1.007825032230
         H           -1.597698000000    -0.371338000000     3.511263000000     1.007825032230
         O           -2.367779000000    -2.039496000000    -0.941391000000    15.994914619570
         H           -1.594146000000    -1.458780000000    -0.729704000000     1.007825032230
         H           -2.441774000000    -2.608355000000    -0.193390000000     1.007825032230

  Charge       = -1
  Multiplicity = 1
  Basis Set: AUG-CC-PVTZ
    Blend: AUG-CC-PVTZ
  Basis Set: (AUG-CC-PVTZ AUX)
    Blend: AUG-CC-PVTZ-JKFIT

    Orbital Energies [Eh]
    ---------------------

    Doubly Occupied:

       1A   -104.589135     2A    -20.429827     3A    -20.418137
       4A    -20.413361     5A    -20.401854     6A    -20.399942
       7A    -10.314996     8A     -7.781105     9A     -7.781047
      10A     -7.781027    11A     -1.219042    12A     -1.214218
      13A     -1.193283    14A     -1.192016    15A     -1.184179
      16A     -0.837690    17A     -0.597617    18A     -0.576994
      19A     -0.565976    20A     -0.555584    21A     -0.541498
      22A     -0.451413    23A     -0.440692    24A     -0.433560
      25A     -0.430538    26A     -0.419295    27A     -0.374343
      28A     -0.370530    29A     -0.357670    30A     -0.347821
      31A     -0.344263    32A     -0.247642    33A     -0.246475
      34A     -0.244408

  @DF-RHF Final Energy:  -839.92235018943904

   => Energetics <=

    Nuclear Repulsion Energy =            305.1275778057312777
    One-Electron Energy =               -1780.7055029058476521
    Two-Electron Energy =                 635.6555749106772737
    Total Energy =                       -839.9223501894390438
 Dipole X            :         42.3652353          -41.1096728            1.2555624
 Dipole Y            :         61.6159239          -61.4812342            0.1346898
 Dipole Z            :         40.5034664          -39.6346263            0.8688401
 Magnitude           :                                                    1.5327953
  Basis Set: (AUG-CC-PVTZ AUX)
    Blend: AUG-CC-PVTZ-RI
	 Reference Energy          =    -839.9223501894390438 [Eh]
	 Singles Energy            =      -0.0000000000000000 [Eh]
	 Same-Spin Energy          =      -0.4167789985931390 [Eh]
	 Opposite-Spin Energy      =      -1.2728172311234756 [Eh]
	 Correlation Energy        =      -1.6895962297166145 [Eh]
	 Total Energy              =    -841.6119464191556290 [Eh]

	 ================> DF-SCS-MP2 Energies <==================
	-----------------------------------------------------------
	 SCS Same-Spin Scale       =       0.3333333333333333 [-]
	 SCS Opposite-Spin Scale   =       1.2000000000000000 [-]
	 SCS Same-Spin Energy      =      -0.1389263328643797 [Eh]
	 SCS Opposite-Spin Energy  =      -1.5273806773481706 [Eh]
	 SCS Correlation Energy    =      -1.6663070102125503 [Eh]
	 SCS Total Energy          =    -841.5886571996516068 [Eh]
	-----------------------------------------------------------

*** Psi4 exiting successfully. Buy a developer a beer!
