                               Psi4 1.8.2 release

  ==> Input File <==

--------------------------------------------------------------------------
MEMORY 60 GB

molecule dimer {
0 1
Gh(Cl)     0.000000     0.000000     0.000000
Gh(O)      0.276022    -1.334830     2.896328
Gh(H)     -0.211761    -1.725104     2.182119
Gh(H)      0.225626    -0.372405     2.733340
Gh(O)     -0.259441    -2.755488    -2.002064
Gh(H)     -0.286332    -3.342753    -1.273505
Gh(H)     -0.138063    -1.901984    -1.552411
O         -1.584387     2.452541    -1.393069
H         -0.945988     3.217678    -1.519608
H         -1.143003     1.748347    -0.885128
Gh(O)      3.243922     0.276549    -1.143430
Gh(H)      3.813885    -0.022833    -1.928896
Gh(H)      3.119205    -0.556862    -0.576049
Gh(O)      0.948908     1.827757    -2.782125
Gh(H)      0.552450     2.669854    -3.084036
Gh(H)      1.588809     1.979159    -2.100038
Gh(O)     -1.225019     2.327001     2.155250
Gh(H)     -1.056340     1.708565     1.443285
Gh(H)     -0.593127     1.978656     2.772432
Gh(O)     -2.840213    -1.201275     0.058620
Gh(H)     -2.064020    -0.701230    -0.168248
Gh(H)     -2.637975    -1.778049     0.799946
Gh(O)      2.501855    -2.019999     0.703643
Gh(H)      3.050098    -1.823498     1.470441
Gh(H)      1.634282    -1.604580     0.874442

units ang
no_reorient
no_com
symmetry c1
}

set {
basis        aug-cc-pVTZ
scf_type     df
}

energy("mp2")
--------------------------------------------------------------------------

    Molecular point group: c1

    Geometry (in Angstrom), charge = 0, multiplicity = 1:

       Center              X                  Y                   Z               Mass
    ------------   -----------------  -----------------  -----------------  -----------------
      Gh(CL)          0.000000000000     0.000000000000     0.000000000000    34.968852682000
      Gh(O)           0.276022000000    -1.334830000000     2.896328000000    15.994914619570
      Gh(H)          -0.211761000000    -1.725104000000     2.182119000000     1.007825032230
      Gh(H)           0.225626000000    -0.372405000000     2.733340000000     1.007825032230
      Gh(O)          -0.259441000000    -2.755488000000    -2.002064000000    15.994914619570
      Gh(H)          -0.286332000000    -3.342753000000    -1.273505000000     1.007825032230
      Gh(H)          -0.138063000000    -1.901984000000    -1.552411000000     1.007825032230
         O           -1.584387000000     2.452541000000    -1.393069000000    15.994914619570
         H           -0.945988000000     3.217678000000    -1.519608000000     1.007825032230
         H           -1.143003000000     1.748347000000    -0.885128000000     1.007825032230
      Gh(O)           3.243922000000     0.276549000000    -1.143430000000    15.994914619570
      Gh(H)           3.813885000000    -0.022833000000    -1.928896000000     1.007825032230
      Gh(H)           3.119205000000    -0.556862000000    -0.576049000000     1.007825032230
      Gh(O)           0.948908000000     1.827757000000    -2.782125000000    15.994914619570
      Gh(H)           0.552450000000     2.669854000000    -3.084036000000     1.007825032230
      Gh(H)           1.588809000000     1.979159000000    -2.100038000000     1.007825032230
      Gh(O)          -1.225019000000     2.327001000000     2.155250000000    15.994914619570
      Gh(H)          -1.056340000000     1.708565000000     1.443285000000     1.007825032230
      Gh(H)          -0.593127000000     1.978656000000     2.772432000000     1.007825032230
      Gh(O)          -2.840213000000    -1.201275000000     0.058620000000    15.994914619570
      Gh(H)          -2.064020000000    -0.701230000000    -0.168248000000     1.007825032230
      Gh(H)          -2.637975000000    -1.778049000000     0.799946000000     1.007825032230
      Gh(O)           2.501855000000    -2.019999000000     0.703643000000    15.994914619570
      Gh(H)           3.050098000000    -1.823498000000     1.470441000000     1.007825032230
      Gh(H)           1.634282000000    -1.604580000000     0.874442000000     1.007825032230

  Charge       = 0
  Multiplicity = 1
  Basis Set: AUG-CC-PVTZ
    Blend: AUG-CC-PVTZ
  Basis Set: (AUG-CC-PVTZ AUX)
    Blend: AUG-CC-PVTZ-JKFIT

    Orbital Energies [Eh]
    ---------------------

    Doubly Occupied:

       1A    -20.570331     2A     -1.334709     3A     -0.708826
       4A     -0.569735     5A     -0.506321

  @DF-RHF Final Energy:   -76.05584920860161

   => Energetics <=

    Nuclear Repulsion Energy =              8.8889966521981698
    One-Electron Energy =                -122.5098457643371717
    Two-Electron Energy =                  37.5649999035373696
    Total Energy =                        -76.0558492086016287
 Dipole X            :         28.6136985          -27.9000809            0.7136175
 Dipole Y            :        -46.4254666           46.4614736            0.0360070
 Dipole Z            :         25.8584550          -25.6044435            0.2540115
 Magnitude           :                                                    0.7583326
  Basis Set: (AUG-CC-PVTZ AUX)
    Blend: AUG-CC-PVTZ-RI
	 Reference Energy          =     -76.0558492086016145 [Eh]
	 Singles Energy            =      -0.0000000000000000 [Eh]
	 Same-Spin Energy          =      -0.0689072240621479 [Eh]
	 Opposite-Spin Energy      =      -0.2177356051067244 [Eh]
	 Correlation Energy        =      -0.2866428291688723 [Eh]
	 Total Energy              =     -76.3424920377704836 [Eh]

	 ================> DF-SCS-MP2 Energies <==================
	-----------------------------------------------------------
	 SCS Same-Spin Scale       =       0.3333333333333333 [-]
	 SCS Opposite-Spin Scale   =       1.2000000000000000 [-]
	 SCS Same-Spin Energy      =      -0.0229690746873826 [Eh]
	 SCS Opposite-Spin Energy  =      -0.2612827261280692 [Eh]
	 SCS Correlation Energy    =      -0.2842518008154519 [Eh]
	 SCS Total Energy          =     -76.3401010094170687 [Eh]
	-----------------------------------------------------------

*** Psi4 exiting successfully. Buy a developer a beer!
