                               Psi4 1.8.2 release

  ==> Input File <==

--------------------------------------------------------------------------
MEMORY 60 GB

molecule dimer {
0 1
Gh(Cl)     0.000000     0.000000     0.000000
O         -1.887462     1.759263    -1.908827
H         -1.684973     2.623036    -1.580712
H         -1.372629     1.128349    -1.354219
Gh(O)      1.979243     1.684440    -2.294030
Gh(H)      1.547830     1.066723    -1.667111
Gh(H)      2.789329     1.271431    -2.500265
Gh(O)     -1.641072    -1.911453    -2.234674
Gh(H)     -1.064893    -1.354365    -2.735456
Gh(H)     -1.296369    -1.998155    -1.293359
Gh(O)      2.931788    -1.481190    -0.142517
Gh(H)      2.057624    -1.036918    -0.175552
Gh(H)      2.844147    -2.259211    -0.698520
Gh(O)     -1.946670    -2.468133     1.004829
Gh(H)     -2.564726    -2.415913     0.241229
Gh(H)     -1.269559    -1.745242     0.820587

units ang
no_reorient
no_com
symmetry c1
}

set {
basis        aug-cc-pVTZ
scf_type     df
}

energy("mp2")
--------------------------------------------------------------------------

    Molecular point group: c1

    Geometry (in Angstrom), charge = 0, multiplicity = 1:

       Center              X                  Y                   Z               Mass
    ------------   -----------------  -----------------  -----------------  -----------------
      Gh(CL)          0.000000000000     0.000000000000     0.000000000000    34.968852682000
         O           -1.887462000000     1.759263000000    -1.908827000000    15.994914619570
         H           -1.684973000000     2.623036000000    -1.580712000000     1.007825032230
         H           -1.372629000000     1.128349000000    -1.354219000000     1.007825032230
      Gh(O)           1.979243000000     1.684440000000    -2.294030000000    15.994914619570
      Gh(H)           1.547830000000     1.066723000000    -1.667111000000     1.007825032230
      Gh(H)           2.789329000000     1.271431000000    -2.500265000000     1.007825032230
      Gh(O)          -1.641072000000    -1.911453000000    -2.234674000000    15.994914619570
      Gh(H)          -1.064893000000    -1.354365000000    -2.735456000000     1.007825032230
      Gh(H)          -1.296369000000    -1.998155000000    -1.293359000000     1.007825032230
      Gh(O)           2.931788000000    -1.481190000000    -0.142517000000    15.994914619570
      Gh(H)           2.057624000000    -1.036918000000    -0.175552000000     1.007825032230
      Gh(H)           2.844147000000    -2.259211000000    -0.698520000000     1.007825032230
      Gh(O)          -1.946670000000    -2.468133000000     1.004829000000    15.994914619570
      Gh(H)          -2.564726000000    -2.415913000000     0.241229000000     1.007825032230
      Gh(H)          -1.269559000000    -1.745242000000     0.820587000000     1.007825032230

  Charge       = 0
  Multiplicity = 1
  Basis Set: AUG-CC-PVTZ
    Blend: AUG-CC-PVTZ
  Basis Set: (AUG-CC-PVTZ AUX)
    Blend: AUG-CC-PVTZ-JKFIT

    Orbital Energies [Eh]
    ---------------------

    Doubly Occupied:

       1A    -20.567816     2A     -1.348520     3A     -0.716402
       4A     -0.580042     5A     -0.509209

  @DF-RHF Final Energy:   -76.05926526142503

   => Energetics <=

    Nuclear Repulsion Energy =              9.1150956794679203
    One-Electron Energy =                -122.9047406859500171
    Two-Electron Energy =                  37.7303797450570642
    Total Energy =                        -76.0592652614250255
 Dipole X            :         34.7883641          -34.3123204            0.4760437
 Dipole Y            :        -33.5242755           33.6852923            0.1610168
 Dipole Z            :         34.9900373          -34.4034978            0.5865396
 Magnitude           :                                                    0.7723811
  Basis Set: (AUG-CC-PVTZ AUX)
    Blend: AUG-CC-PVTZ-RI
	 Reference Energy          =     -76.0592652614250255 [Eh]
	 Singles Energy            =      -0.0000000000000000 [Eh]
	 Same-Spin Energy          =      -0.0685035733713609 [Eh]
	 Opposite-Spin Energy      =      -0.2162341894921556 [Eh]
	 Correlation Energy        =      -0.2847377628635165 [Eh]
	 Total Energy              =     -76.3440030242885399 [Eh]

	 ================> DF-SCS-MP2 Energies <==================
	-----------------------------------------------------------
	 SCS Same-Spin Scale       =       0.3333333333333333 [-]
	 SCS Opposite-Spin Scale   =       1.2000000000000000 [-]
	 SCS Same-Spin Energy      =      -0.0228345244571203 [Eh]
	 SCS Opposite-Spin Energy  =      -0.2594810273905867 [Eh]
	 SCS Correlation Energy    =      -0.2823155518477070 [Eh]
	 SCS Total Energy          =     -76.3415808132727278 [Eh]
	-----------------------------------------------------------

*** Psi4 exiting successfully. Buy a developer a beer!
