                               Psi4 1.8.2 release

  ==> Input File <==

--------------------------------------------------------------------------
MEMORY 60 GB

molecule dimer {
-1 1
Cl         0.000000     0.000000     0.000000
Gh(O)     -1.699511    -2.602859     1.388887
Gh(H)     -1.009799    -3.281339     1.476309
Gh(H)     -1.370004    -1.833268     0.834273
Gh(O)      2.047824    -2.283636     1.627081
Gh(H)      2.928790    -2.527615     1.228704
Gh(H)      2.063927    -1.332444     1.617770
Gh(O)     -2.694511     1.035503     1.396479
Gh(H)     -3.182629     0.216460     1.160035
Gh(H)     -1.779856     0.860726     1.190389
Gh(O)      1.374557    -2.211274    -1.879035
Gh(H)      1.185050    -3.173037    -1.766271
Gh(H)      1.030023    -1.776112    -1.054907
Gh(O)     -1.324787    -2.152761    -2.403691
Gh(H)     -0.760749    -1.736481    -1.759069
Gh(H)     -0.832269    -2.768136    -2.931446

units ang
no_reorient
no_com
symmetry c1
}

set {
basis        aug-cc-pVTZ
scf_type     df
}

energy("mp2")
--------------------------------------------------------------------------

    Molecular point group: c1

    Geometry (in Angstrom), charge = -1, multiplicity = 1:

       Center              X                  Y                   Z               Mass
    ------------   -----------------  -----------------  -----------------  -----------------
         CL           0.000000000000     0.000000000000     0.000000000000    34.968852682000
      Gh(O)          -1.699511000000    -2.602859000000     1.388887000000    15.994914619570
      Gh(H)          -1.009799000000    -3.281339000000     1.476309000000     1.007825032230
      Gh(H)          -1.370004000000    -1.833268000000     0.834273000000     1.007825032230
      Gh(O)           2.047824000000    -2.283636000000     1.627081000000    15.994914619570
      Gh(H)           2.928790000000    -2.527615000000     1.228704000000     1.007825032230
      Gh(H)           2.063927000000    -1.332444000000     1.617770000000     1.007825032230
      Gh(O)          -2.694511000000     1.035503000000     1.396479000000    15.994914619570
      Gh(H)          -3.182629000000     0.216460000000     1.160035000000     1.007825032230
      Gh(H)          -1.779856000000     0.860726000000     1.190389000000     1.007825032230
      Gh(O)           1.374557000000    -2.211274000000    -1.879035000000    15.994914619570
      Gh(H)           1.185050000000    -3.173037000000    -1.766271000000     1.007825032230
      Gh(H)           1.030023000000    -1.776112000000    -1.054907000000     1.007825032230
      Gh(O)          -1.324787000000    -2.152761000000    -2.403691000000    15.994914619570
      Gh(H)          -0.760749000000    -1.736481000000    -1.759069000000     1.007825032230
      Gh(H)          -0.832269000000    -2.768136000000    -2.931446000000     1.007825032230

  Charge       = -1
  Multiplicity = 1
  Basis Set: AUG-CC-PVTZ
    Blend: AUG-CC-PVTZ
  Basis Set: (AUG-CC-PVTZ AUX)
    Blend: AUG-CC-PVTZ-JKFIT

    Orbital Energies [Eh]
    ---------------------

    Doubly Occupied:

       1A   -104.507088     2A    -10.230016     3A     -7.696089
       4A     -7.696077     5A     -7.696051     6A     -0.733470
       7A     -0.150313     8A     -0.150308     9A     -0.150307

  @DF-RHF Final Energy:  -459.57356579361209

   => Energetics <=

    Nuclear Repulsion Energy =              0.0000000000000000
    One-Electron Energy =                -641.1277048377212395
    Two-Electron Energy =                 181.5541390441091778
    Total Energy =                       -459.5735657936120333
 Dipole X            :         -0.0003605            0.0000000           -0.0003605
 Dipole Y            :         -0.0004142            0.0000000           -0.0004142
 Dipole Z            :         -0.0000327            0.0000000           -0.0000327
 Magnitude           :                                                    0.0005501
  Basis Set: (AUG-CC-PVTZ AUX)
    Blend: AUG-CC-PVTZ-RI
	 Reference Energy          =    -459.5735657936120901 [Eh]
	 Singles Energy            =      -0.0000000000000000 [Eh]
	 Same-Spin Energy          =      -0.0633445994848749 [Eh]
	 Opposite-Spin Energy      =      -0.1830026687222311 [Eh]
	 Correlation Energy        =      -0.2463472682071060 [Eh]
	 Total Energy              =    -459.8199130618191930 [Eh]

	 ================> DF-SCS-MP2 Energies <==================
	-----------------------------------------------------------
	 SCS Same-Spin Scale       =       0.3333333333333333 [-]
	 SCS Opposite-Spin Scale   =       1.2000000000000000 [-]
	 SCS Same-Spin Energy      =      -0.0211148664949583 [Eh]
	 SCS Opposite-Spin Energy  =      -0.2196032024666774 [Eh]
	 SCS Correlation Energy    =      -0.2407180689616357 [Eh]
	 SCS Total Energy          =    -459.8142838625737454 [Eh]
	-----------------------------------------------------------

*** Psi4 exiting successfully. Buy a developer a beer!
