                               Psi4 1.8.2 release

  ==> Input File <==

--------------------------------------------------------------------------
MEMORY 60 GB

molecule dimer {
-1 1
Cl         0.000000     0.000000     0.000000
Gh(O)      1.697875     2.812156    -0.064854
Gh(H)      1.661557     3.150216     0.885145
Gh(H)      1.369173     1.911949    -0.005570
Gh(O)      2.612789    -0.037192     1.821798
Gh(H)      1.866734    -0.055376     1.210788
Gh(H)      3.305740     0.353047     1.299827
Gh(O)     -0.939614    -2.784060    -1.739328
Gh(H)     -1.213754    -3.715577    -1.660327
Gh(H)     -0.254384    -2.702145    -1.078967
Gh(O)     -0.798589     1.117862     3.058410
Gh(H)     -0.409022     0.795271     3.907486
Gh(H)     -0.301269     0.718251     2.313142
Gh(O)     -3.076715     0.941408     0.114922
Gh(H)     -2.926424     0.271835    -0.596134
Gh(H)     -2.124851     1.261653     0.395401

units ang
no_reorient
no_com
symmetry c1
}

set {
basis        aug-cc-pVTZ
scf_type     df
}

energy("mp2")
--------------------------------------------------------------------------

    Molecular point group: c1

    Geometry (in Angstrom), charge = -1, multiplicity = 1:

       Center              X                  Y                   Z               Mass
    ------------   -----------------  -----------------  -----------------  -----------------
         CL           0.000000000000     0.000000000000     0.000000000000    34.968852682000
      Gh(O)           1.697875000000     2.812156000000    -0.064854000000    15.994914619570
      Gh(H)           1.661557000000     3.150216000000     0.885145000000     1.007825032230
      Gh(H)           1.369173000000     1.911949000000    -0.005570000000     1.007825032230
      Gh(O)           2.612789000000    -0.037192000000     1.821798000000    15.994914619570
      Gh(H)           1.866734000000    -0.055376000000     1.210788000000     1.007825032230
      Gh(H)           3.305740000000     0.353047000000     1.299827000000     1.007825032230
      Gh(O)          -0.939614000000    -2.784060000000    -1.739328000000    15.994914619570
      Gh(H)          -1.213754000000    -3.715577000000    -1.660327000000     1.007825032230
      Gh(H)          -0.254384000000    -2.702145000000    -1.078967000000     1.007825032230
      Gh(O)          -0.798589000000     1.117862000000     3.058410000000    15.994914619570
      Gh(H)          -0.409022000000     0.795271000000     3.907486000000     1.007825032230
      Gh(H)          -0.301269000000     0.718251000000     2.313142000000     1.007825032230
      Gh(O)          -3.076715000000     0.941408000000     0.114922000000    15.994914619570
      Gh(H)          -2.926424000000     0.271835000000    -0.596134000000     1.007825032230
      Gh(H)          -2.124851000000     1.261653000000     0.395401000000     1.007825032230

  Charge       = -1
  Multiplicity = 1
  Basis Set: AUG-CC-PVTZ
    Blend: AUG-CC-PVTZ
  Basis Set: (AUG-CC-PVTZ AUX)
    Blend: AUG-CC-PVTZ-JKFIT

    Orbital Energies [Eh]
    ---------------------

    Doubly Occupied:

       1A   -104.507142     2A    -10.230030     3A     -7.696101
       4A     -7.696087     5A     -7.696068     6A     -0.733469
       7A     -0.150314     8A     -0.150308     9A     -0.150301

  @DF-RHF Final Energy:  -459.57356847489831

   => Energetics <=

    Nuclear Repulsion Energy =              0.0000000000000000
    One-Electron Energy =                -641.1275094454405235
    Two-Electron Energy =                 181.5539409705422429
    Total Energy =                       -459.5735684748982521
 Dipole X            :          0.0000983            0.0000000            0.0000983
 Dipole Y            :          0.0000941            0.0000000            0.0000941
 Dipole Z            :          0.0001928            0.0000000            0.0001928
 Magnitude           :                                                    0.0002360
  Basis Set: (AUG-CC-PVTZ AUX)
    Blend: AUG-CC-PVTZ-RI
	 Reference Energy          =    -459.5735684748983090 [Eh]
	 Singles Energy            =      -0.0000000000000000 [Eh]
	 Same-Spin Energy          =      -0.0634171748209301 [Eh]
	 Opposite-Spin Energy      =      -0.1832539206571128 [Eh]
	 Correlation Energy        =      -0.2466710954780428 [Eh]
	 Total Energy              =    -459.8202395703763727 [Eh]

	 ================> DF-SCS-MP2 Energies <==================
	-----------------------------------------------------------
	 SCS Same-Spin Scale       =       0.3333333333333333 [-]
	 SCS Opposite-Spin Scale   =       1.2000000000000000 [-]
	 SCS Same-Spin Energy      =      -0.0211390582736434 [Eh]
	 SCS Opposite-Spin Energy  =      -0.2199047047885353 [Eh]
	 SCS Correlation Energy    =      -0.2410437630621787 [Eh]
	 SCS Total Energy          =    -459.8146122379604890 [Eh]
	-----------------------------------------------------------

*** Psi4 exiting successfully. Buy a developer a beer!
