                               Psi4 1.8.2 release

  ==> Input File <==

--------------------------------------------------------------------------
MEMORY 60 GB

molecule dimer {
-1 1
Cl         0.000000     0.000000     0.000000
O         -0.212648    -0.458124    -3.393214
H         -0.448749    -1.349680    -3.579356
H          0.402197    -0.522361    -2.656061
O          2.027595    -1.452571     2.158350
H          2.804391    -1.701626     1.514130
H          1.635052    -0.772877     1.583500
O          0.444892    -2.976621    -0.997622
H          0.671190    -2.173167    -0.459218
H          1.108987    -3.642094    -0.739784
O         -1.886927    -2.865595     0.501677
H         -2.776314    -2.613300     0.315070
H         -1.242520    -2.183692     0.152953
O         -1.815396     0.378644     2.887949
H         -1.393814     0.212010     2.034179
H         -2.619610     0.917524     2.698395

units ang
no_reorient
no_com
symmetry c1
}

set {
basis        aug-cc-pVTZ
scf_type     df
}

energy("mp2")
--------------------------------------------------------------------------

    Molecular point group: c1

    Geometry (in Angstrom), charge = -1, multiplicity = 1:

       Center              X                  Y                   Z               Mass
    ------------   -----------------  -----------------  -----------------  -----------------
         CL           0.000000000000     0.000000000000     0.000000000000    34.968852682000
         O           -0.212648000000    -0.458124000000    -3.393214000000    15.994914619570
         H           -0.448749000000    -1.349680000000    -3.579356000000     1.007825032230
         H            0.402197000000    -0.522361000000    -2.656061000000     1.007825032230
         O            2.027595000000    -1.452571000000     2.158350000000    15.994914619570
         H            2.804391000000    -1.701626000000     1.514130000000     1.007825032230
         H            1.635052000000    -0.772877000000     1.583500000000     1.007825032230
         O            0.444892000000    -2.976621000000    -0.997622000000    15.994914619570
         H            0.671190000000    -2.173167000000    -0.459218000000     1.007825032230
         H            1.108987000000    -3.642094000000    -0.739784000000     1.007825032230
         O           -1.886927000000    -2.865595000000     0.501677000000    15.994914619570
         H           -2.776314000000    -2.613300000000     0.315070000000     1.007825032230
         H           -1.242520000000    -2.183692000000     0.152953000000     1.007825032230
         O           -1.815396000000     0.378644000000     2.887949000000    15.994914619570
         H           -1.393814000000     0.212010000000     2.034179000000     1.007825032230
         H           -2.619610000000     0.917524000000     2.698395000000     1.007825032230

  Charge       = -1
  Multiplicity = 1
  Basis Set: AUG-CC-PVTZ
    Blend: AUG-CC-PVTZ
  Basis Set: (AUG-CC-PVTZ AUX)
    Blend: AUG-CC-PVTZ-JKFIT

    Orbital Energies [Eh]
    ---------------------

    Doubly Occupied:

       1A   -104.580848     2A    -20.433344     3A    -20.426695
       4A    -20.420913     5A    -20.418212     6A    -20.399707
       7A    -10.305706     8A     -7.771825     9A     -7.771774
      10A     -7.771751    11A     -1.212874    12A     -1.202575
      13A     -1.193277    14A     -1.192953    15A     -1.178769
      16A     -0.821972    17A     -0.577794    18A     -0.575986
      19A     -0.561548    20A     -0.551546    21A     -0.534707
      22A     -0.452523    23A     -0.447871    24A     -0.440540
      25A     -0.431439    26A     -0.409932    27A     -0.372280
      28A     -0.368528    29A     -0.367003    30A     -0.359684
      31A     -0.339335    32A     -0.236372    33A     -0.233367
      34A     -0.232541

  @DF-RHF Final Energy:  -839.90648995890206

   => Energetics <=

    Nuclear Repulsion Energy =            305.7280490700923679
    One-Electron Energy =               -1782.0766937532675911
    Two-Electron Energy =                 636.4421547242732231
    Total Energy =                       -839.9064899589020570
 Dipole X            :         25.9662433          -25.3205575            0.6456858
 Dipole Y            :        138.8139406         -137.6162796            1.1976610
 Dipole Z            :        -20.1985135           19.1257821           -1.0727315
 Magnitude           :                                                    1.7326439
  Basis Set: (AUG-CC-PVTZ AUX)
    Blend: AUG-CC-PVTZ-RI
	 Reference Energy          =    -839.9064899589020570 [Eh]
	 Singles Energy            =      -0.0000000000000000 [Eh]
	 Same-Spin Energy          =      -0.4173078940998028 [Eh]
	 Opposite-Spin Energy      =      -1.2758422215111969 [Eh]
	 Correlation Energy        =      -1.6931501156109996 [Eh]
	 Total Energy              =    -841.5996400745131041 [Eh]

	 ================> DF-SCS-MP2 Energies <==================
	-----------------------------------------------------------
	 SCS Same-Spin Scale       =       0.3333333333333333 [-]
	 SCS Opposite-Spin Scale   =       1.2000000000000000 [-]
	 SCS Same-Spin Energy      =      -0.1391026313666009 [Eh]
	 SCS Opposite-Spin Energy  =      -1.5310106658134361 [Eh]
	 SCS Correlation Energy    =      -1.6701132971800370 [Eh]
	 SCS Total Energy          =    -841.5766032560820804 [Eh]
	-----------------------------------------------------------

*** Psi4 exiting successfully. Buy a developer a beer!
