                               Psi4 1.8.2 release

  ==> Input File <==

--------------------------------------------------------------------------
MEMORY 60 GB

molecule dimer {
0 1
Gh(Cl)     0.000000     0.000000     0.000000
Gh(O)     -2.600905     1.445698    -1.428595
Gh(H)     -1.790172     1.295780    -0.990803
Gh(H)     -3.218459     1.075372    -0.808474
Gh(O)      2.556836    -0.273321    -1.884433
Gh(H)      2.745727     0.656644    -1.914035
Gh(H)      1.812438    -0.439596    -1.281958
O          0.128714     1.450045    -3.075572
H         -0.229456     0.608282    -2.936136
H         -0.138427     1.712452    -3.979438
Gh(O)     -2.771257    -1.686210    -0.586807
Gh(H)     -3.517746    -1.038339    -0.414869
Gh(H)     -1.928754    -1.210524    -0.518702
Gh(O)      0.192091    -2.999964     0.775908
Gh(H)     -0.347009    -3.250786     1.545106
Gh(H)     -0.004976    -2.092468     0.545800

units ang
no_reorient
no_com
symmetry c1
}

set {
basis        aug-cc-pVTZ
scf_type     df
}

energy("mp2")
--------------------------------------------------------------------------

    Molecular point group: c1

    Geometry (in Angstrom), charge = 0, multiplicity = 1:

       Center              X                  Y                   Z               Mass
    ------------   -----------------  -----------------  -----------------  -----------------
      Gh(CL)          0.000000000000     0.000000000000     0.000000000000    34.968852682000
      Gh(O)          -2.600905000000     1.445698000000    -1.428595000000    15.994914619570
      Gh(H)          -1.790172000000     1.295780000000    -0.990803000000     1.007825032230
      Gh(H)          -3.218459000000     1.075372000000    -0.808474000000     1.007825032230
      Gh(O)           2.556836000000    -0.273321000000    -1.884433000000    15.994914619570
      Gh(H)           2.745727000000     0.656644000000    -1.914035000000     1.007825032230
      Gh(H)           1.812438000000    -0.439596000000    -1.281958000000     1.007825032230
         O            0.128714000000     1.450045000000    -3.075572000000    15.994914619570
         H           -0.229456000000     0.608282000000    -2.936136000000     1.007825032230
         H           -0.138427000000     1.712452000000    -3.979438000000     1.007825032230
      Gh(O)          -2.771257000000    -1.686210000000    -0.586807000000    15.994914619570
      Gh(H)          -3.517746000000    -1.038339000000    -0.414869000000     1.007825032230
      Gh(H)          -1.928754000000    -1.210524000000    -0.518702000000     1.007825032230
      Gh(O)           0.192091000000    -2.999964000000     0.775908000000    15.994914619570
      Gh(H)          -0.347009000000    -3.250786000000     1.545106000000     1.007825032230
      Gh(H)          -0.004976000000    -2.092468000000     0.545800000000     1.007825032230

  Charge       = 0
  Multiplicity = 1
  Basis Set: AUG-CC-PVTZ
    Blend: AUG-CC-PVTZ
  Basis Set: (AUG-CC-PVTZ AUX)
    Blend: AUG-CC-PVTZ-JKFIT

    Orbital Energies [Eh]
    ---------------------

    Doubly Occupied:

       1A    -20.565300     2A     -1.355891     3A     -0.724072
       4A     -0.582567     5A     -0.510388

  @DF-RHF Final Energy:   -76.05954460657046

   => Energetics <=

    Nuclear Repulsion Energy =              9.2496458938914952
    One-Electron Energy =                -123.1419398024863767
    Two-Electron Energy =                  37.8327493020244390
    Total Energy =                        -76.0595446065704408
 Dipole X            :         -1.6707708            1.2506756           -0.4200952
 Dipole Y            :        -26.7023645           26.3070550           -0.3953095
 Dipole Z            :         59.0574516          -59.5644509           -0.5069993
 Magnitude           :                                                    0.7679830
  Basis Set: (AUG-CC-PVTZ AUX)
    Blend: AUG-CC-PVTZ-RI
	 Reference Energy          =     -76.0595446065704550 [Eh]
	 Singles Energy            =      -0.0000000000000000 [Eh]
	 Same-Spin Energy          =      -0.0682549457877840 [Eh]
	 Opposite-Spin Energy      =      -0.2153015129918804 [Eh]
	 Correlation Energy        =      -0.2835564587796645 [Eh]
	 Total Energy              =     -76.3431010653501261 [Eh]

	 ================> DF-SCS-MP2 Energies <==================
	-----------------------------------------------------------
	 SCS Same-Spin Scale       =       0.3333333333333333 [-]
	 SCS Opposite-Spin Scale   =       1.2000000000000000 [-]
	 SCS Same-Spin Energy      =      -0.0227516485959280 [Eh]
	 SCS Opposite-Spin Energy  =      -0.2583618155902565 [Eh]
	 SCS Correlation Energy    =      -0.2811134641861845 [Eh]
	 SCS Total Energy          =     -76.3406580707566462 [Eh]
	-----------------------------------------------------------

*** Psi4 exiting successfully. Buy a developer a beer!
