                               Psi4 1.9 release

  ==> Input File <==

--------------------------------------------------------------------------
MEMORY 60 GB

molecule dimer {
-1 1
Cl     0.000000     0.000000     0.000000
--
0 1
O     -0.626448    -3.113592     0.754314
H     -0.239394    -2.239675     0.691889
H     -1.537945    -2.905973     0.527826
O      1.128243    -1.708551    -2.677056
H      0.826606    -1.143339    -1.981423
H      0.825023    -2.562071    -2.503514
O      2.956940    -0.462505     1.050307
H      2.187350    -0.102340     0.693405
H      2.611752    -1.280708     1.398652
O     -0.731735     3.351951     0.529715
H     -0.503408     2.491672     0.171643
H     -0.052956     3.760527     1.140496
O      1.659667     1.365866    -2.584794
H      1.265558     1.161297    -3.485117
H      1.085125     0.911723    -1.915010

units ang
no_reorient
no_com
symmetry c1
}

set {
basis        aug-cc-pVTZ
scf_type     df
}

energy("mp2", bsse_type="cp")
--------------------------------------------------------------------------

                               Psi4 1.9 release
    Molecular point group: c1
  Charge       = 0
  Multiplicity = 1
  Basis Set: AUG-CC-PVTZ
    Blend: AUG-CC-PVTZ
  Basis Set: (AUG-CC-PVTZ AUX)
    Blend: AUG-CC-PVTZ-JKFIT
  @DF-RHF Final Energy:  -380.27772682840629
    Total Energy =                       -380.2777268284062870
 Dipole X            :        -79.9416221           78.5389963           -1.4026258
 Dipole Y            :         11.6023941          -12.1765164           -0.5741223
 Dipole Z            :         54.5306520          -54.1997358            0.3309162
 Magnitude           :                                                    1.5512837
  Basis Set: (AUG-CC-PVTZ AUX)
    Blend: AUG-CC-PVTZ-RI
	 Reference Energy          =    -380.2777268284062870 [Eh]
	 Singles Energy            =      -0.0000000000000000 [Eh]
	 Same-Spin Energy          =      -0.3438492112600466 [Eh]
	 Opposite-Spin Energy      =      -1.0823892424185209 [Eh]
	 Correlation Energy        =      -1.4262384536785675 [Eh]
	 Total Energy              =    -381.7039652820848801 [Eh]
	 SCS Total Energy          =    -381.6912103230618527 [Eh]
                               Psi4 1.9 release
    Molecular point group: c1
  Multiplicity = 1
  Basis Set: AUG-CC-PVTZ
    Blend: AUG-CC-PVTZ
  Basis Set: (AUG-CC-PVTZ AUX)
    Blend: AUG-CC-PVTZ-JKFIT
  @DF-RHF Final Energy:  -459.57357559388828
    Total Energy =                       -459.5735755938882789
  Basis Set: (AUG-CC-PVTZ AUX)
	 Singles Energy            =      -0.0000000000000000 [Eh]
	 Same-Spin Energy          =      -0.0634848306160405 [Eh]
	 Opposite-Spin Energy      =      -0.1835894498608576 [Eh]
	 Correlation Energy        =      -0.2470742804768981 [Eh]
	 Total Energy              =    -459.8206498743651878 [Eh]
	 SCS Total Energy          =    -459.8150445439266605 [Eh]
                               Psi4 1.9 release
    Molecular point group: c1

    Geometry (in Bohr), charge = -1, multiplicity = 1:

       Center              X                  Y                   Z               Mass
    ------------   -----------------  -----------------  -----------------  -----------------
         CL           0.000000000000     0.000000000000     0.000000000000    34.968852682000
         O           -1.183815151841    -5.883836146416     1.425446872599    15.994914619570
         H           -0.452389096078    -4.232372360035     1.307480719217     1.007825032230
         H           -2.906294846017    -5.491493097975     0.997446581896     1.007825032230
         O            2.132070272965    -3.228693461377    -5.058902662514    15.994914619570
         H            1.562058953660    -2.160597578555    -3.744346808683     1.007825032230
         H            1.559067517204    -4.841612503978    -4.730955811249     1.007825032230
         O            5.587806769411    -0.874007781655     1.984792577651    15.994914619570
         H            4.133492440520    -0.193394571679     1.310345544023     1.007825032230
         H            4.935495987617    -2.420187366683     2.643069224824     1.007825032230
         O           -1.382778746412     6.334269375954     1.001016274547    15.994914619570
         H           -0.951303249364     4.708577674472     0.324358261352     1.007825032230
         H           -0.100072336700     7.106366117390     2.155225087180     1.007825032230
         O            3.136316089460     2.581112664075    -4.884552750727    15.994914619570
         H            2.391558015882     2.194533280316    -6.585916645177     1.007825032230
         H            2.050589061887     1.722906772281    -3.618844427513     1.007825032230

  Charge       = -1
  Multiplicity = 1
  Basis Set: AUG-CC-PVTZ
    Blend: AUG-CC-PVTZ
  Basis Set: (AUG-CC-PVTZ AUX)
    Blend: AUG-CC-PVTZ-JKFIT

    Orbital Energies [Eh]
    ---------------------

    Doubly Occupied:

       1A   -104.599283     2A    -20.431315     3A    -20.427684
       4A    -20.420673     5A    -20.417547     6A    -20.408423
       7A    -10.324507     8A     -7.790625     9A     -7.790582
      10A     -7.790564    11A     -1.222582    12A     -1.220534
      13A     -1.213582    14A     -1.198724    15A     -1.183047
      16A     -0.842987    17A     -0.599241    18A     -0.588833
      19A     -0.573766    20A     -0.567073    21A     -0.551646
      22A     -0.464281    23A     -0.449722    24A     -0.445603
      25A     -0.427264    26A     -0.426539    27A     -0.377947
      28A     -0.371194    29A     -0.369738    30A     -0.360653
      31A     -0.357102    32A     -0.256472    33A     -0.253852
      34A     -0.251984

  @DF-RHF Final Energy:  -839.92968758616485

   => Energetics <=

    Nuclear Repulsion Energy =            301.3081979504842707
    One-Electron Energy =               -1772.5246288369392005
    Two-Electron Energy =                 631.2867433002900270
    Total Energy =                       -839.9296875861648459
 Dipole X            :        -80.4071193           78.5389963           -1.8681229
 Dipole Y            :         11.7764114          -12.1765164           -0.4001051
 Dipole Z            :         54.8694297          -54.1997358            0.6696939
 Magnitude           :                                                    2.0244647
  Basis Set: (AUG-CC-PVTZ AUX)
    Blend: AUG-CC-PVTZ-RI
	 Reference Energy          =    -839.9296875861648459 [Eh]
	 Singles Energy            =      -0.0000000000000000 [Eh]
	 Same-Spin Energy          =      -0.4151437504478740 [Eh]
	 Opposite-Spin Energy      =      -1.2708178958399183 [Eh]
	 Correlation Energy        =      -1.6859616462877924 [Eh]
	 Total Energy              =    -841.6156492324525971 [Eh]

	 ================> DF-SCS-MP2 Energies <==================
	-----------------------------------------------------------
	 SCS Same-Spin Scale       =       0.3333333333333333 [-]
	 SCS Opposite-Spin Scale   =       1.2000000000000000 [-]
	 SCS Same-Spin Energy      =      -0.1383812501492913 [Eh]
	 SCS Opposite-Spin Energy  =      -1.5249814750079020 [Eh]
	 SCS Correlation Energy    =      -1.6633627251571934 [Eh]
	 SCS Total Energy          =    -841.5930503113220311 [Eh]
	-----------------------------------------------------------

*** Psi4 exiting successfully. Buy a developer a beer!
