                               Psi4 1.8.2 release

  ==> Input File <==

--------------------------------------------------------------------------
MEMORY 60 GB

molecule dimer {
-1 1
Cl         0.000000     0.000000     0.000000
O          0.309276     2.230580     2.384255
H          0.172358     1.780632     1.568707
H          0.070820     1.580932     3.070981
O         -3.106756    -1.201459     0.184859
H         -3.615730    -1.153433    -0.609588
H         -2.337299    -0.547263     0.106862
O          2.375058     0.829933    -1.953883
H          2.611264     1.792549    -2.051113
H          1.790705     0.628269    -1.215983
O         -0.849852     2.660511    -1.102632
H         -0.932491     2.833868    -2.029998
H         -0.711092     1.689129    -1.111696

units ang
no_reorient
no_com
symmetry c1
}

set {
basis        aug-cc-pVTZ
scf_type     df
}

energy("mp2")
--------------------------------------------------------------------------

    Molecular point group: c1

    Geometry (in Angstrom), charge = -1, multiplicity = 1:

       Center              X                  Y                   Z               Mass
    ------------   -----------------  -----------------  -----------------  -----------------
         CL           0.000000000000     0.000000000000     0.000000000000    34.968852682000
         O            0.309276000000     2.230580000000     2.384255000000    15.994914619570
         H            0.172358000000     1.780632000000     1.568707000000     1.007825032230
         H            0.070820000000     1.580932000000     3.070981000000     1.007825032230
         O           -3.106756000000    -1.201459000000     0.184859000000    15.994914619570
         H           -3.615730000000    -1.153433000000    -0.609588000000     1.007825032230
         H           -2.337299000000    -0.547263000000     0.106862000000     1.007825032230
         O            2.375058000000     0.829933000000    -1.953883000000    15.994914619570
         H            2.611264000000     1.792549000000    -2.051113000000     1.007825032230
         H            1.790705000000     0.628269000000    -1.215983000000     1.007825032230
         O           -0.849852000000     2.660511000000    -1.102632000000    15.994914619570
         H           -0.932491000000     2.833868000000    -2.029998000000     1.007825032230
         H           -0.711092000000     1.689129000000    -1.111696000000     1.007825032230

  Charge       = -1
  Multiplicity = 1
  Basis Set: AUG-CC-PVTZ
    Blend: AUG-CC-PVTZ
  Basis Set: (AUG-CC-PVTZ AUX)
    Blend: AUG-CC-PVTZ-JKFIT

    Orbital Energies [Eh]
    ---------------------

    Doubly Occupied:

       1A   -104.576191     2A    -20.419167     3A    -20.408894
       4A    -20.408254     5A    -20.404321     6A    -10.301711
       7A     -7.767802     8A     -7.767788     9A     -7.767726
      10A     -1.196963    11A     -1.194850    12A     -1.192440
      13A     -1.181867    14A     -0.821993    15A     -0.571474
      16A     -0.566212    17A     -0.559148    18A     -0.551741
      19A     -0.438109    20A     -0.430500    21A     -0.428830
      22A     -0.411408    23A     -0.361541    24A     -0.356610
      25A     -0.351472    26A     -0.350527    27A     -0.234271
      28A     -0.230861    29A     -0.229571

  @DF-RHF Final Energy:  -763.85424220108121

   => Energetics <=

    Nuclear Repulsion Energy =            221.8412117322655490
    One-Electron Energy =               -1508.4264172527684877
    Two-Electron Energy =                 522.7309633194217895
    Total Energy =                       -763.8542422010812061
 Dipole X            :         24.6978903          -24.8114559           -0.1135656
 Dipole Y            :        -85.4067031           84.5864147           -0.8202884
 Dipole Z            :         10.9841375          -11.6615680           -0.6774305
 Magnitude           :                                                    1.0698982
  Basis Set: (AUG-CC-PVTZ AUX)
    Blend: AUG-CC-PVTZ-RI
	 Reference Energy          =    -763.8542422010812061 [Eh]
	 Singles Energy            =      -0.0000000000000000 [Eh]
	 Same-Spin Energy          =      -0.3468118394505556 [Eh]
	 Opposite-Spin Energy      =      -1.0555806509936010 [Eh]
	 Correlation Energy        =      -1.4023924904441567 [Eh]
	 Total Energy              =    -765.2566346915253916 [Eh]

	 ================> DF-SCS-MP2 Energies <==================
	-----------------------------------------------------------
	 SCS Same-Spin Scale       =       0.3333333333333333 [-]
	 SCS Opposite-Spin Scale   =       1.2000000000000000 [-]
	 SCS Same-Spin Energy      =      -0.1156039464835185 [Eh]
	 SCS Opposite-Spin Energy  =      -1.2666967811923211 [Eh]
	 SCS Correlation Energy    =      -1.3823007276758397 [Eh]
	 SCS Total Energy          =    -765.2365429287569896 [Eh]
	-----------------------------------------------------------

*** Psi4 exiting successfully. Buy a developer a beer!
