                               Psi4 1.9 release

  ==> Input File <==

--------------------------------------------------------------------------
MEMORY 60 GB

molecule dimer {
-1 1
Cl     0.000000     0.000000     0.000000
--
0 1
O      2.039085    -2.462644     0.200988
H      1.844667    -1.848434    -0.539502
H      2.791815    -2.941769    -0.104662
O      2.498699     1.474611    -1.093244
H      2.371003     1.199564    -1.994894
H      1.745902     1.188647    -0.615483
O      2.394840    -0.079249     2.053779
H      1.775513     0.099764     2.735700
H      1.874464    -0.207619     1.256205
O     -0.383324     2.887532     1.419545
H     -0.168626     2.055517     0.996479
H      0.449266     3.337289     1.431516
O     -2.136232     0.804329    -2.001926
H     -2.664027     1.566950    -2.332419
H     -1.432285     1.115994    -1.486120

units ang
no_reorient
no_com
symmetry c1
}

set {
basis        aug-cc-pVTZ
scf_type     df
}

energy("mp2", bsse_type="cp")
--------------------------------------------------------------------------

                               Psi4 1.9 release
    Molecular point group: c1
  Charge       = 0
  Multiplicity = 1
  Basis Set: AUG-CC-PVTZ
    Blend: AUG-CC-PVTZ
  Basis Set: (AUG-CC-PVTZ AUX)
    Blend: AUG-CC-PVTZ-JKFIT
  @DF-RHF Final Energy:  -380.29145929535309
    Total Energy =                       -380.2914592953530928
 Dipole X            :        -83.0068619           82.9443051           -0.0625568
 Dipole Y            :        -50.0054461           50.1959163            0.1904703
 Dipole Z            :         -8.6708862            7.5210268           -1.1498594
 Magnitude           :                                                    1.1672056
  Basis Set: (AUG-CC-PVTZ AUX)
    Blend: AUG-CC-PVTZ-RI
	 Reference Energy          =    -380.2914592953530928 [Eh]
	 Singles Energy            =      -0.0000000000000000 [Eh]
	 Same-Spin Energy          =      -0.3433619939381233 [Eh]
	 Opposite-Spin Energy      =      -1.0799942832074707 [Eh]
	 Correlation Energy        =      -1.4233562771455941 [Eh]
	 Total Energy              =    -381.7148155724987078 [Eh]
	 SCS Total Energy          =    -381.7019064331814207 [Eh]
                               Psi4 1.9 release
    Molecular point group: c1
  Multiplicity = 1
  Basis Set: AUG-CC-PVTZ
    Blend: AUG-CC-PVTZ
  Basis Set: (AUG-CC-PVTZ AUX)
    Blend: AUG-CC-PVTZ-JKFIT
  @DF-RHF Final Energy:  -459.57357966983443
    Total Energy =                       -459.5735796698344302
  Basis Set: (AUG-CC-PVTZ AUX)
	 Singles Energy            =      -0.0000000000000000 [Eh]
	 Same-Spin Energy          =      -0.0635731570712246 [Eh]
	 Opposite-Spin Energy      =      -0.1839532317189237 [Eh]
	 Correlation Energy        =      -0.2475263887901483 [Eh]
	 Total Energy              =    -459.8211060586245935 [Eh]
	 SCS Total Energy          =    -459.8155146002542324 [Eh]
                               Psi4 1.9 release
    Molecular point group: c1

    Geometry (in Bohr), charge = -1, multiplicity = 1:

       Center              X                  Y                   Z               Mass
    ------------   -----------------  -----------------  -----------------  -----------------
         CL           0.000000000000     0.000000000000     0.000000000000    34.968852682000
         O            3.853312196529    -4.653722704502     0.379812274504    15.994914619570
         H            3.485915422670    -3.493034020985    -1.019511024137     1.007825032230
         H            5.275765742945    -5.559137734362    -0.197782515743     1.007825032230
         O            4.721856779955     2.786610931587    -2.065931748300    15.994914619570
         H            4.480546312639     2.266847429959    -3.769803309319     1.007825032230
         H            3.299276621889     2.246217289847    -1.163094304875     1.007825032230
         O            4.525591714291    -0.149758905716     3.881079832217    15.994914619570
         H            3.355233302190     0.188526637180     5.169723761415     1.007825032230
         H            3.542223592030    -0.392343048441     2.373883407431     1.007825032230
         O           -0.724377377315     5.456644658495     2.682551272763    15.994914619570
         H           -0.318656957631     3.884364176223     1.883072399770     1.007825032230
         H            0.848989697480     6.306562211503     2.705173184211     1.007825032230
         O           -4.036893420439     1.519961524763    -3.783091863433    15.994914619570
         H           -5.034281420825     2.961106352286    -4.407633119814     1.007825032230
         H           -2.706626383601     2.108923017654    -2.808359789565     1.007825032230

  Charge       = -1
  Multiplicity = 1
  Basis Set: AUG-CC-PVTZ
    Blend: AUG-CC-PVTZ
  Basis Set: (AUG-CC-PVTZ AUX)
    Blend: AUG-CC-PVTZ-JKFIT

    Orbital Energies [Eh]
    ---------------------

    Doubly Occupied:

       1A   -104.575404     2A    -20.426520     3A    -20.416751
       4A    -20.411978     5A    -20.407126     6A    -20.387306
       7A    -10.301301     8A     -7.767370     9A     -7.767343
      10A     -7.767314    11A     -1.212334    12A     -1.206958
      13A     -1.205903    14A     -1.205046    15A     -1.183300
      16A     -0.824369    17A     -0.583418    18A     -0.579139
      19A     -0.574039    20A     -0.566416    21A     -0.551623
      22A     -0.446009    23A     -0.442592    24A     -0.436604
      25A     -0.430217    26A     -0.417262    27A     -0.371843
      28A     -0.363465    29A     -0.361642    30A     -0.359119
      31A     -0.335645    32A     -0.234771    33A     -0.232495
      34A     -0.230932

  @DF-RHF Final Energy:  -839.91616984642826

   => Energetics <=

    Nuclear Repulsion Energy =            314.9885114377301534
    One-Electron Energy =               -1800.6422512196172647
    Two-Electron Energy =                 645.7375699354587368
    Total Energy =                       -839.9161698464282608
 Dipole X            :        -83.6035388           82.9443051           -0.6592337
 Dipole Y            :        -50.5895220           50.1959163           -0.3936056
 Dipole Z            :         -8.6900503            7.5210268           -1.1690235
 Magnitude           :                                                    1.3986173
  Basis Set: (AUG-CC-PVTZ AUX)
    Blend: AUG-CC-PVTZ-RI
	 Reference Energy          =    -839.9161698464282608 [Eh]
	 Singles Energy            =      -0.0000000000000000 [Eh]
	 Same-Spin Energy          =      -0.4168720890158684 [Eh]
	 Opposite-Spin Energy      =      -1.2719039482244041 [Eh]
	 Correlation Energy        =      -1.6887760372402725 [Eh]
	 Total Energy              =    -841.6049458836685062 [Eh]

	 ================> DF-SCS-MP2 Energies <==================
	-----------------------------------------------------------
	 SCS Same-Spin Scale       =       0.3333333333333333 [-]
	 SCS Opposite-Spin Scale   =       1.2000000000000000 [-]
	 SCS Same-Spin Energy      =      -0.1389573630052894 [Eh]
	 SCS Opposite-Spin Energy  =      -1.5262847378692850 [Eh]
	 SCS Correlation Energy    =      -1.6652421008745744 [Eh]
	 SCS Total Energy          =    -841.5814119473028541 [Eh]
	-----------------------------------------------------------

*** Psi4 exiting successfully. Buy a developer a beer!
