                               Psi4 1.9 release

  ==> Input File <==

--------------------------------------------------------------------------
MEMORY 60 GB

molecule dimer {
-1 1
Cl     0.000000     0.000000     0.000000
--
0 1
O     -3.072186    -0.943385    -1.151340
H     -2.109297    -0.833410    -1.232254
H     -3.480580    -0.069519    -1.336406
O     -2.170564     2.085398    -0.537936
H     -1.492369     1.468992    -0.217548
H     -1.948541     2.234535    -1.504709
O      1.715914     2.702458    -1.046000
H      2.231407     2.871279    -1.844869
H      1.155635     1.946575    -1.231334
O     -0.734965     0.285092    -3.206055
H     -0.613228     0.151032    -2.243593
H     -0.192858     1.041459    -3.457951
O     -1.691451    -2.961899     0.571525
H     -1.220428    -3.805275     0.457431
H     -1.045938    -2.256831     0.320946

units ang
no_reorient
no_com
symmetry c1
}

set {
basis        aug-cc-pVTZ
scf_type     df
}

energy("mp2", bsse_type="cp")
--------------------------------------------------------------------------

                               Psi4 1.9 release
    Molecular point group: c1
  Charge       = 0
  Multiplicity = 1
  Basis Set: AUG-CC-PVTZ
    Blend: AUG-CC-PVTZ
  Basis Set: (AUG-CC-PVTZ AUX)
    Blend: AUG-CC-PVTZ-JKFIT
  @DF-RHF Final Energy:  -380.27304069723527
    Total Energy =                       -380.2730406972352739
 Dipole X            :        108.4248228         -106.4713519            1.9534709
 Dipole Y            :        -22.5306668           22.8470704            0.3164036
 Dipole Z            :        103.3412367         -104.4049779           -1.0637412
 Magnitude           :                                                    2.2467099
  Basis Set: (AUG-CC-PVTZ AUX)
    Blend: AUG-CC-PVTZ-RI
	 Reference Energy          =    -380.2730406972352739 [Eh]
	 Singles Energy            =      -0.0000000000000000 [Eh]
	 Same-Spin Energy          =      -0.3466904676942771 [Eh]
	 Opposite-Spin Energy      =      -1.0881648175152701 [Eh]
	 Correlation Energy        =      -1.4348552852095471 [Eh]
	 Total Energy              =    -381.7078959824448248 [Eh]
	 SCS Total Energy          =    -381.6944019674850210 [Eh]
                               Psi4 1.9 release
    Molecular point group: c1
  Multiplicity = 1
  Basis Set: AUG-CC-PVTZ
    Blend: AUG-CC-PVTZ
  Basis Set: (AUG-CC-PVTZ AUX)
    Blend: AUG-CC-PVTZ-JKFIT
  @DF-RHF Final Energy:  -459.57357222654264
    Total Energy =                       -459.5735722265426375
  Basis Set: (AUG-CC-PVTZ AUX)
	 Singles Energy            =      -0.0000000000000000 [Eh]
	 Same-Spin Energy          =      -0.0635172808224559 [Eh]
	 Opposite-Spin Energy      =      -0.1837058531393782 [Eh]
	 Correlation Energy        =      -0.2472231339618340 [Eh]
	 Total Energy              =    -459.8207953605044622 [Eh]
	 SCS Total Energy          =    -459.8151916772507093 [Eh]
                               Psi4 1.9 release
    Molecular point group: c1

    Geometry (in Bohr), charge = -1, multiplicity = 1:

       Center              X                  Y                   Z               Mass
    ------------   -----------------  -----------------  -----------------  -----------------
         CL           0.000000000000     0.000000000000     0.000000000000    34.968852682000
         O           -5.805590146466    -1.782739280865    -2.175717277285    15.994914619570
         H           -3.985993647250    -1.574916650218    -2.328622577000     1.007825032230
         H           -6.577342957746    -0.131371870516    -2.525441332419     1.007825032230
         O           -4.101771497778     3.940831082578    -1.016551713024    15.994914619570
         H           -2.820168688123     2.775992560489    -0.411106139141     1.007825032230
         H           -3.682208834226     4.222659167750    -2.843487908512     1.007825032230
         O            3.242607514839     5.106905485553    -1.976653527229    15.994914619570
         H            4.216748104429     5.425930939778    -3.486297147347     1.007825032230
         H            2.183833650993     3.678493632663    -2.326884028964     1.007825032230
         O           -1.388882561797     0.538745800559    -6.058565893155    15.994914619570
         H           -1.158832972462     0.285409116180    -4.239776306994     1.007825032230
         H           -0.364448801104     1.968072280893    -6.534580345253     1.007825032230
         O           -3.196379144632    -5.597177921267     1.080025723852    15.994914619570
         H           -2.306274675840    -7.190927582052     0.864419311294     1.007825032230
         H           -1.976536364209    -4.264792501443     0.606500041061     1.007825032230

  Charge       = -1
  Multiplicity = 1
  Basis Set: AUG-CC-PVTZ
    Blend: AUG-CC-PVTZ
  Basis Set: (AUG-CC-PVTZ AUX)
    Blend: AUG-CC-PVTZ-JKFIT

    Orbital Energies [Eh]
    ---------------------

    Doubly Occupied:

       1A   -104.589216     2A    -20.442136     3A    -20.437797
       4A    -20.417643     5A    -20.407814     6A    -20.400289
       7A    -10.314386     8A     -7.780506     9A     -7.780431
      10A     -7.780390    11A     -1.225480    12A     -1.218495
      13A     -1.190722    14A     -1.182145    15A     -1.174696
      16A     -0.833486    17A     -0.595377    18A     -0.591352
      19A     -0.561008    20A     -0.548174    21A     -0.542796
      22A     -0.459699    23A     -0.452152    24A     -0.430395
      25A     -0.428942    26A     -0.413676    27A     -0.385627
      28A     -0.380945    29A     -0.358002    30A     -0.350902
      31A     -0.339022    32A     -0.245556    33A     -0.243458
      34A     -0.240705

  @DF-RHF Final Energy:  -839.91360210795858

   => Energetics <=

    Nuclear Repulsion Energy =            315.4716514743355447
    One-Electron Energy =               -1801.2836566422206488
    Two-Electron Energy =                 645.8984030599266362
    Total Energy =                       -839.9136021079585817
 Dipole X            :        109.0667029         -106.4713519            2.5953510
 Dipole Y            :        -22.7571384           22.8470704            0.0899320
 Dipole Z            :        104.1362156         -104.4049779           -0.2687623
 Magnitude           :                                                    2.6107792
  Basis Set: (AUG-CC-PVTZ AUX)
    Blend: AUG-CC-PVTZ-RI
	 Reference Energy          =    -839.9136021079585817 [Eh]
	 Singles Energy            =      -0.0000000000000000 [Eh]
	 Same-Spin Energy          =      -0.4187268464015133 [Eh]
	 Opposite-Spin Energy      =      -1.2776951980870430 [Eh]
	 Correlation Energy        =      -1.6964220444885563 [Eh]
	 Total Energy              =    -841.6100241524471812 [Eh]

	 ================> DF-SCS-MP2 Energies <==================
	-----------------------------------------------------------
	 SCS Same-Spin Scale       =       0.3333333333333333 [-]
	 SCS Opposite-Spin Scale   =       1.2000000000000000 [-]
	 SCS Same-Spin Energy      =      -0.1395756154671711 [Eh]
	 SCS Opposite-Spin Energy  =      -1.5332342377044517 [Eh]
	 SCS Correlation Energy    =      -1.6728098531716227 [Eh]
	 SCS Total Energy          =    -841.5864119611302385 [Eh]
	-----------------------------------------------------------

*** Psi4 exiting successfully. Buy a developer a beer!
