                               Psi4 1.8.2 release

  ==> Input File <==

--------------------------------------------------------------------------
MEMORY 60 GB

molecule dimer {
-1 1
Cl         0.000000     0.000000     0.000000
Gh(O)     -0.626448    -3.113592     0.754314
Gh(H)     -0.239394    -2.239675     0.691889
Gh(H)     -1.537945    -2.905973     0.527826
Gh(O)      1.128243    -1.708551    -2.677056
Gh(H)      0.826606    -1.143339    -1.981423
Gh(H)      0.825023    -2.562071    -2.503514
Gh(O)      2.956940    -0.462505     1.050307
Gh(H)      2.187350    -0.102340     0.693405
Gh(H)      2.611752    -1.280708     1.398652
Gh(O)     -0.731735     3.351951     0.529715
Gh(H)     -0.503408     2.491672     0.171643
Gh(H)     -0.052956     3.760527     1.140496
Gh(O)      1.659667     1.365866    -2.584794
Gh(H)      1.265558     1.161297    -3.485117
Gh(H)      1.085125     0.911723    -1.915010

units ang
no_reorient
no_com
symmetry c1
}

set {
basis        aug-cc-pVTZ
scf_type     df
}

energy("mp2")
--------------------------------------------------------------------------

    Molecular point group: c1

    Geometry (in Angstrom), charge = -1, multiplicity = 1:

       Center              X                  Y                   Z               Mass
    ------------   -----------------  -----------------  -----------------  -----------------
         CL           0.000000000000     0.000000000000     0.000000000000    34.968852682000
      Gh(O)          -0.626448000000    -3.113592000000     0.754314000000    15.994914619570
      Gh(H)          -0.239394000000    -2.239675000000     0.691889000000     1.007825032230
      Gh(H)          -1.537945000000    -2.905973000000     0.527826000000     1.007825032230
      Gh(O)           1.128243000000    -1.708551000000    -2.677056000000    15.994914619570
      Gh(H)           0.826606000000    -1.143339000000    -1.981423000000     1.007825032230
      Gh(H)           0.825023000000    -2.562071000000    -2.503514000000     1.007825032230
      Gh(O)           2.956940000000    -0.462505000000     1.050307000000    15.994914619570
      Gh(H)           2.187350000000    -0.102340000000     0.693405000000     1.007825032230
      Gh(H)           2.611752000000    -1.280708000000     1.398652000000     1.007825032230
      Gh(O)          -0.731735000000     3.351951000000     0.529715000000    15.994914619570
      Gh(H)          -0.503408000000     2.491672000000     0.171643000000     1.007825032230
      Gh(H)          -0.052956000000     3.760527000000     1.140496000000     1.007825032230
      Gh(O)           1.659667000000     1.365866000000    -2.584794000000    15.994914619570
      Gh(H)           1.265558000000     1.161297000000    -3.485117000000     1.007825032230
      Gh(H)           1.085125000000     0.911723000000    -1.915010000000     1.007825032230

  Charge       = -1
  Multiplicity = 1
  Basis Set: AUG-CC-PVTZ
    Blend: AUG-CC-PVTZ
  Basis Set: (AUG-CC-PVTZ AUX)
    Blend: AUG-CC-PVTZ-JKFIT

    Orbital Energies [Eh]
    ---------------------

    Doubly Occupied:

       1A   -104.507209     2A    -10.230045     3A     -7.696112
       4A     -7.696100     5A     -7.696093     6A     -0.733465
       7A     -0.150311     8A     -0.150303     9A     -0.150301

  @DF-RHF Final Energy:  -459.57357559380938

   => Energetics <=

    Nuclear Repulsion Energy =              0.0000000000000000
    One-Electron Energy =                -641.1272845946447205
    Two-Electron Energy =                 181.5537090008353402
    Total Energy =                       -459.5735755938093803
 Dipole X            :          0.0004697            0.0000000            0.0004697
 Dipole Y            :         -0.0000241            0.0000000           -0.0000241
 Dipole Z            :         -0.0001706            0.0000000           -0.0001706
 Magnitude           :                                                    0.0005003
  Basis Set: (AUG-CC-PVTZ AUX)
    Blend: AUG-CC-PVTZ-RI
	 Reference Energy          =    -459.5735755938093803 [Eh]
	 Singles Energy            =      -0.0000000000000000 [Eh]
	 Same-Spin Energy          =      -0.0634848306160525 [Eh]
	 Opposite-Spin Energy      =      -0.1835894498607968 [Eh]
	 Correlation Energy        =      -0.2470742804768494 [Eh]
	 Total Energy              =    -459.8206498742862323 [Eh]

	 ================> DF-SCS-MP2 Energies <==================
	-----------------------------------------------------------
	 SCS Same-Spin Scale       =       0.3333333333333333 [-]
	 SCS Opposite-Spin Scale   =       1.2000000000000000 [-]
	 SCS Same-Spin Energy      =      -0.0211616102053508 [Eh]
	 SCS Opposite-Spin Energy  =      -0.2203073398329562 [Eh]
	 SCS Correlation Energy    =      -0.2414689500383070 [Eh]
	 SCS Total Energy          =    -459.8150445438477050 [Eh]
	-----------------------------------------------------------

*** Psi4 exiting successfully. Buy a developer a beer!
