                               Psi4 1.9 release

  ==> Input File <==

--------------------------------------------------------------------------
MEMORY 60 GB

molecule dimer {
-1 1
Cl     0.000000     0.000000     0.000000
--
0 1
O      2.247823     1.054428     2.091133
H      1.975481     0.561471     1.348335
H      2.892441     0.520458     2.606351
O      0.349162    -2.885324     1.690405
H      0.406239    -3.703972     1.217566
H      0.590132    -2.160564     1.081020
O      1.622947     1.853072    -2.013003
H      2.373746     1.475204    -2.405921
H      1.243024     1.154997    -1.444838

units ang
no_reorient
no_com
symmetry c1
}

set {
basis        aug-cc-pVTZ
scf_type     df
}

energy("mp2", bsse_type="cp")
--------------------------------------------------------------------------

                               Psi4 1.9 release
    Molecular point group: c1
  Charge       = 0
  Multiplicity = 1
  Basis Set: AUG-CC-PVTZ
    Blend: AUG-CC-PVTZ
  Basis Set: (AUG-CC-PVTZ AUX)
    Blend: AUG-CC-PVTZ-JKFIT
  @DF-RHF Final Energy:  -228.17476159796792
    Total Energy =                       -228.1747615979679153
 Dipole X            :        -81.0114387           81.7127384            0.7012998
 Dipole Y            :          2.2780728           -3.7322053           -1.4541325
 Dipole Z            :        -32.0201808           31.2764659           -0.7437148
 Magnitude           :                                                    1.7774798
  Basis Set: (AUG-CC-PVTZ AUX)
    Blend: AUG-CC-PVTZ-RI
	 Reference Energy          =    -228.1747615979679153 [Eh]
	 Singles Energy            =      -0.0000000000000000 [Eh]
	 Same-Spin Energy          =      -0.2052400213553948 [Eh]
	 Opposite-Spin Energy      =      -0.6467715520950648 [Eh]
	 Correlation Energy        =      -0.8520115734504596 [Eh]
	 Total Energy              =    -229.0267731714183697 [Eh]
	 SCS Total Energy          =    -229.0193008009337916 [Eh]
                               Psi4 1.9 release
    Molecular point group: c1
  Multiplicity = 1
  Basis Set: AUG-CC-PVTZ
    Blend: AUG-CC-PVTZ
  Basis Set: (AUG-CC-PVTZ AUX)
    Blend: AUG-CC-PVTZ-JKFIT
  @DF-RHF Final Energy:  -459.57354077758782
    Total Energy =                       -459.5735407775878230
  Basis Set: (AUG-CC-PVTZ AUX)
	 Singles Energy            =      -0.0000000000000000 [Eh]
	 Same-Spin Energy          =      -0.0630570332157181 [Eh]
	 Opposite-Spin Energy      =      -0.1818724976900544 [Eh]
	 Correlation Energy        =      -0.2449295309057725 [Eh]
	 Total Energy              =    -459.8184703084936018 [Eh]
	 SCS Total Energy          =    -459.8128067858878012 [Eh]
                               Psi4 1.9 release
    Molecular point group: c1

    Geometry (in Bohr), charge = -1, multiplicity = 1:

       Center              X                  Y                   Z               Mass
    ------------   -----------------  -----------------  -----------------  -----------------
         CL           0.000000000000     0.000000000000     0.000000000000    34.968852682000
         O            4.247769848505     1.992580139014     3.951668661907    15.994914619570
         H            3.733118056046     1.061026417387     2.547983875369     1.007825032230
         H            5.465921324045     0.983523079804     4.925289576813     1.007825032230
         O            0.659820553417    -5.452472143210     3.194402491105    15.994914619570
         H            0.767680451480    -6.999492656364     2.300866279669     1.007825032230
         H            1.115187857869    -4.082874236524     2.042831736142     1.007825032230
         O            3.066925346133     3.501798570754    -3.804024359725    15.994914619570
         H            4.485729831401     2.787731539180    -4.546531769488     1.007825032230
         H            2.348974927371     2.182628005725    -2.730348115654     1.007825032230

  Charge       = -1
  Multiplicity = 1
  Basis Set: AUG-CC-PVTZ
    Blend: AUG-CC-PVTZ
  Basis Set: (AUG-CC-PVTZ AUX)
    Blend: AUG-CC-PVTZ-JKFIT

    Orbital Energies [Eh]
    ---------------------

    Doubly Occupied:

       1A   -104.552690     2A    -20.416237     3A    -20.407846
       4A    -20.394645     5A    -10.277319     6A     -7.743428
       7A     -7.743389     8A     -7.743341     9A     -1.200767
      10A     -1.194604    11A     -1.189155    12A     -0.791005
      13A     -0.574202    14A     -0.569693    15A     -0.556155
      16A     -0.431436    17A     -0.422445    18A     -0.420854
      19A     -0.361723    20A     -0.353872    21A     -0.344085
      22A     -0.206278    23A     -0.205419    24A     -0.201244

  @DF-RHF Final Energy:  -687.78704269990703

   => Energetics <=

    Nuclear Repulsion Energy =            145.8986281023708784
    One-Electron Energy =               -1250.7676739949949933
    Two-Electron Energy =                 417.0820031927170817
    Total Energy =                       -687.7870426999070332
 Dipole X            :        -81.6603690           81.7127384            0.0523695
 Dipole Y            :          2.3600057           -3.7322053           -1.3721996
 Dipole Z            :        -32.0271634           31.2764659           -0.7506974
 Magnitude           :                                                    1.5649987
  Basis Set: (AUG-CC-PVTZ AUX)
    Blend: AUG-CC-PVTZ-RI
	 Reference Energy          =    -687.7870426999070332 [Eh]
	 Singles Energy            =      -0.0000000000000000 [Eh]
	 Same-Spin Energy          =      -0.2739523696084054 [Eh]
	 Opposite-Spin Energy      =      -0.8330724799620375 [Eh]
	 Correlation Energy        =      -1.1070248495704429 [Eh]
	 Total Energy              =    -688.8940675494774268 [Eh]

	 ================> DF-SCS-MP2 Energies <==================
	-----------------------------------------------------------
	 SCS Same-Spin Scale       =       0.3333333333333333 [-]
	 SCS Opposite-Spin Scale   =       1.2000000000000000 [-]
	 SCS Same-Spin Energy      =      -0.0913174565361351 [Eh]
	 SCS Opposite-Spin Energy  =      -0.9996869759544449 [Eh]
	 SCS Correlation Energy    =      -1.0910044324905801 [Eh]
	 SCS Total Energy          =    -688.8780471323975689 [Eh]
	-----------------------------------------------------------

*** Psi4 exiting successfully. Buy a developer a beer!
