                               Psi4 1.9 release

  ==> Input File <==

--------------------------------------------------------------------------
MEMORY 60 GB

molecule dimer {
-1 1
Cl     0.000000     0.000000     0.000000
--
0 1
O      2.094734     2.420118    -0.988704
H      2.288132     3.072303    -0.322075
H      1.277471     1.962329    -0.721292
O      1.301190    -0.283191    -2.893486
H      0.711077     0.041554    -3.544511
H      0.857715    -0.109161    -2.051104
O     -1.945290     2.393035     1.309219
H     -2.923087     2.279788     1.331312
H     -1.540510     1.545688     0.980189
O      0.845936    -3.031399    -0.329358
H      0.345432    -2.188035    -0.437677
H      1.647577    -2.766488    -0.821843
O      1.967141     1.310230     2.500265
H      1.474350     0.935107     1.769862
H      2.839433     0.878062     2.441727

units ang
no_reorient
no_com
symmetry c1
}

set {
basis        aug-cc-pVTZ
scf_type     df
}

energy("mp2", bsse_type="cp")
--------------------------------------------------------------------------

                               Psi4 1.9 release
    Molecular point group: c1
  Charge       = 0
  Multiplicity = 1
  Basis Set: AUG-CC-PVTZ
    Blend: AUG-CC-PVTZ
  Basis Set: (AUG-CC-PVTZ AUX)
    Blend: AUG-CC-PVTZ-JKFIT
  @DF-RHF Final Energy:  -380.28533431279641
    Total Energy =                       -380.2853343127964081
 Dipole X            :        -78.5945854           77.6437027           -0.9508827
 Dipole Y            :        -53.0535445           53.1419162            0.0883717
 Dipole Z            :          8.2857052           -8.6774787           -0.3917736
 Magnitude           :                                                    1.0322180
  Basis Set: (AUG-CC-PVTZ AUX)
    Blend: AUG-CC-PVTZ-RI
	 Reference Energy          =    -380.2853343127964081 [Eh]
	 Singles Energy            =      -0.0000000000000000 [Eh]
	 Same-Spin Energy          =      -0.3444189003460917 [Eh]
	 Opposite-Spin Energy      =      -1.0840851987527798 [Eh]
	 Correlation Energy        =      -1.4285040990988715 [Eh]
	 Total Energy              =    -381.7138384118952672 [Eh]
	 SCS Total Energy          =    -381.7010428514150817 [Eh]
                               Psi4 1.9 release
    Molecular point group: c1
  Multiplicity = 1
  Basis Set: AUG-CC-PVTZ
    Blend: AUG-CC-PVTZ
  Basis Set: (AUG-CC-PVTZ AUX)
    Blend: AUG-CC-PVTZ-JKFIT
  @DF-RHF Final Energy:  -459.57357678873768
    Total Energy =                       -459.5735767887376824
  Basis Set: (AUG-CC-PVTZ AUX)
	 Singles Energy            =      -0.0000000000000000 [Eh]
	 Same-Spin Energy          =      -0.0635245357763791 [Eh]
	 Opposite-Spin Energy      =      -0.1838234261737831 [Eh]
	 Correlation Energy        =      -0.2473479619501622 [Eh]
	 Total Energy              =    -459.8209247506878228 [Eh]
	 SCS Total Energy          =    -459.8153397454050264 [Eh]
                               Psi4 1.9 release
    Molecular point group: c1

    Geometry (in Bohr), charge = -1, multiplicity = 1:

       Center              X                  Y                   Z               Mass
    ------------   -----------------  -----------------  -----------------  -----------------
         CL           0.000000000000     0.000000000000     0.000000000000    34.968852682000
         O            3.958473565685     4.573360211291    -1.868379779145    15.994914619570
         H            4.323942818896     5.805811244422    -0.608633541857     1.007825032230
         H            2.414070323215     3.708264378044    -1.363044336484     1.007825032230
         O            2.458892737184    -0.535153431195    -5.467896087846    15.994914619570
         H            1.343740784112     0.078525679417    -6.698155038673     1.007825032230
         H            1.620846443697    -0.206284393581    -3.876024814831     1.007825032230
         O           -3.676065334592     4.522180758635     2.474065348246    15.994914619570
         H           -5.523833870886     4.308174944105     2.515815067536     1.007825032230
         H           -2.911141993529     2.920926995407     1.852288761186     1.007825032230
         O            1.598587359665    -5.728513886987    -0.622396417229    15.994914619570
         H            0.652771874969    -4.134786902916    -0.827089661412     1.007825032230
         H            3.113469300603    -5.227904649366    -1.553058188125     1.007825032230
         O            3.717357740159     2.475975861359     4.724816091068    15.994914619570
         H            2.786117713069     1.767096127998     3.344554459855     1.007825032230
         H            5.365750721587     1.659296701172     4.614195303136     1.007825032230

  Charge       = -1
  Multiplicity = 1
  Basis Set: AUG-CC-PVTZ
    Blend: AUG-CC-PVTZ
  Basis Set: (AUG-CC-PVTZ AUX)
    Blend: AUG-CC-PVTZ-JKFIT

    Orbital Energies [Eh]
    ---------------------

    Doubly Occupied:

       1A   -104.596239     2A    -20.429783     3A    -20.426262
       4A    -20.416843     5A    -20.412024     6A    -20.411667
       7A    -10.321662     8A     -7.787793     9A     -7.787733
      10A     -7.787692    11A     -1.208582    12A     -1.206450
      13A     -1.200956    14A     -1.196400    15A     -1.188189
      16A     -0.841503    17A     -0.576867    18A     -0.572869
      19A     -0.569709    20A     -0.568213    21A     -0.534950
      22A     -0.447123    23A     -0.442845    24A     -0.440190
      25A     -0.435683    26A     -0.433457    27A     -0.371755
      28A     -0.368544    29A     -0.361555    30A     -0.360545
      31A     -0.353696    32A     -0.254342    33A     -0.251299
      34A     -0.248527

  @DF-RHF Final Energy:  -839.93152819792272

   => Energetics <=

    Nuclear Repulsion Energy =            301.5851494170899514
    One-Electron Energy =               -1773.4094520253056544
    Two-Electron Energy =                 631.8927744102929864
    Total Energy =                       -839.9315281979227166
 Dipole X            :        -78.9824146           77.6437027           -1.3387120
 Dipole Y            :        -53.3092413           53.1419162           -0.1673250
 Dipole Z            :          8.4815598           -8.6774787           -0.1959190
 Magnitude           :                                                    1.3632797
  Basis Set: (AUG-CC-PVTZ AUX)
    Blend: AUG-CC-PVTZ-RI
	 Reference Energy          =    -839.9315281979227166 [Eh]
	 Singles Energy            =      -0.0000000000000000 [Eh]
	 Same-Spin Energy          =      -0.4167595057899114 [Eh]
	 Opposite-Spin Energy      =      -1.2737546563856488 [Eh]
	 Correlation Energy        =      -1.6905141621755602 [Eh]
	 Total Energy              =    -841.6220423600982485 [Eh]

	 ================> DF-SCS-MP2 Energies <==================
	-----------------------------------------------------------
	 SCS Same-Spin Scale       =       0.3333333333333333 [-]
	 SCS Opposite-Spin Scale   =       1.2000000000000000 [-]
	 SCS Same-Spin Energy      =      -0.1389198352633038 [Eh]
	 SCS Opposite-Spin Energy  =      -1.5285055876627784 [Eh]
	 SCS Correlation Energy    =      -1.6674254229260823 [Eh]
	 SCS Total Energy          =    -841.5989536208487607 [Eh]
	-----------------------------------------------------------

*** Psi4 exiting successfully. Buy a developer a beer!
