                               Psi4 1.9 release

  ==> Input File <==

--------------------------------------------------------------------------
MEMORY 60 GB

molecule dimer {
-1 1
Cl     0.000000     0.000000     0.000000
--
0 1
O     -0.798897     3.124496    -0.215681
H      0.060559     3.616307    -0.380398
H     -0.556490     2.210170     0.138435
O      2.730753    -0.341451    -2.110045
H      2.680631    -1.003483    -1.437785
H      1.867978    -0.486660    -2.459935
O      2.428296    -0.475128     2.348279
H      1.839286    -0.737724     1.638816
H      2.905468    -1.272764     2.554222
O     -1.218819     0.750935     2.669050
H     -1.171669     0.087468     3.394068
H     -0.655150     0.411680     1.957964
O     -0.679205    -3.054936    -0.078274
H     -0.469217    -2.104139    -0.091012
H     -0.608392    -3.314175    -1.020973

units ang
no_reorient
no_com
symmetry c1
}

set {
basis        aug-cc-pVTZ
scf_type     df
}

energy("mp2", bsse_type="cp")
--------------------------------------------------------------------------

                               Psi4 1.9 release
    Molecular point group: c1
  Charge       = 0
  Multiplicity = 1
  Basis Set: AUG-CC-PVTZ
    Blend: AUG-CC-PVTZ
  Basis Set: (AUG-CC-PVTZ AUX)
    Blend: AUG-CC-PVTZ-JKFIT
  @DF-RHF Final Energy:  -380.28162399215654
    Total Energy =                       -380.2816239921565398
 Dipole X            :        -47.7172306           48.3581445            0.6409139
 Dipole Y            :          3.1393690           -4.8414632           -1.7020942
 Dipole Z            :        -48.1583791           47.6211626           -0.5372165
 Magnitude           :                                                    1.8964432
  Basis Set: (AUG-CC-PVTZ AUX)
    Blend: AUG-CC-PVTZ-RI
	 Reference Energy          =    -380.2816239921565398 [Eh]
	 Singles Energy            =      -0.0000000000000000 [Eh]
	 Same-Spin Energy          =      -0.3443214917052346 [Eh]
	 Opposite-Spin Energy      =      -1.0842607993234110 [Eh]
	 Correlation Energy        =      -1.4285822910286456 [Eh]
	 Total Energy              =    -381.7102062831851867 [Eh]
	 SCS Total Energy          =    -381.6975107819130244 [Eh]
                               Psi4 1.9 release
    Molecular point group: c1
  Multiplicity = 1
  Basis Set: AUG-CC-PVTZ
    Blend: AUG-CC-PVTZ
  Basis Set: (AUG-CC-PVTZ AUX)
    Blend: AUG-CC-PVTZ-JKFIT
  @DF-RHF Final Energy:  -459.57357725686472
    Total Energy =                       -459.5735772568647235
  Basis Set: (AUG-CC-PVTZ AUX)
	 Singles Energy            =      -0.0000000000000000 [Eh]
	 Same-Spin Energy          =      -0.0635456920622140 [Eh]
	 Opposite-Spin Energy      =      -0.1838701939526866 [Eh]
	 Correlation Energy        =      -0.2474158860149007 [Eh]
	 Total Energy              =    -459.8209931428796153 [Eh]
	 SCS Total Energy          =    -459.8154033869620321 [Eh]
                               Psi4 1.9 release
    Molecular point group: c1

    Geometry (in Bohr), charge = -1, multiplicity = 1:

       Center              X                  Y                   Z               Mass
    ------------   -----------------  -----------------  -----------------  -----------------
         CL           0.000000000000     0.000000000000     0.000000000000    34.968852682000
         O           -1.509696532450     5.904441720088    -0.407578020465    15.994914619570
         H            0.114439924432     6.833829815576    -0.718848038672     1.007825032230
         H           -1.051613691556     4.176615990703     0.261604236178     1.007825032230
         O            5.160375286272    -0.645248875264    -3.987407162392    15.994914619570
         H            5.065658433412    -1.896308041553    -2.717019877291     1.007825032230
         H            3.529966828380    -0.919654116215    -4.648603436428     1.007825032230
         O            4.588814391545    -0.897861794537     4.437604176164    15.994914619570
         H            3.475746806389    -1.394096316177     3.096913410018     1.007825032230
         H            5.490538786282    -2.405175382342     4.826780043619     1.007825032230
         O           -2.303234106504     1.419061488021     5.043773515153    15.994914619570
         H           -2.214133519689     0.165290564742     6.413858971180     1.007825032230
         H           -1.238054071094     0.777962451328     3.700015723506     1.007825032230
         O           -1.283511433042    -5.772992370802    -0.147916422744    15.994914619570
         H           -0.886691623409    -3.976246439895    -0.171987754130     1.007825032230
         H           -1.149694256920    -6.262883081839    -1.929359351487     1.007825032230

  Charge       = -1
  Multiplicity = 1
  Basis Set: AUG-CC-PVTZ
    Blend: AUG-CC-PVTZ
  Basis Set: (AUG-CC-PVTZ AUX)
    Blend: AUG-CC-PVTZ-JKFIT

    Orbital Energies [Eh]
    ---------------------

    Doubly Occupied:

       1A   -104.586699     2A    -20.440757     3A    -20.435282
       4A    -20.421419     5A    -20.409069     6A    -20.398758
       7A    -10.312459     8A     -7.778598     9A     -7.778517
      10A     -7.778425    11A     -1.240717    12A     -1.224583
      13A     -1.199459    14A     -1.177138    15A     -1.166167
      16A     -0.834525    17A     -0.586856    18A     -0.582107
      19A     -0.562359    20A     -0.548187    21A     -0.535508
      22A     -0.480784    23A     -0.457711    24A     -0.444049
      25A     -0.417150    26A     -0.413531    27A     -0.388821
      28A     -0.380581    29A     -0.364945    30A     -0.345214
      31A     -0.342688    32A     -0.246193    33A     -0.242742
      34A     -0.238815

  @DF-RHF Final Energy:  -839.91573945042148

   => Energetics <=

    Nuclear Repulsion Energy =            299.2948523314973386
    One-Electron Energy =               -1768.8995530061156387
    Two-Electron Energy =                 629.6889612241967598
    Total Energy =                       -839.9157394504214835
 Dipole X            :        -47.7927190           48.3581445            0.5654254
 Dipole Y            :          3.3271621           -4.8414632           -1.5143011
 Dipole Z            :        -48.5803274           47.6211626           -0.9591648
 Magnitude           :                                                    1.8795773
  Basis Set: (AUG-CC-PVTZ AUX)
    Blend: AUG-CC-PVTZ-RI
	 Reference Energy          =    -839.9157394504214835 [Eh]
	 Singles Energy            =      -0.0000000000000000 [Eh]
	 Same-Spin Energy          =      -0.4172259494294704 [Eh]
	 Opposite-Spin Energy      =      -1.2747918131645724 [Eh]
	 Correlation Energy        =      -1.6920177625940427 [Eh]
	 Total Energy              =    -841.6077572130154749 [Eh]

	 ================> DF-SCS-MP2 Energies <==================
	-----------------------------------------------------------
	 SCS Same-Spin Scale       =       0.3333333333333333 [-]
	 SCS Opposite-Spin Scale   =       1.2000000000000000 [-]
	 SCS Same-Spin Energy      =      -0.1390753164764901 [Eh]
	 SCS Opposite-Spin Energy  =      -1.5297501757974867 [Eh]
	 SCS Correlation Energy    =      -1.6688254922739769 [Eh]
	 SCS Total Energy          =    -841.5845649426954651 [Eh]
	-----------------------------------------------------------

*** Psi4 exiting successfully. Buy a developer a beer!
