                               Psi4 1.8.2 release

  ==> Input File <==

--------------------------------------------------------------------------
MEMORY 60 GB

molecule dimer {
0 1
Gh(Cl)     0.000000     0.000000     0.000000
Gh(O)     -2.199916    -1.571015     1.467295
Gh(H)     -1.882318    -2.506238     1.325476
Gh(H)     -1.614150    -0.972649     0.951732
O          0.797188    -2.893542     1.082174
H          0.638924    -1.985322     0.894663
H          1.422652    -3.264080     0.452093
Gh(O)     -2.721750     0.879998    -1.804564
Gh(H)     -2.687678     0.053166    -2.351965
Gh(H)     -2.079379     0.700004    -1.079329
Gh(O)     -0.897884    -1.728912    -2.615415
Gh(H)     -0.741817    -1.169751    -1.853770
Gh(H)     -0.428522    -2.544201    -2.358736

units ang
no_reorient
no_com
symmetry c1
}

set {
basis        aug-cc-pVTZ
scf_type     df
}

energy("mp2")
--------------------------------------------------------------------------

    Molecular point group: c1

    Geometry (in Angstrom), charge = 0, multiplicity = 1:

       Center              X                  Y                   Z               Mass
    ------------   -----------------  -----------------  -----------------  -----------------
      Gh(CL)          0.000000000000     0.000000000000     0.000000000000    34.968852682000
      Gh(O)          -2.199916000000    -1.571015000000     1.467295000000    15.994914619570
      Gh(H)          -1.882318000000    -2.506238000000     1.325476000000     1.007825032230
      Gh(H)          -1.614150000000    -0.972649000000     0.951732000000     1.007825032230
         O            0.797188000000    -2.893542000000     1.082174000000    15.994914619570
         H            0.638924000000    -1.985322000000     0.894663000000     1.007825032230
         H            1.422652000000    -3.264080000000     0.452093000000     1.007825032230
      Gh(O)          -2.721750000000     0.879998000000    -1.804564000000    15.994914619570
      Gh(H)          -2.687678000000     0.053166000000    -2.351965000000     1.007825032230
      Gh(H)          -2.079379000000     0.700004000000    -1.079329000000     1.007825032230
      Gh(O)          -0.897884000000    -1.728912000000    -2.615415000000    15.994914619570
      Gh(H)          -0.741817000000    -1.169751000000    -1.853770000000     1.007825032230
      Gh(H)          -0.428522000000    -2.544201000000    -2.358736000000     1.007825032230

  Charge       = 0
  Multiplicity = 1
  Basis Set: AUG-CC-PVTZ
    Blend: AUG-CC-PVTZ
  Basis Set: (AUG-CC-PVTZ AUX)
    Blend: AUG-CC-PVTZ-JKFIT

    Orbital Energies [Eh]
    ---------------------

    Doubly Occupied:

       1A    -20.563335     2A     -1.352421     3A     -0.732374
       4A     -0.574250     5A     -0.509062

  @DF-RHF Final Energy:   -76.06027403336755

   => Energetics <=

    Nuclear Repulsion Energy =              9.2387883267361417
    One-Electron Energy =                -123.1352374738600872
    Two-Electron Energy =                  37.8361751137563971
    Total Energy =                        -76.0602740333675484
 Dipole X            :        -15.6307924           15.9475500            0.3167575
 Dipole Y            :         54.0327350          -53.6639474            0.3687876
 Dipole Z            :        -19.4604577           18.9050998           -0.5553578
 Magnitude           :                                                    0.7380799
  Basis Set: (AUG-CC-PVTZ AUX)
    Blend: AUG-CC-PVTZ-RI
	 Reference Energy          =     -76.0602740333675484 [Eh]
	 Singles Energy            =      -0.0000000000000000 [Eh]
	 Same-Spin Energy          =      -0.0682234962473608 [Eh]
	 Opposite-Spin Energy      =      -0.2153472230834441 [Eh]
	 Correlation Energy        =      -0.2835707193308050 [Eh]
	 Total Energy              =     -76.3438447526983595 [Eh]

	 ================> DF-SCS-MP2 Energies <==================
	-----------------------------------------------------------
	 SCS Same-Spin Scale       =       0.3333333333333333 [-]
	 SCS Opposite-Spin Scale   =       1.2000000000000000 [-]
	 SCS Same-Spin Energy      =      -0.0227411654157869 [Eh]
	 SCS Opposite-Spin Energy  =      -0.2584166677001329 [Eh]
	 SCS Correlation Energy    =      -0.2811578331159199 [Eh]
	 SCS Total Energy          =     -76.3414318664834752 [Eh]
	-----------------------------------------------------------

*** Psi4 exiting successfully. Buy a developer a beer!
