                               Psi4 1.8.2 release

  ==> Input File <==

--------------------------------------------------------------------------
MEMORY 60 GB

molecule dimer {
-1 1
Cl         0.000000     0.000000     0.000000
O          0.024502     3.145214    -1.100846
H         -0.079884     2.231023    -0.803905
H         -0.839084     3.515903    -1.288931
O         -3.198150     0.573138    -0.927404
H         -2.286936     0.664904    -0.721780
H         -3.628705     0.671446    -0.059234
O         -0.392662    -2.420613    -2.381684
H         -0.078206    -1.721059    -1.745198
H          0.148491    -2.349436    -3.168547
O         -0.516218     0.741767    -3.194309
H          0.316690     0.901052    -3.635347
H         -0.443624     0.828168    -2.261763
O         -1.018909     1.789826     2.097121
H         -0.949530     2.709738     1.735634
H         -0.639964     1.169711     1.486154
O          2.936787     0.437537     1.380431
H          2.845975    -0.128141     2.146149
H          2.378137     0.108698     0.647245

units ang
no_reorient
no_com
symmetry c1
}

set {
basis        aug-cc-pVTZ
scf_type     df
}

energy("mp2")
--------------------------------------------------------------------------

    Molecular point group: c1

    Geometry (in Angstrom), charge = -1, multiplicity = 1:

       Center              X                  Y                   Z               Mass
    ------------   -----------------  -----------------  -----------------  -----------------
         CL           0.000000000000     0.000000000000     0.000000000000    34.968852682000
         O            0.024502000000     3.145214000000    -1.100846000000    15.994914619570
         H           -0.079884000000     2.231023000000    -0.803905000000     1.007825032230
         H           -0.839084000000     3.515903000000    -1.288931000000     1.007825032230
         O           -3.198150000000     0.573138000000    -0.927404000000    15.994914619570
         H           -2.286936000000     0.664904000000    -0.721780000000     1.007825032230
         H           -3.628705000000     0.671446000000    -0.059234000000     1.007825032230
         O           -0.392662000000    -2.420613000000    -2.381684000000    15.994914619570
         H           -0.078206000000    -1.721059000000    -1.745198000000     1.007825032230
         H            0.148491000000    -2.349436000000    -3.168547000000     1.007825032230
         O           -0.516218000000     0.741767000000    -3.194309000000    15.994914619570
         H            0.316690000000     0.901052000000    -3.635347000000     1.007825032230
         H           -0.443624000000     0.828168000000    -2.261763000000     1.007825032230
         O           -1.018909000000     1.789826000000     2.097121000000    15.994914619570
         H           -0.949530000000     2.709738000000     1.735634000000     1.007825032230
         H           -0.639964000000     1.169711000000     1.486154000000     1.007825032230
         O            2.936787000000     0.437537000000     1.380431000000    15.994914619570
         H            2.845975000000    -0.128141000000     2.146149000000     1.007825032230
         H            2.378137000000     0.108698000000     0.647245000000     1.007825032230

  Charge       = -1
  Multiplicity = 1
  Basis Set: AUG-CC-PVTZ
    Blend: AUG-CC-PVTZ
  Basis Set: (AUG-CC-PVTZ AUX)
    Blend: AUG-CC-PVTZ-JKFIT

    Orbital Energies [Eh]
    ---------------------

    Doubly Occupied:

       1A   -104.606710     2A    -20.434136     3A    -20.426763
       4A    -20.424660     5A    -20.420863     6A    -20.419410
       7A    -20.405640     8A    -10.332761     9A     -7.798885
      10A     -7.798809    11A     -7.798737    12A     -1.220687
      13A     -1.214919    14A     -1.213769    15A     -1.207477
      16A     -1.194756    17A     -1.189386    18A     -0.857144
      19A     -0.605219    20A     -0.593786    21A     -0.586795
      22A     -0.574842    23A     -0.571222    24A     -0.564390
      25A     -0.452317    26A     -0.448547    27A     -0.438577
      28A     -0.436993    29A     -0.432867    30A     -0.424556
      31A     -0.385345    32A     -0.372616    33A     -0.371596
      34A     -0.369635    35A     -0.355274    36A     -0.353606
      37A     -0.266252    38A     -0.263752    39A     -0.260972

  @DF-RHF Final Energy:  -915.98754148776391

   => Energetics <=

    Nuclear Repulsion Energy =            406.3229266805439011
    One-Electron Energy =               -2088.4315856927241839
    Two-Electron Energy =                 766.1211175244164906
    Total Energy =                       -915.9875414877639059
 Dipole X            :         39.7416026          -38.8789229            0.8626797
 Dipole Y            :        -81.2096844           80.7611479           -0.4485365
 Dipole Z            :         77.4841917          -76.8798243            0.6043674
 Magnitude           :                                                    1.1448411
  Basis Set: (AUG-CC-PVTZ AUX)
    Blend: AUG-CC-PVTZ-RI
	 Reference Energy          =    -915.9875414877639059 [Eh]
	 Singles Energy            =      -0.0000000000000000 [Eh]
	 Same-Spin Energy          =      -0.4877675644189562 [Eh]
	 Opposite-Spin Energy      =      -1.4921801970445541 [Eh]
	 Correlation Energy        =      -1.9799477614635104 [Eh]
	 Total Energy              =    -917.9674892492274694 [Eh]

	 ================> DF-SCS-MP2 Energies <==================
	-----------------------------------------------------------
	 SCS Same-Spin Scale       =       0.3333333333333333 [-]
	 SCS Opposite-Spin Scale   =       1.2000000000000000 [-]
	 SCS Same-Spin Energy      =      -0.1625891881396521 [Eh]
	 SCS Opposite-Spin Energy  =      -1.7906162364534648 [Eh]
	 SCS Correlation Energy    =      -1.9532054245931167 [Eh]
	 SCS Total Energy          =    -917.9407469123569854 [Eh]
	-----------------------------------------------------------

*** Psi4 exiting successfully. Buy a developer a beer!
