                               Psi4 1.8.2 release

  ==> Input File <==

--------------------------------------------------------------------------
MEMORY 60 GB

molecule dimer {
0 1
Gh(Cl)     0.000000     0.000000     0.000000
Gh(O)      2.658287     1.773398    -0.370529
Gh(H)      2.091112     1.113408     0.001257
Gh(H)      3.169430     2.152468     0.380958
Gh(O)      1.386953    -0.634513     2.886858
Gh(H)      0.938120    -0.445849     2.084134
Gh(H)      0.881418    -1.312523     3.349073
Gh(O)     -1.733809     0.841098    -2.621295
Gh(H)     -2.603293     1.359142    -2.652883
Gh(H)     -1.487596     0.630228    -1.696720
Gh(O)     -0.222632     3.133093     0.500279
Gh(H)     -1.083412     3.575365     0.472674
Gh(H)     -0.438957     2.179388     0.524477
O         -2.943507     0.363094     1.076372
H         -3.375816    -0.520414     0.951393
H         -2.003804     0.267427     1.077284

units ang
no_reorient
no_com
symmetry c1
}

set {
basis        aug-cc-pVTZ
scf_type     df
}

energy("mp2")
--------------------------------------------------------------------------

    Molecular point group: c1

    Geometry (in Angstrom), charge = 0, multiplicity = 1:

       Center              X                  Y                   Z               Mass
    ------------   -----------------  -----------------  -----------------  -----------------
      Gh(CL)          0.000000000000     0.000000000000     0.000000000000    34.968852682000
      Gh(O)           2.658287000000     1.773398000000    -0.370529000000    15.994914619570
      Gh(H)           2.091112000000     1.113408000000     0.001257000000     1.007825032230
      Gh(H)           3.169430000000     2.152468000000     0.380958000000     1.007825032230
      Gh(O)           1.386953000000    -0.634513000000     2.886858000000    15.994914619570
      Gh(H)           0.938120000000    -0.445849000000     2.084134000000     1.007825032230
      Gh(H)           0.881418000000    -1.312523000000     3.349073000000     1.007825032230
      Gh(O)          -1.733809000000     0.841098000000    -2.621295000000    15.994914619570
      Gh(H)          -2.603293000000     1.359142000000    -2.652883000000     1.007825032230
      Gh(H)          -1.487596000000     0.630228000000    -1.696720000000     1.007825032230
      Gh(O)          -0.222632000000     3.133093000000     0.500279000000    15.994914619570
      Gh(H)          -1.083412000000     3.575365000000     0.472674000000     1.007825032230
      Gh(H)          -0.438957000000     2.179388000000     0.524477000000     1.007825032230
         O           -2.943507000000     0.363094000000     1.076372000000    15.994914619570
         H           -3.375816000000    -0.520414000000     0.951393000000     1.007825032230
         H           -2.003804000000     0.267427000000     1.077284000000     1.007825032230

  Charge       = 0
  Multiplicity = 1
  Basis Set: AUG-CC-PVTZ
    Blend: AUG-CC-PVTZ
  Basis Set: (AUG-CC-PVTZ AUX)
    Blend: AUG-CC-PVTZ-JKFIT

    Orbital Energies [Eh]
    ---------------------

    Doubly Occupied:

       1A    -20.566259     2A     -1.344690     3A     -0.722234
       4A     -0.571851     5A     -0.507782

  @DF-RHF Final Energy:   -76.05817799299690

   => Energetics <=

    Nuclear Repulsion Energy =              9.0849662288853601
    One-Electron Energy =                -122.8606531496169509
    Two-Electron Energy =                  37.7175089277346771
    Total Energy =                        -76.0581779929969173
 Dipole X            :         55.0127393          -54.6653851            0.3473542
 Dipole Y            :         -5.6663116            5.0111096           -0.6552020
 Dipole Z            :        -20.1885134           20.1060302           -0.0824831
 Magnitude           :                                                    0.7461555
  Basis Set: (AUG-CC-PVTZ AUX)
    Blend: AUG-CC-PVTZ-RI
	 Reference Energy          =     -76.0581779929969031 [Eh]
	 Singles Energy            =      -0.0000000000000000 [Eh]
	 Same-Spin Energy          =      -0.0685086408071851 [Eh]
	 Opposite-Spin Energy      =      -0.2161969051137580 [Eh]
	 Correlation Energy        =      -0.2847055459209431 [Eh]
	 Total Energy              =     -76.3428835389178460 [Eh]

	 ================> DF-SCS-MP2 Energies <==================
	-----------------------------------------------------------
	 SCS Same-Spin Scale       =       0.3333333333333333 [-]
	 SCS Opposite-Spin Scale   =       1.2000000000000000 [-]
	 SCS Same-Spin Energy      =      -0.0228362136023950 [Eh]
	 SCS Opposite-Spin Energy  =      -0.2594362861365095 [Eh]
	 SCS Correlation Energy    =      -0.2822724997389046 [Eh]
	 SCS Total Energy          =     -76.3404504927358118 [Eh]
	-----------------------------------------------------------

*** Psi4 exiting successfully. Buy a developer a beer!
