                               Psi4 1.8.2 release

  ==> Input File <==

--------------------------------------------------------------------------
MEMORY 60 GB

molecule dimer {
-1 1
Cl         0.000000     0.000000     0.000000
O         -2.352563    -2.000689    -0.906334
H         -1.879597    -2.743087    -1.222228
H         -1.947468    -1.507597    -0.165024
O         -2.041171     2.009674     1.692703
H         -2.902501     1.850932     1.214944
H         -1.359904     1.646238     1.074740
O          2.186425    -0.135659    -2.521759
H          2.037414    -0.257688    -1.583007
H          2.794119     0.578731    -2.754986
O          0.632001     3.009939    -1.372366
H          0.410937     2.899813    -2.278973
H          0.580960     2.129556    -0.959031
O          2.420754    -1.652381     1.758642
H          1.510958    -1.626298     1.492702
H          2.689538    -2.613340     1.613522
O          1.643151     1.143126     2.627037
H          2.423544     1.465652     2.192753
H          1.056724     0.905893     1.868423

units ang
no_reorient
no_com
symmetry c1
}

set {
basis        aug-cc-pVTZ
scf_type     df
}

energy("mp2")
--------------------------------------------------------------------------

    Molecular point group: c1

    Geometry (in Angstrom), charge = -1, multiplicity = 1:

       Center              X                  Y                   Z               Mass
    ------------   -----------------  -----------------  -----------------  -----------------
         CL           0.000000000000     0.000000000000     0.000000000000    34.968852682000
         O           -2.352563000000    -2.000689000000    -0.906334000000    15.994914619570
         H           -1.879597000000    -2.743087000000    -1.222228000000     1.007825032230
         H           -1.947468000000    -1.507597000000    -0.165024000000     1.007825032230
         O           -2.041171000000     2.009674000000     1.692703000000    15.994914619570
         H           -2.902501000000     1.850932000000     1.214944000000     1.007825032230
         H           -1.359904000000     1.646238000000     1.074740000000     1.007825032230
         O            2.186425000000    -0.135659000000    -2.521759000000    15.994914619570
         H            2.037414000000    -0.257688000000    -1.583007000000     1.007825032230
         H            2.794119000000     0.578731000000    -2.754986000000     1.007825032230
         O            0.632001000000     3.009939000000    -1.372366000000    15.994914619570
         H            0.410937000000     2.899813000000    -2.278973000000     1.007825032230
         H            0.580960000000     2.129556000000    -0.959031000000     1.007825032230
         O            2.420754000000    -1.652381000000     1.758642000000    15.994914619570
         H            1.510958000000    -1.626298000000     1.492702000000     1.007825032230
         H            2.689538000000    -2.613340000000     1.613522000000     1.007825032230
         O            1.643151000000     1.143126000000     2.627037000000    15.994914619570
         H            2.423544000000     1.465652000000     2.192753000000     1.007825032230
         H            1.056724000000     0.905893000000     1.868423000000     1.007825032230

  Charge       = -1
  Multiplicity = 1
  Basis Set: AUG-CC-PVTZ
    Blend: AUG-CC-PVTZ
  Basis Set: (AUG-CC-PVTZ AUX)
    Blend: AUG-CC-PVTZ-JKFIT

    Orbital Energies [Eh]
    ---------------------

    Doubly Occupied:

       1A   -104.594672     2A    -20.439290     3A    -20.432482
       4A    -20.422198     5A    -20.422193     6A    -20.420770
       7A    -20.402422     8A    -10.319957     9A     -7.786079
      10A     -7.786038    11A     -7.785983    12A     -1.214709
      13A     -1.213389    14A     -1.211435    15A     -1.209585
      16A     -1.186600    17A     -1.185910    18A     -0.838894
      19A     -0.605425    20A     -0.603472    21A     -0.582937
      22A     -0.575708    23A     -0.550158    24A     -0.544783
      25A     -0.452609    26A     -0.443912    27A     -0.436269
      28A     -0.433323    29A     -0.429900    30A     -0.427480
      31A     -0.380087    32A     -0.378741    33A     -0.371611
      34A     -0.368906    35A     -0.358448    36A     -0.346054
      37A     -0.251804    38A     -0.249955    39A     -0.246663

  @DF-RHF Final Energy:  -915.98047383279152

   => Energetics <=

    Nuclear Repulsion Energy =            389.0721074345562442
    One-Electron Energy =               -2054.2834554832334106
    Two-Electron Energy =                 749.2308742158855921
    Total Energy =                       -915.9804738327915175
 Dipole X            :        -47.6689209           47.8544795            0.1855587
 Dipole Y            :        -42.6423793           41.0465239           -1.5958555
 Dipole Z            :        -21.7177234           20.2526087           -1.4651146
 Magnitude           :                                                    2.1743385
  Basis Set: (AUG-CC-PVTZ AUX)
    Blend: AUG-CC-PVTZ-RI
	 Reference Energy          =    -915.9804738327915175 [Eh]
	 Singles Energy            =      -0.0000000000000000 [Eh]
	 Same-Spin Energy          =      -0.4858221941679978 [Eh]
	 Opposite-Spin Energy      =      -1.4898773206654972 [Eh]
	 Correlation Energy        =      -1.9756995148334950 [Eh]
	 Total Energy              =    -917.9561733476250538 [Eh]

	 ================> DF-SCS-MP2 Energies <==================
	-----------------------------------------------------------
	 SCS Same-Spin Scale       =       0.3333333333333333 [-]
	 SCS Opposite-Spin Scale   =       1.2000000000000000 [-]
	 SCS Same-Spin Energy      =      -0.1619407313893326 [Eh]
	 SCS Opposite-Spin Energy  =      -1.7878527847985966 [Eh]
	 SCS Correlation Energy    =      -1.9497935161879292 [Eh]
	 SCS Total Energy          =    -917.9302673489794415 [Eh]
	-----------------------------------------------------------

*** Psi4 exiting successfully. Buy a developer a beer!
