                               Psi4 1.9 release

  ==> Input File <==

--------------------------------------------------------------------------
MEMORY 60 GB

molecule dimer {
-1 1
Cl     0.000000     0.000000     0.000000
--
0 1
O      2.741234     0.738472    -1.525475
H      2.030876     0.591915    -0.837522
H      3.603201     0.343611    -1.225902
O     -1.282461     2.745085     1.157741
H     -1.948791     2.416369     1.805657
H     -0.745954     1.941353     0.995102
O     -2.297413    -1.049486     2.333506
H     -2.862620    -0.996762     1.560954
H     -1.356740    -0.962436     2.174113
O     -1.160282     1.516406    -2.408583
H     -0.693222     0.915110    -1.786235
H     -0.649383     2.316099    -2.294649
O      1.852777    -0.587624     2.593331
H      2.415237    -1.388943     2.530648
H      1.630884    -0.133154     1.758059

units ang
no_reorient
no_com
symmetry c1
}

set {
basis        aug-cc-pVTZ
scf_type     df
}

energy("mp2", bsse_type="cp")
--------------------------------------------------------------------------

                               Psi4 1.9 release
    Molecular point group: c1
  Charge       = 0
  Multiplicity = 1
  Basis Set: AUG-CC-PVTZ
    Blend: AUG-CC-PVTZ
  Basis Set: (AUG-CC-PVTZ AUX)
    Blend: AUG-CC-PVTZ-JKFIT
  @DF-RHF Final Energy:  -380.27721881996428
    Total Energy =                       -380.2772188199642756
 Dipole X            :          0.6973180            0.4806103            1.1779282
 Dipole Y            :        -61.4421973           60.3691643           -1.0730330
 Dipole Z            :        -41.1384718           41.3554941            0.2170223
 Magnitude           :                                                    1.6081086
  Basis Set: (AUG-CC-PVTZ AUX)
    Blend: AUG-CC-PVTZ-RI
	 Reference Energy          =    -380.2772188199642756 [Eh]
	 Singles Energy            =      -0.0000000000000000 [Eh]
	 Same-Spin Energy          =      -0.3446741363645803 [Eh]
	 Opposite-Spin Energy      =      -1.0846845642102005 [Eh]
	 Correlation Energy        =      -1.4293587005747808 [Eh]
	 Total Energy              =    -381.7065775205390423 [Eh]
	 SCS Total Energy          =    -381.6937316758047132 [Eh]
                               Psi4 1.9 release
    Molecular point group: c1
  Multiplicity = 1
  Basis Set: AUG-CC-PVTZ
    Blend: AUG-CC-PVTZ
  Basis Set: (AUG-CC-PVTZ AUX)
    Blend: AUG-CC-PVTZ-JKFIT
  @DF-RHF Final Energy:  -459.57357630128018
    Total Energy =                       -459.5735763012801272
  Basis Set: (AUG-CC-PVTZ AUX)
	 Singles Energy            =      -0.0000000000000000 [Eh]
	 Same-Spin Energy          =      -0.0635010552070985 [Eh]
	 Opposite-Spin Energy      =      -0.1837397282892166 [Eh]
	 Correlation Energy        =      -0.2472407834963150 [Eh]
	 Total Energy              =    -459.8208170847764791 [Eh]
	 SCS Total Energy          =    -459.8152309936295978 [Eh]
                               Psi4 1.9 release
    Molecular point group: c1

    Geometry (in Bohr), charge = -1, multiplicity = 1:

       Center              X                  Y                   Z               Mass
    ------------   -----------------  -----------------  -----------------  -----------------
         CL           0.000000000000     0.000000000000     0.000000000000    34.968852682000
         O            5.180181505793     1.395509831319    -2.882729961233    15.994914619570
         H            3.837799434765     1.118557239550    -1.582687204046     1.007825032230
         H            6.809063064976     0.649330683695    -2.316619036651     1.007825032230
         O           -2.423500056581     5.187458841102     2.187813414214    15.994914619570
         H           -3.682681265757     4.566275628046     3.412197206516     1.007825032230
         H           -1.409648762190     3.668625482836     1.880470246895     1.007825032230
         O           -4.341481367066    -1.983241112502     4.409687252113    15.994914619570
         H           -5.409567801258    -1.883607192264     2.949775554438     1.007825032230
         H           -2.563867023454    -1.818740453281     4.108478135797     1.007825032230
         O           -2.192615208298     2.865592035001    -4.551562220434    15.994914619570
         H           -1.309999724142     1.729307274668    -3.375494945707     1.007825032230
         H           -1.227156020528     4.376792789447    -4.336258164056     1.007825032230
         O            3.501241101547    -1.110448424746     4.900685342660    15.994914619570
         H            4.564136458072    -2.624721873872     4.782231639938     1.007825032230
         H            3.081924102391    -0.251624592509     3.322250022396     1.007825032230

  Charge       = -1
  Multiplicity = 1
  Basis Set: AUG-CC-PVTZ
    Blend: AUG-CC-PVTZ
  Basis Set: (AUG-CC-PVTZ AUX)
    Blend: AUG-CC-PVTZ-JKFIT

    Orbital Energies [Eh]
    ---------------------

    Doubly Occupied:

       1A   -104.594139     2A    -20.432493     3A    -20.427641
       4A    -20.426132     5A    -20.415519     6A    -20.394968
       7A    -10.319878     8A     -7.785965     9A     -7.785927
      10A     -7.785887    11A     -1.210515    12A     -1.204945
      13A     -1.190410    14A     -1.189033    15A     -1.180107
      16A     -0.841437    17A     -0.603756    18A     -0.598533
      19A     -0.568424    20A     -0.547479    21A     -0.536218
      22A     -0.437293    23A     -0.432946    24A     -0.432267
      25A     -0.427945    26A     -0.426687    27A     -0.376273
      28A     -0.373767    29A     -0.365868    30A     -0.357386
      31A     -0.340286    32A     -0.251486    33A     -0.250190
      34A     -0.246975

  @DF-RHF Final Energy:  -839.91845465985909

   => Energetics <=

    Nuclear Repulsion Energy =            302.0364467112602256
    One-Electron Energy =               -1774.3922492044005139
    Two-Electron Energy =                 632.4373478332812510
    Total Energy =                       -839.9184546598590941
 Dipole X            :          0.4799142            0.4806103            0.9605245
 Dipole Y            :        -61.9389155           60.3691643           -1.5697512
 Dipole Z            :        -41.2328132           41.3554941            0.1226808
 Magnitude           :                                                    1.8443906
  Basis Set: (AUG-CC-PVTZ AUX)
    Blend: AUG-CC-PVTZ-RI
	 Reference Energy          =    -839.9184546598590941 [Eh]
	 Singles Energy            =      -0.0000000000000000 [Eh]
	 Same-Spin Energy          =      -0.4175553037927120 [Eh]
	 Opposite-Spin Energy      =      -1.2748252587297872 [Eh]
	 Correlation Energy        =      -1.6923805625224992 [Eh]
	 Total Energy              =    -841.6108352223816382 [Eh]

	 ================> DF-SCS-MP2 Energies <==================
	-----------------------------------------------------------
	 SCS Same-Spin Scale       =       0.3333333333333333 [-]
	 SCS Opposite-Spin Scale   =       1.2000000000000000 [-]
	 SCS Same-Spin Energy      =      -0.1391851012642373 [Eh]
	 SCS Opposite-Spin Energy  =      -1.5297903104757447 [Eh]
	 SCS Correlation Energy    =      -1.6689754117399820 [Eh]
	 SCS Total Energy          =    -841.5874300715991012 [Eh]
	-----------------------------------------------------------

*** Psi4 exiting successfully. Buy a developer a beer!
