                               Psi4 1.8.2 release

  ==> Input File <==

--------------------------------------------------------------------------
MEMORY 60 GB

molecule dimer {
-1 1
Cl         0.000000     0.000000     0.000000
O          1.407818     2.519133    -1.259393
H          1.027117     2.592937    -2.117333
H          0.994561     1.714342    -0.954582
O          3.058161    -0.076353     0.562502
H          2.147380     0.078030     0.450617
H          3.076044    -0.918720     1.134947
O          1.402074    -2.853236    -0.379833
H          2.341986    -2.667971    -0.026692
H          0.924122    -2.036659    -0.373298
O          1.041342     1.379260     2.538507
H          0.658961     0.767611     1.918648
H          0.313750     1.643816     3.141624
O         -1.649480     2.733617     0.773527
H         -0.887604     2.167739     0.492910
H         -1.074723     3.432313     1.189528
O         -1.197686    -2.589481     1.589581
H         -1.610851    -2.489368     2.457896
H         -0.710748    -1.803117     1.436687

units ang
no_reorient
no_com
symmetry c1
}

set {
basis        aug-cc-pVTZ
scf_type     df
}

energy("mp2")
--------------------------------------------------------------------------

    Molecular point group: c1

    Geometry (in Angstrom), charge = -1, multiplicity = 1:

       Center              X                  Y                   Z               Mass
    ------------   -----------------  -----------------  -----------------  -----------------
         CL           0.000000000000     0.000000000000     0.000000000000    34.968852682000
         O            1.407818000000     2.519133000000    -1.259393000000    15.994914619570
         H            1.027117000000     2.592937000000    -2.117333000000     1.007825032230
         H            0.994561000000     1.714342000000    -0.954582000000     1.007825032230
         O            3.058161000000    -0.076353000000     0.562502000000    15.994914619570
         H            2.147380000000     0.078030000000     0.450617000000     1.007825032230
         H            3.076044000000    -0.918720000000     1.134947000000     1.007825032230
         O            1.402074000000    -2.853236000000    -0.379833000000    15.994914619570
         H            2.341986000000    -2.667971000000    -0.026692000000     1.007825032230
         H            0.924122000000    -2.036659000000    -0.373298000000     1.007825032230
         O            1.041342000000     1.379260000000     2.538507000000    15.994914619570
         H            0.658961000000     0.767611000000     1.918648000000     1.007825032230
         H            0.313750000000     1.643816000000     3.141624000000     1.007825032230
         O           -1.649480000000     2.733617000000     0.773527000000    15.994914619570
         H           -0.887604000000     2.167739000000     0.492910000000     1.007825032230
         H           -1.074723000000     3.432313000000     1.189528000000     1.007825032230
         O           -1.197686000000    -2.589481000000     1.589581000000    15.994914619570
         H           -1.610851000000    -2.489368000000     2.457896000000     1.007825032230
         H           -0.710748000000    -1.803117000000     1.436687000000     1.007825032230

  Charge       = -1
  Multiplicity = 1
  Basis Set: AUG-CC-PVTZ
    Blend: AUG-CC-PVTZ
  Basis Set: (AUG-CC-PVTZ AUX)
    Blend: AUG-CC-PVTZ-JKFIT

    Orbital Energies [Eh]
    ---------------------

    Doubly Occupied:

       1A   -104.609720     2A    -20.434655     3A    -20.426878
       4A    -20.424117     5A    -20.418355     6A    -20.418130
       7A    -20.416901     8A    -10.336311     9A     -7.802380
      10A     -7.802353    11A     -7.802308    12A     -1.218478
      13A     -1.215746    14A     -1.210025    15A     -1.203060
      16A     -1.200077    17A     -1.190724    18A     -0.864173
      19A     -0.590102    20A     -0.581794    21A     -0.572322
      22A     -0.566588    23A     -0.556296    24A     -0.540821
      25A     -0.462741    26A     -0.453187    27A     -0.448137
      28A     -0.446199    29A     -0.443989    30A     -0.424977
      31A     -0.376219    32A     -0.375393    33A     -0.369454
      34A     -0.364458    35A     -0.360888    36A     -0.357094
      37A     -0.271696    38A     -0.268445    39A     -0.266652

  @DF-RHF Final Energy:  -915.97314766058048

   => Energetics <=

    Nuclear Repulsion Energy =            416.7699385759602819
    One-Electron Energy =               -2109.3024820536015795
    Two-Electron Energy =                 776.5593958170609312
    Total Energy =                       -915.9731476605804801
 Dipole X            :        -76.1387178           75.0180208           -1.1206970
 Dipole Y            :        -21.4472755           21.5135361            0.0662606
 Dipole Z            :        -74.1382724           74.3608742            0.2226018
 Magnitude           :                                                    1.1445103
  Basis Set: (AUG-CC-PVTZ AUX)
    Blend: AUG-CC-PVTZ-RI
	 Reference Energy          =    -915.9731476605804801 [Eh]
	 Singles Energy            =      -0.0000000000000000 [Eh]
	 Same-Spin Energy          =      -0.4911698207817983 [Eh]
	 Opposite-Spin Energy      =      -1.4992129943552297 [Eh]
	 Correlation Energy        =      -1.9903828151370280 [Eh]
	 Total Energy              =    -917.9635304757175618 [Eh]

	 ================> DF-SCS-MP2 Energies <==================
	-----------------------------------------------------------
	 SCS Same-Spin Scale       =       0.3333333333333333 [-]
	 SCS Opposite-Spin Scale   =       1.2000000000000000 [-]
	 SCS Same-Spin Energy      =      -0.1637232735939328 [Eh]
	 SCS Opposite-Spin Energy  =      -1.7990555932262755 [Eh]
	 SCS Correlation Energy    =      -1.9627788668202082 [Eh]
	 SCS Total Energy          =    -917.9359265274007385 [Eh]
	-----------------------------------------------------------

*** Psi4 exiting successfully. Buy a developer a beer!
