                               Psi4 1.9 release

  ==> Input File <==

--------------------------------------------------------------------------
MEMORY 60 GB

molecule dimer {
-1 1
Cl     0.000000     0.000000     0.000000
--
0 1
O      2.306524     0.633217    -2.188513
H      1.570454     0.370574    -1.615926
H      2.887146    -0.151513    -2.257538
O      0.078149     0.201119     3.270859
H      0.255800     0.302782     2.290721
H     -0.317832     0.962546     3.712858
O      0.602014    -3.026089     0.733427
H     -0.271511    -3.137610     1.226318
H      0.722809    -2.074794     0.669439
O      2.057172     1.804508     1.691988
H      1.703814     1.155732     1.058885
H      2.867329     1.350957     1.953438

units ang
no_reorient
no_com
symmetry c1
}

set {
basis        aug-cc-pVTZ
scf_type     df
}

energy("mp2", bsse_type="cp")
--------------------------------------------------------------------------

                               Psi4 1.9 release
    Molecular point group: c1
  Charge       = 0
  Multiplicity = 1
  Basis Set: AUG-CC-PVTZ
    Blend: AUG-CC-PVTZ
  Basis Set: (AUG-CC-PVTZ AUX)
    Blend: AUG-CC-PVTZ-JKFIT
  @DF-RHF Final Energy:  -304.21971152585348
    Total Energy =                       -304.2197115258534836
 Dipole X            :        -94.4079984           94.0495547           -0.3584437
 Dipole Y            :          7.9601181           -8.1622676           -0.2021495
 Dipole Z            :        -66.2714407           66.3299218            0.0584811
 Magnitude           :                                                    0.4156517
  Basis Set: (AUG-CC-PVTZ AUX)
    Blend: AUG-CC-PVTZ-RI
	 Reference Energy          =    -304.2197115258534836 [Eh]
	 Singles Energy            =      -0.0000000000000000 [Eh]
	 Same-Spin Energy          =      -0.2762400928689290 [Eh]
	 Opposite-Spin Energy      =      -0.8688106048327099 [Eh]
	 Correlation Energy        =      -1.1450506977016390 [Eh]
	 Total Energy              =    -305.3647622235551466 [Eh]
	 SCS Total Energy          =    -305.3543642826090263 [Eh]
                               Psi4 1.9 release
    Molecular point group: c1
  Multiplicity = 1
  Basis Set: AUG-CC-PVTZ
    Blend: AUG-CC-PVTZ
  Basis Set: (AUG-CC-PVTZ AUX)
    Blend: AUG-CC-PVTZ-JKFIT
  @DF-RHF Final Energy:  -459.57356472552550
    Total Energy =                       -459.5735647255255572
  Basis Set: (AUG-CC-PVTZ AUX)
	 Singles Energy            =      -0.0000000000000000 [Eh]
	 Same-Spin Energy          =      -0.0633827049333954 [Eh]
	 Opposite-Spin Energy      =      -0.1832181663257226 [Eh]
	 Correlation Energy        =      -0.2466008712591181 [Eh]
	 Total Energy              =    -459.8201655967845909 [Eh]
	 SCS Total Energy          =    -459.8145540934274891 [Eh]
                               Psi4 1.9 release
    Molecular point group: c1

    Geometry (in Bohr), charge = -1, multiplicity = 1:

       Center              X                  Y                   Z               Mass
    ------------   -----------------  -----------------  -----------------  -----------------
         CL           0.000000000000     0.000000000000     0.000000000000    34.968852682000
         O            4.358698661795     1.196606707984    -4.135690192004    15.994914619570
         H            2.967727952630     0.700283369215    -3.053657579007     1.007825032230
         H            5.455915224211    -0.286318074446    -4.266128537814     1.007825032230
         O            0.147680206978     0.380059828626     6.181027704989    15.994914619570
         H            0.483391942892     0.572175055718     4.328835319835     1.007825032230
         H           -0.600615433907     1.818948323155     7.016284762715     1.007825032230
         O            1.137641583691    -5.718479441261     1.385976163016    15.994914619570
         H           -0.513081430049    -5.929223588498     2.317405162719     1.007825032230
         H            1.365911051016    -3.920792426743     1.265056367700     1.007825032230
         O            3.887491672960     3.410025911198     3.197393927561    15.994914619570
         H            3.219741828721     2.184016954428     2.001002648355     1.007825032230
         H            5.418466521583     2.552938737270     3.691462823062     1.007825032230

  Charge       = -1
  Multiplicity = 1
  Basis Set: AUG-CC-PVTZ
    Blend: AUG-CC-PVTZ
  Basis Set: (AUG-CC-PVTZ AUX)
    Blend: AUG-CC-PVTZ-JKFIT

    Orbital Energies [Eh]
    ---------------------

    Doubly Occupied:

       1A   -104.579289     2A    -20.413932     3A    -20.413617
       4A    -20.410901     5A    -20.401524     6A    -10.304531
       7A     -7.770625     8A     -7.770586     9A     -7.770551
      10A     -1.199157    11A     -1.192153    12A     -1.182672
      13A     -1.173021    14A     -0.823280    15A     -0.568118
      16A     -0.560608    17A     -0.549334    18A     -0.547304
      19A     -0.443267    20A     -0.431488    21A     -0.428018
      22A     -0.404230    23A     -0.365820    24A     -0.357330
      25A     -0.352484    26A     -0.336776    27A     -0.235445
      28A     -0.233931    29A     -0.231253

  @DF-RHF Final Energy:  -763.85192574230882

   => Energetics <=

    Nuclear Repulsion Energy =            225.5734170836196881
    One-Electron Energy =               -1515.9481882915740698
    Two-Electron Energy =                 526.5228454656455597
    Total Energy =                       -763.8519257423088220
 Dipole X            :        -95.1192464           94.0495547           -1.0696917
 Dipole Y            :          8.0402660           -8.1622676           -0.1220016
 Dipole Z            :        -66.7198963           66.3299218           -0.3899745
 Magnitude           :                                                    1.1450786
  Basis Set: (AUG-CC-PVTZ AUX)
    Blend: AUG-CC-PVTZ-RI
	 Reference Energy          =    -763.8519257423088220 [Eh]
	 Singles Energy            =      -0.0000000000000000 [Eh]
	 Same-Spin Energy          =      -0.3475450579751760 [Eh]
	 Opposite-Spin Energy      =      -1.0575557387512708 [Eh]
	 Correlation Energy        =      -1.4051007967264468 [Eh]
	 Total Energy              =    -765.2570265390352233 [Eh]

	 ================> DF-SCS-MP2 Energies <==================
	-----------------------------------------------------------
	 SCS Same-Spin Scale       =       0.3333333333333333 [-]
	 SCS Opposite-Spin Scale   =       1.2000000000000000 [-]
	 SCS Same-Spin Energy      =      -0.1158483526583920 [Eh]
	 SCS Opposite-Spin Energy  =      -1.2690668865015249 [Eh]
	 SCS Correlation Energy    =      -1.3849152391599169 [Eh]
	 SCS Total Energy          =    -765.2368409814687311 [Eh]
	-----------------------------------------------------------

*** Psi4 exiting successfully. Buy a developer a beer!
