                               Psi4 1.8.2 release

  ==> Input File <==

--------------------------------------------------------------------------
MEMORY 60 GB

molecule dimer {
-1 1
Cl         0.000000     0.000000     0.000000
O         -2.814531    -1.586422    -0.841082
H         -2.108229    -0.943243    -0.828051
H         -3.303767    -1.610933     0.003772
O          2.643403    -0.729932     2.153137
H          2.361492     0.103266     2.473781
H          3.569043    -0.852540     2.415988
O          0.360111    -1.589716    -3.056327
H          0.594650    -0.827780    -3.630698
H          0.428642    -1.160485    -2.205151
O         -1.121098     1.837686    -2.537137
H         -0.260127     2.147674    -2.890256
H         -0.883283     1.263543    -1.784354
O          2.631503     1.421712    -1.348374
H          1.781393     1.299793    -0.855764
H          3.087746     0.624659    -1.064809
O         -0.810626     0.796305     2.988929
H         -1.124595     0.478072     2.104225
H         -1.310898     0.268521     3.682673

units ang
no_reorient
no_com
symmetry c1
}

set {
basis        aug-cc-pVTZ
scf_type     df
}

energy("mp2")
--------------------------------------------------------------------------

    Molecular point group: c1

    Geometry (in Angstrom), charge = -1, multiplicity = 1:

       Center              X                  Y                   Z               Mass
    ------------   -----------------  -----------------  -----------------  -----------------
         CL           0.000000000000     0.000000000000     0.000000000000    34.968852682000
         O           -2.814531000000    -1.586422000000    -0.841082000000    15.994914619570
         H           -2.108229000000    -0.943243000000    -0.828051000000     1.007825032230
         H           -3.303767000000    -1.610933000000     0.003772000000     1.007825032230
         O            2.643403000000    -0.729932000000     2.153137000000    15.994914619570
         H            2.361492000000     0.103266000000     2.473781000000     1.007825032230
         H            3.569043000000    -0.852540000000     2.415988000000     1.007825032230
         O            0.360111000000    -1.589716000000    -3.056327000000    15.994914619570
         H            0.594650000000    -0.827780000000    -3.630698000000     1.007825032230
         H            0.428642000000    -1.160485000000    -2.205151000000     1.007825032230
         O           -1.121098000000     1.837686000000    -2.537137000000    15.994914619570
         H           -0.260127000000     2.147674000000    -2.890256000000     1.007825032230
         H           -0.883283000000     1.263543000000    -1.784354000000     1.007825032230
         O            2.631503000000     1.421712000000    -1.348374000000    15.994914619570
         H            1.781393000000     1.299793000000    -0.855764000000     1.007825032230
         H            3.087746000000     0.624659000000    -1.064809000000     1.007825032230
         O           -0.810626000000     0.796305000000     2.988929000000    15.994914619570
         H           -1.124595000000     0.478072000000     2.104225000000     1.007825032230
         H           -1.310898000000     0.268521000000     3.682673000000     1.007825032230

  Charge       = -1
  Multiplicity = 1
  Basis Set: AUG-CC-PVTZ
    Blend: AUG-CC-PVTZ
  Basis Set: (AUG-CC-PVTZ AUX)
    Blend: AUG-CC-PVTZ-JKFIT

    Orbital Energies [Eh]
    ---------------------

    Doubly Occupied:

       1A   -104.585026     2A    -20.448768     3A    -20.438196
       4A    -20.424927     5A    -20.418960     6A    -20.418821
       7A    -20.414922     8A    -10.310180     9A     -7.776300
      10A     -7.776242    11A     -7.776204    12A     -1.236959
      13A     -1.204616    14A     -1.201074    15A     -1.199050
      16A     -1.195703    17A     -1.194358    18A     -0.828186
      19A     -0.609447    20A     -0.579470    21A     -0.567651
      22A     -0.558935    23A     -0.555330    24A     -0.550504
      25A     -0.460900    26A     -0.454351    27A     -0.447358
      28A     -0.442299    29A     -0.436493    30A     -0.423810
      31A     -0.393255    32A     -0.374442    33A     -0.368579
      34A     -0.364426    35A     -0.360105    36A     -0.357621
      37A     -0.241952    38A     -0.239463    39A     -0.236899

  @DF-RHF Final Energy:  -915.98021691330337

   => Energetics <=

    Nuclear Repulsion Energy =            386.2591916513658248
    One-Electron Energy =               -2048.7352434383769832
    Two-Electron Energy =                 746.4958348737077358
    Total Energy =                       -915.9802169133033658
 Dipole X            :        -17.9810155           18.7879652            0.8069497
 Dipole Y            :         -3.6288976            3.7560404            0.1271428
 Dipole Z            :         47.0472596          -44.7968573            2.2504023
 Magnitude           :                                                    2.3940851
  Basis Set: (AUG-CC-PVTZ AUX)
    Blend: AUG-CC-PVTZ-RI
	 Reference Energy          =    -915.9802169133033658 [Eh]
	 Singles Energy            =      -0.0000000000000000 [Eh]
	 Same-Spin Energy          =      -0.4860181763896303 [Eh]
	 Opposite-Spin Energy      =      -1.4914800845844922 [Eh]
	 Correlation Energy        =      -1.9774982609741225 [Eh]
	 Total Energy              =    -917.9577151742774959 [Eh]

	 ================> DF-SCS-MP2 Energies <==================
	-----------------------------------------------------------
	 SCS Same-Spin Scale       =       0.3333333333333333 [-]
	 SCS Opposite-Spin Scale   =       1.2000000000000000 [-]
	 SCS Same-Spin Energy      =      -0.1620060587965434 [Eh]
	 SCS Opposite-Spin Energy  =      -1.7897761015013907 [Eh]
	 SCS Correlation Energy    =      -1.9517821602979342 [Eh]
	 SCS Total Energy          =    -917.9319990736013324 [Eh]
	-----------------------------------------------------------

*** Psi4 exiting successfully. Buy a developer a beer!
