                               Psi4 1.8.2 release

  ==> Input File <==

--------------------------------------------------------------------------
MEMORY 60 GB

molecule dimer {
-1 1
Cl         0.000000     0.000000     0.000000
O         -1.308514    -3.021033     0.224570
H         -0.936905    -2.106332     0.230301
H         -1.583115    -3.224008    -0.634500
O          2.034987    -2.736438     0.261525
H          1.926419    -3.209727     1.152196
H          1.340897    -2.074538     0.255592
O          2.614152     1.974738    -1.057657
H          2.604676     1.369411    -0.325218
H          3.499309     2.340070    -1.031330
O         -0.443471     1.169568    -3.144304
H         -0.589228     0.505431    -2.398513
H         -0.814852     0.803347    -3.980457
O          3.188344    -0.067036     1.347838
H          3.603647     0.506360     1.946832
H          2.585837    -0.642943     1.833742
O          0.074816    -0.986092     3.001192
H         -0.185721    -0.495387     2.211357
H         -0.346700    -0.687598     3.778177
O         -3.028136    -0.051263     0.795317
H         -3.215716     0.852168     1.057333
H         -2.058031    -0.146230     0.730970

units ang
no_reorient
no_com
symmetry c1
}

set {
basis        aug-cc-pVTZ
scf_type     df
}

energy("mp2")
--------------------------------------------------------------------------

    Molecular point group: c1

    Geometry (in Angstrom), charge = -1, multiplicity = 1:

       Center              X                  Y                   Z               Mass
    ------------   -----------------  -----------------  -----------------  -----------------
         CL           0.000000000000     0.000000000000     0.000000000000    34.968852682000
         O           -1.308514000000    -3.021033000000     0.224570000000    15.994914619570
         H           -0.936905000000    -2.106332000000     0.230301000000     1.007825032230
         H           -1.583115000000    -3.224008000000    -0.634500000000     1.007825032230
         O            2.034987000000    -2.736438000000     0.261525000000    15.994914619570
         H            1.926419000000    -3.209727000000     1.152196000000     1.007825032230
         H            1.340897000000    -2.074538000000     0.255592000000     1.007825032230
         O            2.614152000000     1.974738000000    -1.057657000000    15.994914619570
         H            2.604676000000     1.369411000000    -0.325218000000     1.007825032230
         H            3.499309000000     2.340070000000    -1.031330000000     1.007825032230
         O           -0.443471000000     1.169568000000    -3.144304000000    15.994914619570
         H           -0.589228000000     0.505431000000    -2.398513000000     1.007825032230
         H           -0.814852000000     0.803347000000    -3.980457000000     1.007825032230
         O            3.188344000000    -0.067036000000     1.347838000000    15.994914619570
         H            3.603647000000     0.506360000000     1.946832000000     1.007825032230
         H            2.585837000000    -0.642943000000     1.833742000000     1.007825032230
         O            0.074816000000    -0.986092000000     3.001192000000    15.994914619570
         H           -0.185721000000    -0.495387000000     2.211357000000     1.007825032230
         H           -0.346700000000    -0.687598000000     3.778177000000     1.007825032230
         O           -3.028136000000    -0.051263000000     0.795317000000    15.994914619570
         H           -3.215716000000     0.852168000000     1.057333000000     1.007825032230
         H           -2.058031000000    -0.146230000000     0.730970000000     1.007825032230

  Charge       = -1
  Multiplicity = 1
  Basis Set: AUG-CC-PVTZ
    Blend: AUG-CC-PVTZ
  Basis Set: (AUG-CC-PVTZ AUX)
    Blend: AUG-CC-PVTZ-JKFIT

    Orbital Energies [Eh]
    ---------------------

    Doubly Occupied:

       1A   -104.589377     2A    -20.440503     3A    -20.428017
       4A    -20.422958     5A    -20.417228     6A    -20.415182
       7A    -20.411139     8A    -20.406684     9A    -10.314856
      10A     -7.780956    11A     -7.780886    12A     -7.780864
      13A     -1.236178    14A     -1.221920    15A     -1.204889
      16A     -1.199133    17A     -1.194245    18A     -1.187299
      19A     -1.183581    20A     -0.836590    21A     -0.612844
      22A     -0.608139    23A     -0.577316    24A     -0.567624
      25A     -0.566368    26A     -0.556850    27A     -0.550548
      28A     -0.462540    29A     -0.444351    30A     -0.434700
      31A     -0.429902    32A     -0.429392    33A     -0.427531
      34A     -0.421675    35A     -0.390073    36A     -0.378693
      37A     -0.363233    38A     -0.360450    39A     -0.358125
      40A     -0.357019    41A     -0.348790    42A     -0.248549
      43A     -0.244333    44A     -0.243224

  @DF-RHF Final Energy:  -992.03646044839411

   => Energetics <=

    Nuclear Repulsion Energy =            503.8641418107774257
    One-Electron Energy =               -2390.1316922999612871
    Two-Electron Energy =                 894.2310900407896952
    Total Energy =                       -992.0364604483941093
 Dipole X            :        -58.4203998           58.3697491           -0.0506507
 Dipole Y            :         69.1742659          -67.9364555            1.2378105
 Dipole Z            :        -29.6711402           30.7162321            1.0450919
 Magnitude           :                                                    1.6207891
  Basis Set: (AUG-CC-PVTZ AUX)
    Blend: AUG-CC-PVTZ-RI
	 Reference Energy          =    -992.0364604483941093 [Eh]
	 Singles Energy            =      -0.0000000000000000 [Eh]
	 Same-Spin Energy          =      -0.5579702819224703 [Eh]
	 Opposite-Spin Energy      =      -1.7106881051325216 [Eh]
	 Correlation Energy        =      -2.2686583870549919 [Eh]
	 Total Energy              =    -994.3051188354490932 [Eh]

	 ================> DF-SCS-MP2 Energies <==================
	-----------------------------------------------------------
	 SCS Same-Spin Scale       =       0.3333333333333333 [-]
	 SCS Opposite-Spin Scale   =       1.2000000000000000 [-]
	 SCS Same-Spin Energy      =      -0.1859900939741568 [Eh]
	 SCS Opposite-Spin Energy  =      -2.0528257261590257 [Eh]
	 SCS Correlation Energy    =      -2.2388158201331825 [Eh]
	 SCS Total Energy          =    -994.2752762685272501 [Eh]
	-----------------------------------------------------------

*** Psi4 exiting successfully. Buy a developer a beer!
