                               Psi4 1.8.2 release

  ==> Input File <==

--------------------------------------------------------------------------
MEMORY 60 GB

molecule dimer {
0 1
Gh(Cl)     0.000000     0.000000     0.000000
O          1.279422     1.813072     2.395684
H          0.682919     1.310388     1.792513
H          1.966367     1.174297     2.713761
Gh(O)      0.654636     0.433879    -3.071352
Gh(H)      0.416601     0.627639    -2.150429
Gh(H)      1.079299    -0.421006    -3.057450
Gh(O)     -2.751681    -1.662134    -0.715478
Gh(H)     -1.767176    -1.405085    -0.782986
Gh(H)     -2.615721    -2.522329    -0.314722
Gh(O)     -0.054526    -2.456372     1.915545
Gh(H)     -0.644121    -2.325736     2.724853
Gh(H)     -0.025853    -1.607846     1.466047

units ang
no_reorient
no_com
symmetry c1
}

set {
basis        aug-cc-pVTZ
scf_type     df
}

energy("mp2")
--------------------------------------------------------------------------

    Molecular point group: c1

    Geometry (in Angstrom), charge = 0, multiplicity = 1:

       Center              X                  Y                   Z               Mass
    ------------   -----------------  -----------------  -----------------  -----------------
      Gh(CL)          0.000000000000     0.000000000000     0.000000000000    34.968852682000
         O            1.279422000000     1.813072000000     2.395684000000    15.994914619570
         H            0.682919000000     1.310388000000     1.792513000000     1.007825032230
         H            1.966367000000     1.174297000000     2.713761000000     1.007825032230
      Gh(O)           0.654636000000     0.433879000000    -3.071352000000    15.994914619570
      Gh(H)           0.416601000000     0.627639000000    -2.150429000000     1.007825032230
      Gh(H)           1.079299000000    -0.421006000000    -3.057450000000     1.007825032230
      Gh(O)          -2.751681000000    -1.662134000000    -0.715478000000    15.994914619570
      Gh(H)          -1.767176000000    -1.405085000000    -0.782986000000     1.007825032230
      Gh(H)          -2.615721000000    -2.522329000000    -0.314722000000     1.007825032230
      Gh(O)          -0.054526000000    -2.456372000000     1.915545000000    15.994914619570
      Gh(H)          -0.644121000000    -2.325736000000     2.724853000000     1.007825032230
      Gh(H)          -0.025853000000    -1.607846000000     1.466047000000     1.007825032230

  Charge       = 0
  Multiplicity = 1
  Basis Set: AUG-CC-PVTZ
    Blend: AUG-CC-PVTZ
  Basis Set: (AUG-CC-PVTZ AUX)
    Blend: AUG-CC-PVTZ-JKFIT

    Orbital Energies [Eh]
    ---------------------

    Doubly Occupied:

       1A    -20.571502     2A     -1.336645     3A     -0.705019
       4A     -0.574762     5A     -0.507194

  @DF-RHF Final Energy:   -76.05673739044425

   => Energetics <=

    Nuclear Repulsion Energy =              8.9009655736599225
    One-Electron Energy =                -122.5251579228936976
    Two-Electron Energy =                  37.5674549587895399
    Total Energy =                        -76.0567373904442405
 Dipole X            :        -24.2899543           24.3484824            0.0585281
 Dipole Y            :        -32.8549119           32.1050504           -0.7498615
 Dipole Z            :        -44.9210429           44.7331169           -0.1879261
 Magnitude           :                                                    0.7752638
  Basis Set: (AUG-CC-PVTZ AUX)
    Blend: AUG-CC-PVTZ-RI
	 Reference Energy          =     -76.0567373904442547 [Eh]
	 Singles Energy            =      -0.0000000000000000 [Eh]
	 Same-Spin Energy          =      -0.0688789777733219 [Eh]
	 Opposite-Spin Energy      =      -0.2172306524817884 [Eh]
	 Correlation Energy        =      -0.2861096302551103 [Eh]
	 Total Energy              =     -76.3428470206993666 [Eh]

	 ================> DF-SCS-MP2 Energies <==================
	-----------------------------------------------------------
	 SCS Same-Spin Scale       =       0.3333333333333333 [-]
	 SCS Opposite-Spin Scale   =       1.2000000000000000 [-]
	 SCS Same-Spin Energy      =      -0.0229596592577740 [Eh]
	 SCS Opposite-Spin Energy  =      -0.2606767829781460 [Eh]
	 SCS Correlation Energy    =      -0.2836364422359200 [Eh]
	 SCS Total Energy          =     -76.3403738326801715 [Eh]
	-----------------------------------------------------------

*** Psi4 exiting successfully. Buy a developer a beer!
