                               Psi4 1.8.2 release

  ==> Input File <==

--------------------------------------------------------------------------
MEMORY 60 GB

molecule dimer {
-1 1
Cl         0.000000     0.000000     0.000000
Gh(O)      0.312084    -2.150104    -2.377592
Gh(H)     -0.296467    -2.021026    -3.090852
Gh(H)     -0.022577    -1.598504    -1.659883
Gh(O)      1.889572     0.729427    -2.641984
Gh(H)      2.634422     0.109919    -2.606851
Gh(H)      1.389837     0.523187    -1.827466
Gh(O)     -2.762003     1.925216     0.336061
Gh(H)     -2.814583     2.737091    -0.091539
Gh(H)     -1.965756     1.584775    -0.015239
Gh(O)      0.811586     2.751185     1.027694
Gh(H)      1.119303     3.426267     0.397995
Gh(H)      0.691782     1.988673     0.474040
Gh(O)      2.965938    -0.228637     0.943152
Gh(H)      2.234889     0.224653     0.518219
Gh(H)      2.499928    -0.824590     1.525148

units ang
no_reorient
no_com
symmetry c1
}

set {
basis        aug-cc-pVTZ
scf_type     df
}

energy("mp2")
--------------------------------------------------------------------------

    Molecular point group: c1

    Geometry (in Angstrom), charge = -1, multiplicity = 1:

       Center              X                  Y                   Z               Mass
    ------------   -----------------  -----------------  -----------------  -----------------
         CL           0.000000000000     0.000000000000     0.000000000000    34.968852682000
      Gh(O)           0.312084000000    -2.150104000000    -2.377592000000    15.994914619570
      Gh(H)          -0.296467000000    -2.021026000000    -3.090852000000     1.007825032230
      Gh(H)          -0.022577000000    -1.598504000000    -1.659883000000     1.007825032230
      Gh(O)           1.889572000000     0.729427000000    -2.641984000000    15.994914619570
      Gh(H)           2.634422000000     0.109919000000    -2.606851000000     1.007825032230
      Gh(H)           1.389837000000     0.523187000000    -1.827466000000     1.007825032230
      Gh(O)          -2.762003000000     1.925216000000     0.336061000000    15.994914619570
      Gh(H)          -2.814583000000     2.737091000000    -0.091539000000     1.007825032230
      Gh(H)          -1.965756000000     1.584775000000    -0.015239000000     1.007825032230
      Gh(O)           0.811586000000     2.751185000000     1.027694000000    15.994914619570
      Gh(H)           1.119303000000     3.426267000000     0.397995000000     1.007825032230
      Gh(H)           0.691782000000     1.988673000000     0.474040000000     1.007825032230
      Gh(O)           2.965938000000    -0.228637000000     0.943152000000    15.994914619570
      Gh(H)           2.234889000000     0.224653000000     0.518219000000     1.007825032230
      Gh(H)           2.499928000000    -0.824590000000     1.525148000000     1.007825032230

  Charge       = -1
  Multiplicity = 1
  Basis Set: AUG-CC-PVTZ
    Blend: AUG-CC-PVTZ
  Basis Set: (AUG-CC-PVTZ AUX)
    Blend: AUG-CC-PVTZ-JKFIT

    Orbital Energies [Eh]
    ---------------------

    Doubly Occupied:

       1A   -104.507294     2A    -10.230068     3A     -7.696149
       4A     -7.696121     5A     -7.696111     6A     -0.733466
       7A     -0.150309     8A     -0.150307     9A     -0.150303

  @DF-RHF Final Energy:  -459.57358140702053

   => Energetics <=

    Nuclear Repulsion Energy =              0.0000000000000000
    One-Electron Energy =                -641.1269197784098424
    Two-Electron Energy =                 181.5533383713893159
    Total Energy =                       -459.5735814070205265
 Dipole X            :          0.0002033            0.0000000            0.0002033
 Dipole Y            :          0.0002971            0.0000000            0.0002971
 Dipole Z            :         -0.0002213            0.0000000           -0.0002213
 Magnitude           :                                                    0.0004226
  Basis Set: (AUG-CC-PVTZ AUX)
    Blend: AUG-CC-PVTZ-RI
	 Reference Energy          =    -459.5735814070205265 [Eh]
	 Singles Energy            =      -0.0000000000000000 [Eh]
	 Same-Spin Energy          =      -0.0635987337897210 [Eh]
	 Opposite-Spin Energy      =      -0.1841231324840040 [Eh]
	 Correlation Energy        =      -0.2477218662737250 [Eh]
	 Total Energy              =    -459.8213032732942338 [Eh]

	 ================> DF-SCS-MP2 Energies <==================
	-----------------------------------------------------------
	 SCS Same-Spin Scale       =       0.3333333333333333 [-]
	 SCS Opposite-Spin Scale   =       1.2000000000000000 [-]
	 SCS Same-Spin Energy      =      -0.0211995779299070 [Eh]
	 SCS Opposite-Spin Energy  =      -0.2209477589808048 [Eh]
	 SCS Correlation Energy    =      -0.2421473369107118 [Eh]
	 SCS Total Energy          =    -459.8157287439312313 [Eh]
	-----------------------------------------------------------

*** Psi4 exiting successfully. Buy a developer a beer!
