                               Psi4 1.8.2 release

  ==> Input File <==

--------------------------------------------------------------------------
MEMORY 60 GB

molecule dimer {
0 1
Gh(Cl)     0.000000     0.000000     0.000000
Gh(O)      1.242748     0.373838    -2.862966
Gh(H)      1.138454     0.351436    -1.908457
Gh(H)      2.040450     0.897382    -2.964663
Gh(O)      0.276420     3.153674    -0.747807
Gh(H)      0.355701     2.306751    -0.429567
Gh(H)     -0.187972     3.065629    -1.574720
O          0.006494     0.560028     2.997778
H          0.008803     0.499540     2.013278
H          0.769493     0.188003     3.383861
Gh(O)      3.047364     0.861757     0.211652
Gh(H)      2.118883     0.732903     0.199202
Gh(H)      3.204150     1.194867    -0.687368
Gh(O)      2.269934    -2.438292    -1.028284
Gh(H)      2.047839    -1.483943    -0.900356
Gh(H)      1.445497    -2.891753    -0.787702

units ang
no_reorient
no_com
symmetry c1
}

set {
basis        aug-cc-pVTZ
scf_type     df
}

energy("mp2")
--------------------------------------------------------------------------

    Molecular point group: c1

    Geometry (in Angstrom), charge = 0, multiplicity = 1:

       Center              X                  Y                   Z               Mass
    ------------   -----------------  -----------------  -----------------  -----------------
      Gh(CL)          0.000000000000     0.000000000000     0.000000000000    34.968852682000
      Gh(O)           1.242748000000     0.373838000000    -2.862966000000    15.994914619570
      Gh(H)           1.138454000000     0.351436000000    -1.908457000000     1.007825032230
      Gh(H)           2.040450000000     0.897382000000    -2.964663000000     1.007825032230
      Gh(O)           0.276420000000     3.153674000000    -0.747807000000    15.994914619570
      Gh(H)           0.355701000000     2.306751000000    -0.429567000000     1.007825032230
      Gh(H)          -0.187972000000     3.065629000000    -1.574720000000     1.007825032230
         O            0.006494000000     0.560028000000     2.997778000000    15.994914619570
         H            0.008803000000     0.499540000000     2.013278000000     1.007825032230
         H            0.769493000000     0.188003000000     3.383861000000     1.007825032230
      Gh(O)           3.047364000000     0.861757000000     0.211652000000    15.994914619570
      Gh(H)           2.118883000000     0.732903000000     0.199202000000     1.007825032230
      Gh(H)           3.204150000000     1.194867000000    -0.687368000000     1.007825032230
      Gh(O)           2.269934000000    -2.438292000000    -1.028284000000    15.994914619570
      Gh(H)           2.047839000000    -1.483943000000    -0.900356000000     1.007825032230
      Gh(H)           1.445497000000    -2.891753000000    -0.787702000000     1.007825032230

  Charge       = 0
  Multiplicity = 1
  Basis Set: AUG-CC-PVTZ
    Blend: AUG-CC-PVTZ
  Basis Set: (AUG-CC-PVTZ AUX)
    Blend: AUG-CC-PVTZ-JKFIT

    Orbital Energies [Eh]
    ---------------------

    Doubly Occupied:

       1A    -20.563516     2A     -1.347398     3A     -0.731765
       4A     -0.568357     5A     -0.507686

  @DF-RHF Final Energy:   -76.05784057221267

   => Energetics <=

    Nuclear Repulsion Energy =              9.1627397965065924
    One-Electron Energy =                -123.0037140198813859
    Two-Electron Energy =                  37.7831336511621245
    Total Energy =                        -76.0578405722126547
 Dipole X            :         -1.0436833            1.5689413            0.5252580
 Dipole Y            :        -10.0621119            9.7656643           -0.2964476
 Dipole Z            :        -55.9216492           55.5189498           -0.4026993
 Magnitude           :                                                    0.7252199
  Basis Set: (AUG-CC-PVTZ AUX)
    Blend: AUG-CC-PVTZ-RI
	 Reference Energy          =     -76.0578405722126689 [Eh]
	 Singles Energy            =      -0.0000000000000000 [Eh]
	 Same-Spin Energy          =      -0.0683429534604880 [Eh]
	 Opposite-Spin Energy      =      -0.2157054559541820 [Eh]
	 Correlation Energy        =      -0.2840484094146700 [Eh]
	 Total Energy              =     -76.3418889816273349 [Eh]

	 ================> DF-SCS-MP2 Energies <==================
	-----------------------------------------------------------
	 SCS Same-Spin Scale       =       0.3333333333333333 [-]
	 SCS Opposite-Spin Scale   =       1.2000000000000000 [-]
	 SCS Same-Spin Energy      =      -0.0227809844868293 [Eh]
	 SCS Opposite-Spin Energy  =      -0.2588465471450184 [Eh]
	 SCS Correlation Energy    =      -0.2816275316318478 [Eh]
	 SCS Total Energy          =     -76.3394681038445100 [Eh]
	-----------------------------------------------------------

*** Psi4 exiting successfully. Buy a developer a beer!
