                               Psi4 1.8.2 release

  ==> Input File <==

--------------------------------------------------------------------------
MEMORY 60 GB

molecule dimer {
0 1
Gh(Cl)     0.000000     0.000000     0.000000
Gh(O)     -2.666239    -1.301881    -1.054630
Gh(H)     -2.570208    -2.255430    -1.078506
Gh(H)     -1.746081    -0.991791    -0.817387
Gh(O)      2.937235     1.235636     1.266441
Gh(H)      2.072901     1.332314     0.901382
Gh(H)      3.468418     0.879650     0.560004
O          1.295345    -2.245929    -1.956363
H          1.158236    -1.580727    -1.284266
H          2.249821    -2.129765    -2.294281
Gh(O)     -0.958484     0.502465     3.280993
Gh(H)     -0.809748     0.779828     2.366636
Gh(H)     -1.182722     1.362005     3.722428
Gh(O)      0.241628     0.646788    -3.126455
Gh(H)     -0.264673    -0.011637    -3.659669
Gh(H)      0.068030     0.453437    -2.210305
Gh(O)     -0.360914    -2.944825     1.314556
Gh(H)     -0.173939    -2.033118     1.069273
Gh(H)     -0.850519    -2.681567     2.112550

units ang
no_reorient
no_com
symmetry c1
}

set {
basis        aug-cc-pVTZ
scf_type     df
}

energy("mp2")
--------------------------------------------------------------------------

    Molecular point group: c1

    Geometry (in Angstrom), charge = 0, multiplicity = 1:

       Center              X                  Y                   Z               Mass
    ------------   -----------------  -----------------  -----------------  -----------------
      Gh(CL)          0.000000000000     0.000000000000     0.000000000000    34.968852682000
      Gh(O)          -2.666239000000    -1.301881000000    -1.054630000000    15.994914619570
      Gh(H)          -2.570208000000    -2.255430000000    -1.078506000000     1.007825032230
      Gh(H)          -1.746081000000    -0.991791000000    -0.817387000000     1.007825032230
      Gh(O)           2.937235000000     1.235636000000     1.266441000000    15.994914619570
      Gh(H)           2.072901000000     1.332314000000     0.901382000000     1.007825032230
      Gh(H)           3.468418000000     0.879650000000     0.560004000000     1.007825032230
         O            1.295345000000    -2.245929000000    -1.956363000000    15.994914619570
         H            1.158236000000    -1.580727000000    -1.284266000000     1.007825032230
         H            2.249821000000    -2.129765000000    -2.294281000000     1.007825032230
      Gh(O)          -0.958484000000     0.502465000000     3.280993000000    15.994914619570
      Gh(H)          -0.809748000000     0.779828000000     2.366636000000     1.007825032230
      Gh(H)          -1.182722000000     1.362005000000     3.722428000000     1.007825032230
      Gh(O)           0.241628000000     0.646788000000    -3.126455000000    15.994914619570
      Gh(H)          -0.264673000000    -0.011637000000    -3.659669000000     1.007825032230
      Gh(H)           0.068030000000     0.453437000000    -2.210305000000     1.007825032230
      Gh(O)          -0.360914000000    -2.944825000000     1.314556000000    15.994914619570
      Gh(H)          -0.173939000000    -2.033118000000     1.069273000000     1.007825032230
      Gh(H)          -0.850519000000    -2.681567000000     2.112550000000     1.007825032230

  Charge       = 0
  Multiplicity = 1
  Basis Set: AUG-CC-PVTZ
    Blend: AUG-CC-PVTZ
  Basis Set: (AUG-CC-PVTZ AUX)
    Blend: AUG-CC-PVTZ-JKFIT

    Orbital Energies [Eh]
    ---------------------

    Doubly Occupied:

       1A    -20.571067     2A     -1.337947     3A     -0.705987
       4A     -0.574459     5A     -0.507322

  @DF-RHF Final Energy:   -76.05528852082912

   => Energetics <=

    Nuclear Repulsion Energy =              8.9181095481494079
    One-Electron Energy =                -122.5532291184030385
    Two-Electron Energy =                  37.5798310494245200
    Total Energy =                        -76.0552885208291229
 Dipole X            :        -25.4923687           26.0230727            0.5307040
 Dipole Y            :         41.4827937          -40.9653393            0.5174543
 Dipole Z            :         36.5651491          -36.3383959            0.2267532
 Magnitude           :                                                    0.7751275
  Basis Set: (AUG-CC-PVTZ AUX)
    Blend: AUG-CC-PVTZ-RI
	 Reference Energy          =     -76.0552885208291229 [Eh]
	 Singles Energy            =      -0.0000000000000000 [Eh]
	 Same-Spin Energy          =      -0.0688726243339777 [Eh]
	 Opposite-Spin Energy      =      -0.2174348111910441 [Eh]
	 Correlation Energy        =      -0.2863074355250218 [Eh]
	 Total Energy              =     -76.3415959563541406 [Eh]

	 ================> DF-SCS-MP2 Energies <==================
	-----------------------------------------------------------
	 SCS Same-Spin Scale       =       0.3333333333333333 [-]
	 SCS Opposite-Spin Scale   =       1.2000000000000000 [-]
	 SCS Same-Spin Energy      =      -0.0229575414446592 [Eh]
	 SCS Opposite-Spin Energy  =      -0.2609217734292529 [Eh]
	 SCS Correlation Energy    =      -0.2838793148739121 [Eh]
	 SCS Total Energy          =     -76.3391678357030372 [Eh]
	-----------------------------------------------------------

*** Psi4 exiting successfully. Buy a developer a beer!
