                               Psi4 1.8.2 release

  ==> Input File <==

--------------------------------------------------------------------------
MEMORY 60 GB

molecule dimer {
-1 1
Cl         0.000000     0.000000     0.000000
O          0.342923    -3.144879    -0.065421
H          0.545982    -2.209152     0.245600
H          0.550095    -3.627707     0.755600
O          1.545164    -1.036990    -2.802892
H          1.062947    -0.596055    -2.031424
H          1.045874    -1.828531    -2.968351
O         -2.202907    -0.562551    -2.232048
H         -2.116080    -1.498992    -1.934838
H         -1.695715    -0.086551    -1.598454
O          2.746028     1.913676     0.329460
H          1.934738     1.451620     0.279372
H          3.036698     2.122048     1.297810

units ang
no_reorient
no_com
symmetry c1
}

set {
basis        aug-cc-pVTZ
scf_type     df
}

energy("mp2")
--------------------------------------------------------------------------

    Molecular point group: c1

    Geometry (in Angstrom), charge = -1, multiplicity = 1:

       Center              X                  Y                   Z               Mass
    ------------   -----------------  -----------------  -----------------  -----------------
         CL           0.000000000000     0.000000000000     0.000000000000    34.968852682000
         O            0.342923000000    -3.144879000000    -0.065421000000    15.994914619570
         H            0.545982000000    -2.209152000000     0.245600000000     1.007825032230
         H            0.550095000000    -3.627707000000     0.755600000000     1.007825032230
         O            1.545164000000    -1.036990000000    -2.802892000000    15.994914619570
         H            1.062947000000    -0.596055000000    -2.031424000000     1.007825032230
         H            1.045874000000    -1.828531000000    -2.968351000000     1.007825032230
         O           -2.202907000000    -0.562551000000    -2.232048000000    15.994914619570
         H           -2.116080000000    -1.498992000000    -1.934838000000     1.007825032230
         H           -1.695715000000    -0.086551000000    -1.598454000000     1.007825032230
         O            2.746028000000     1.913676000000     0.329460000000    15.994914619570
         H            1.934738000000     1.451620000000     0.279372000000     1.007825032230
         H            3.036698000000     2.122048000000     1.297810000000     1.007825032230

  Charge       = -1
  Multiplicity = 1
  Basis Set: AUG-CC-PVTZ
    Blend: AUG-CC-PVTZ
  Basis Set: (AUG-CC-PVTZ AUX)
    Blend: AUG-CC-PVTZ-JKFIT

    Orbital Energies [Eh]
    ---------------------

    Doubly Occupied:

       1A   -104.579191     2A    -20.426228     3A    -20.421038
       4A    -20.405678     5A    -20.399628     6A    -10.304312
       7A     -7.770411     8A     -7.770388     9A     -7.770367
      10A     -1.196110    11A     -1.191800    12A     -1.191643
      13A     -1.175219    14A     -0.821569    15A     -0.575220
      16A     -0.554274    17A     -0.545814    18A     -0.538521
      19A     -0.448475    20A     -0.432653    21A     -0.421014
      22A     -0.418238    23A     -0.365310    24A     -0.362001
      25A     -0.352744    26A     -0.340809    27A     -0.234052
      28A     -0.233148    29A     -0.231851

  @DF-RHF Final Energy:  -763.85188646861252

   => Energetics <=

    Nuclear Repulsion Energy =            221.2168579460496289
    One-Electron Energy =               -1507.1820728330203565
    Two-Electron Energy =                 522.1133284183581509
    Total Energy =                       -763.8518864686125198
 Dipole X            :        -45.5897124           45.0023216           -0.5873908
 Dipole Y            :         54.5782997          -54.6495038           -0.0712041
 Dipole Z            :         86.1227691          -83.3782939            2.7444752
 Magnitude           :                                                    2.8075331
  Basis Set: (AUG-CC-PVTZ AUX)
    Blend: AUG-CC-PVTZ-RI
	 Reference Energy          =    -763.8518864686125198 [Eh]
	 Singles Energy            =      -0.0000000000000000 [Eh]
	 Same-Spin Energy          =      -0.3464740947804200 [Eh]
	 Opposite-Spin Energy      =      -1.0565300771068504 [Eh]
	 Correlation Energy        =      -1.4030041718872703 [Eh]
	 Total Energy              =    -765.2548906404997524 [Eh]

	 ================> DF-SCS-MP2 Energies <==================
	-----------------------------------------------------------
	 SCS Same-Spin Scale       =       0.3333333333333333 [-]
	 SCS Opposite-Spin Scale   =       1.2000000000000000 [-]
	 SCS Same-Spin Energy      =      -0.1154913649268066 [Eh]
	 SCS Opposite-Spin Energy  =      -1.2678360925282204 [Eh]
	 SCS Correlation Energy    =      -1.3833274574550269 [Eh]
	 SCS Total Energy          =    -765.2352139260675585 [Eh]
	-----------------------------------------------------------

*** Psi4 exiting successfully. Buy a developer a beer!
