                               Psi4 1.9 release

  ==> Input File <==

--------------------------------------------------------------------------
MEMORY 60 GB

molecule dimer {
-1 1
Cl     0.000000     0.000000     0.000000
--
0 1
O      3.121084    -0.404087    -0.885356
H      3.116609    -0.372361    -1.845845
H      2.192719    -0.330448    -0.616616
O     -2.819140     1.570254    -0.734010
H     -2.611282     1.796412    -1.725910
H     -2.014272     1.104724    -0.433930
O      0.369494     3.158235     0.273032
H      0.266849     2.267125    -0.149408
H      0.062383     2.931659     1.171278
O      1.432734     1.306996     2.864927
H      1.572932     0.422647     3.152455
H      1.365478     1.291318     1.910667
O     -1.816873    -2.925684    -0.245655
H     -1.793579    -2.165113     0.358356
H     -2.001121    -3.664882     0.343775
O      0.586581     0.286046    -3.368714
H      0.417037     1.203796    -3.600248
H      0.414413     0.201701    -2.417327

units ang
no_reorient
no_com
symmetry c1
}

set {
basis        aug-cc-pVTZ
scf_type     df
}

energy("mp2", bsse_type="cp")
--------------------------------------------------------------------------

                               Psi4 1.9 release
    Molecular point group: c1
  Charge       = 0
  Multiplicity = 1
  Basis Set: AUG-CC-PVTZ
    Blend: AUG-CC-PVTZ
  Basis Set: (AUG-CC-PVTZ AUX)
    Blend: AUG-CC-PVTZ-JKFIT
  @DF-RHF Final Energy:  -456.33869934743376
    Total Energy =                       -456.3386993474337601
 Dipole X            :        -15.5839160           15.0785140           -0.5054019
 Dipole Y            :        -54.8642570           54.0852052           -0.7790519
 Dipole Z            :         39.1346704          -38.9641893            0.1704811
 Magnitude           :                                                    0.9441487
  Basis Set: (AUG-CC-PVTZ AUX)
    Blend: AUG-CC-PVTZ-RI
	 Reference Energy          =    -456.3386993474337601 [Eh]
	 Singles Energy            =      -0.0000000000000000 [Eh]
	 Same-Spin Energy          =      -0.4141159236192900 [Eh]
	 Opposite-Spin Energy      =      -1.3027067684635183 [Eh]
	 Correlation Energy        =      -1.7168226920828082 [Eh]
	 Total Energy              =    -458.0555220395165748 [Eh]
	 SCS Total Energy          =    -458.0399861107964057 [Eh]
                               Psi4 1.9 release
    Molecular point group: c1
  Multiplicity = 1
  Basis Set: AUG-CC-PVTZ
    Blend: AUG-CC-PVTZ
  Basis Set: (AUG-CC-PVTZ AUX)
    Blend: AUG-CC-PVTZ-JKFIT
  @DF-RHF Final Energy:  -459.57358549632829
    Total Energy =                       -459.5735854963282918
  Basis Set: (AUG-CC-PVTZ AUX)
	 Singles Energy            =      -0.0000000000000000 [Eh]
	 Same-Spin Energy          =      -0.0636168943859114 [Eh]
	 Opposite-Spin Energy      =      -0.1840145346720761 [Eh]
	 Correlation Energy        =      -0.2476314290579874 [Eh]
	 Total Energy              =    -459.8212169253862953 [Eh]
	 SCS Total Energy          =    -459.8156085693967725 [Eh]
                               Psi4 1.9 release
    Molecular point group: c1

    Geometry (in Bohr), charge = -1, multiplicity = 1:

       Center              X                  Y                   Z               Mass
    ------------   -----------------  -----------------  -----------------  -----------------
         CL           0.000000000000     0.000000000000     0.000000000000    34.968852682000
         O            5.897993974548    -0.763613760858    -1.673080363531    15.994914619570
         H            5.889537450137    -0.703660309802    -3.488141520046     1.007825032230
         H            4.143638380088    -0.624456218705    -1.165235364575     1.007825032230
         O           -5.327402509323     2.967350007405    -1.387077873347    15.994914619570
         H           -4.934607816338     3.394726688486    -3.261497217189     1.007825032230
         H           -3.806422422178     2.087625804220    -0.820008857620     1.007825032230
         O            0.698242465000     5.968199189835     0.515955703486    15.994914619570
         H            0.504271526852     4.284245342179    -0.282340200952     1.007825032230
         H            0.117886784884     5.540032603234     2.213394636774     1.007825032230
         O            2.707474870632     2.469864487069     5.413927399430    15.994914619570
         H            2.972410693969     0.798687077746     5.957276572830     1.007825032230
         H            2.580379450338     2.440237360874     3.610637346950     1.007825032230
         O           -3.433392374739    -5.528741489634    -0.464220671349    15.994914619570
         H           -3.389373094373    -4.091470600668     0.677194695415     1.007825032230
         H           -3.781570633902    -6.925623262120     0.649640598779     1.007825032230
         O            1.108477440397     0.540548599283    -6.365946854996    15.994914619570
         H            0.788085714183     2.274844750922    -6.803482703727     1.007825032230
         H            0.783127072829     0.381159649231    -4.568085985675     1.007825032230

  Charge       = -1
  Multiplicity = 1
  Basis Set: AUG-CC-PVTZ
    Blend: AUG-CC-PVTZ
  Basis Set: (AUG-CC-PVTZ AUX)
    Blend: AUG-CC-PVTZ-JKFIT

    Orbital Energies [Eh]
    ---------------------

    Doubly Occupied:

       1A   -104.605307     2A    -20.447876     3A    -20.439682
       4A    -20.432663     5A    -20.432524     6A    -20.420505
       7A    -20.417033     8A    -10.330618     9A     -7.796717
      10A     -7.796710    11A     -7.796640    12A     -1.228157
      13A     -1.226391    14A     -1.222130    15A     -1.201414
      16A     -1.196252    17A     -1.190151    18A     -0.850164
      19A     -0.600563    20A     -0.592184    21A     -0.587669
      22A     -0.570146    23A     -0.551377    24A     -0.545662
      25A     -0.465140    26A     -0.457326    27A     -0.455004
      28A     -0.449875    29A     -0.441622    30A     -0.438858
      31A     -0.388961    32A     -0.384027    33A     -0.381831
      34A     -0.369883    35A     -0.363000    36A     -0.359676
      37A     -0.262401    38A     -0.260702    39A     -0.257610

  @DF-RHF Final Energy:  -915.99361212659107

   => Energetics <=

    Nuclear Repulsion Energy =            389.1690938964232487
    One-Electron Energy =               -2053.8965025824763870
    Two-Electron Energy =                 748.7337965594621210
    Total Energy =                       -915.9936121265910742
 Dipole X            :        -15.7183383           15.0785140           -0.6398242
 Dipole Y            :        -55.4148424           54.0852052           -1.3296373
 Dipole Z            :         39.4544496          -38.9641893            0.4902603
 Magnitude           :                                                    1.5548844
  Basis Set: (AUG-CC-PVTZ AUX)
    Blend: AUG-CC-PVTZ-RI
	 Reference Energy          =    -915.9936121265910742 [Eh]
	 Singles Energy            =      -0.0000000000000000 [Eh]
	 Same-Spin Energy          =      -0.4866862227533148 [Eh]
	 Opposite-Spin Energy      =      -1.4923553777754925 [Eh]
	 Correlation Energy        =      -1.9790416005288074 [Eh]
	 Total Energy              =    -917.9726537271199049 [Eh]

	 ================> DF-SCS-MP2 Energies <==================
	-----------------------------------------------------------
	 SCS Same-Spin Scale       =       0.3333333333333333 [-]
	 SCS Opposite-Spin Scale   =       1.2000000000000000 [-]
	 SCS Same-Spin Energy      =      -0.1622287409177716 [Eh]
	 SCS Opposite-Spin Energy  =      -1.7908264533305911 [Eh]
	 SCS Correlation Energy    =      -1.9530551942483627 [Eh]
	 SCS Total Energy          =    -917.9466673208394241 [Eh]
	-----------------------------------------------------------

*** Psi4 exiting successfully. Buy a developer a beer!
