                               Psi4 1.8.2 release

  ==> Input File <==

--------------------------------------------------------------------------
MEMORY 60 GB

molecule dimer {
-1 1
Cl         0.000000     0.000000     0.000000
O          2.392892    -2.249336     0.528916
H          1.674089    -1.706624     0.209313
H          2.557296    -2.872549    -0.137894
O          0.444889    -1.472921    -3.121234
H         -0.461387    -1.401078    -3.412750
H          0.507135    -1.039894    -2.245373
O         -3.046056    -0.925525     0.944484
H         -2.313189    -0.468576     0.501708
H         -3.729574    -0.239388     1.075466
O          3.113696     1.295050    -0.353510
H          2.241301     1.067437     0.024019
H          3.028581     1.517922    -1.237394
O         -0.067022     3.095066     0.593650
H          0.114241     3.470367    -0.335940
H         -0.162182     2.157073     0.397022
O          0.244648     0.314880     3.296093
H          0.874277     1.006974     3.592872
H          0.245306     0.331853     2.336846

units ang
no_reorient
no_com
symmetry c1
}

set {
basis        aug-cc-pVTZ
scf_type     df
}

energy("mp2")
--------------------------------------------------------------------------

    Molecular point group: c1

    Geometry (in Angstrom), charge = -1, multiplicity = 1:

       Center              X                  Y                   Z               Mass
    ------------   -----------------  -----------------  -----------------  -----------------
         CL           0.000000000000     0.000000000000     0.000000000000    34.968852682000
         O            2.392892000000    -2.249336000000     0.528916000000    15.994914619570
         H            1.674089000000    -1.706624000000     0.209313000000     1.007825032230
         H            2.557296000000    -2.872549000000    -0.137894000000     1.007825032230
         O            0.444889000000    -1.472921000000    -3.121234000000    15.994914619570
         H           -0.461387000000    -1.401078000000    -3.412750000000     1.007825032230
         H            0.507135000000    -1.039894000000    -2.245373000000     1.007825032230
         O           -3.046056000000    -0.925525000000     0.944484000000    15.994914619570
         H           -2.313189000000    -0.468576000000     0.501708000000     1.007825032230
         H           -3.729574000000    -0.239388000000     1.075466000000     1.007825032230
         O            3.113696000000     1.295050000000    -0.353510000000    15.994914619570
         H            2.241301000000     1.067437000000     0.024019000000     1.007825032230
         H            3.028581000000     1.517922000000    -1.237394000000     1.007825032230
         O           -0.067022000000     3.095066000000     0.593650000000    15.994914619570
         H            0.114241000000     3.470367000000    -0.335940000000     1.007825032230
         H           -0.162182000000     2.157073000000     0.397022000000     1.007825032230
         O            0.244648000000     0.314880000000     3.296093000000    15.994914619570
         H            0.874277000000     1.006974000000     3.592872000000     1.007825032230
         H            0.245306000000     0.331853000000     2.336846000000     1.007825032230

  Charge       = -1
  Multiplicity = 1
  Basis Set: AUG-CC-PVTZ
    Blend: AUG-CC-PVTZ
  Basis Set: (AUG-CC-PVTZ AUX)
    Blend: AUG-CC-PVTZ-JKFIT

    Orbital Energies [Eh]
    ---------------------

    Doubly Occupied:

       1A   -104.611755     2A    -20.442138     3A    -20.432463
       4A    -20.430910     5A    -20.421039     6A    -20.416122
       7A    -20.415186     8A    -10.337296     9A     -7.803424
      10A     -7.803377    11A     -7.803332    12A     -1.223638
      13A     -1.217496    14A     -1.214896    15A     -1.207894
      16A     -1.202299    17A     -1.195226    18A     -0.858236
      19A     -0.597132    20A     -0.595886    21A     -0.584168
      22A     -0.573546    23A     -0.566384    24A     -0.558363
      25A     -0.458200    26A     -0.452667    27A     -0.446843
      28A     -0.441928    29A     -0.439982    30A     -0.431170
      31A     -0.386583    32A     -0.375917    33A     -0.372602
      34A     -0.369800    35A     -0.363246    36A     -0.359110
      37A     -0.270296    38A     -0.268153    39A     -0.265289

  @DF-RHF Final Energy:  -915.99778999611021

   => Energetics <=

    Nuclear Repulsion Energy =            389.4456485620627859
    One-Electron Energy =               -2054.4588878606996332
    Two-Electron Energy =                 749.0154493025265765
    Total Energy =                       -915.9977899961102139
 Dipole X            :        -56.5222008           55.2561021           -1.2660987
 Dipole Y            :         -3.4108949            4.3108980            0.9000031
 Dipole Z            :        -32.0131946           29.9995666           -2.0136279
 Magnitude           :                                                    2.5431691
  Basis Set: (AUG-CC-PVTZ AUX)
    Blend: AUG-CC-PVTZ-RI
	 Reference Energy          =    -915.9977899961102139 [Eh]
	 Singles Energy            =      -0.0000000000000000 [Eh]
	 Same-Spin Energy          =      -0.4857498657447182 [Eh]
	 Opposite-Spin Energy      =      -1.4900555169984808 [Eh]
	 Correlation Energy        =      -1.9758053827431992 [Eh]
	 Total Energy              =    -917.9735953788533607 [Eh]

	 ================> DF-SCS-MP2 Energies <==================
	-----------------------------------------------------------
	 SCS Same-Spin Scale       =       0.3333333333333333 [-]
	 SCS Opposite-Spin Scale   =       1.2000000000000000 [-]
	 SCS Same-Spin Energy      =      -0.1619166219149061 [Eh]
	 SCS Opposite-Spin Energy  =      -1.7880666203981770 [Eh]
	 SCS Correlation Energy    =      -1.9499832423130830 [Eh]
	 SCS Total Energy          =    -917.9477732384233377 [Eh]
	-----------------------------------------------------------

*** Psi4 exiting successfully. Buy a developer a beer!
