                               Psi4 1.8.2 release

  ==> Input File <==

--------------------------------------------------------------------------
MEMORY 60 GB

molecule dimer {
-1 1
Cl         0.000000     0.000000     0.000000
O          0.566870    -1.819815     2.698297
H         -0.078974    -2.614193     2.791088
H          0.377088    -1.191194     1.959657
O          2.279576     1.369045    -2.090596
H          1.885928     0.879649    -1.319566
H          2.785146     0.699748    -2.546213
O         -0.408105    -3.449801    -0.045884
H         -0.491537    -2.483954    -0.136913
H         -1.054600    -3.756136    -0.690336
O         -3.121446    -0.979678     0.008183
H         -3.306620    -1.940481     0.152311
H         -2.177854    -0.788117    -0.090022
O         -1.054861     1.302381     3.016395
H         -1.018792     0.388964     2.938793
H         -0.449422     1.623404     2.330560

units ang
no_reorient
no_com
symmetry c1
}

set {
basis        aug-cc-pVTZ
scf_type     df
}

energy("mp2")
--------------------------------------------------------------------------

    Molecular point group: c1

    Geometry (in Angstrom), charge = -1, multiplicity = 1:

       Center              X                  Y                   Z               Mass
    ------------   -----------------  -----------------  -----------------  -----------------
         CL           0.000000000000     0.000000000000     0.000000000000    34.968852682000
         O            0.566870000000    -1.819815000000     2.698297000000    15.994914619570
         H           -0.078974000000    -2.614193000000     2.791088000000     1.007825032230
         H            0.377088000000    -1.191194000000     1.959657000000     1.007825032230
         O            2.279576000000     1.369045000000    -2.090596000000    15.994914619570
         H            1.885928000000     0.879649000000    -1.319566000000     1.007825032230
         H            2.785146000000     0.699748000000    -2.546213000000     1.007825032230
         O           -0.408105000000    -3.449801000000    -0.045884000000    15.994914619570
         H           -0.491537000000    -2.483954000000    -0.136913000000     1.007825032230
         H           -1.054600000000    -3.756136000000    -0.690336000000     1.007825032230
         O           -3.121446000000    -0.979678000000     0.008183000000    15.994914619570
         H           -3.306620000000    -1.940481000000     0.152311000000     1.007825032230
         H           -2.177854000000    -0.788117000000    -0.090022000000     1.007825032230
         O           -1.054861000000     1.302381000000     3.016395000000    15.994914619570
         H           -1.018792000000     0.388964000000     2.938793000000     1.007825032230
         H           -0.449422000000     1.623404000000     2.330560000000     1.007825032230

  Charge       = -1
  Multiplicity = 1
  Basis Set: AUG-CC-PVTZ
    Blend: AUG-CC-PVTZ
  Basis Set: (AUG-CC-PVTZ AUX)
    Blend: AUG-CC-PVTZ-JKFIT

    Orbital Energies [Eh]
    ---------------------

    Doubly Occupied:

       1A   -104.591459     2A    -20.445841     3A    -20.429129
       4A    -20.426842     5A    -20.421019     6A    -20.413956
       7A    -10.316303     8A     -7.782446     9A     -7.782376
      10A     -7.782341    11A     -1.227987    12A     -1.212608
      13A     -1.207088    14A     -1.200324    15A     -1.177190
      16A     -0.832569    17A     -0.585897    18A     -0.582140
      19A     -0.577602    20A     -0.568495    21A     -0.564855
      22A     -0.470440    23A     -0.447914    24A     -0.444114
      25A     -0.430819    26A     -0.413373    27A     -0.387738
      28A     -0.371291    29A     -0.369664    30A     -0.364686
      31A     -0.357111    32A     -0.248518    33A     -0.243939
      34A     -0.241949

  @DF-RHF Final Energy:  -839.91985763602202

   => Energetics <=

    Nuclear Repulsion Energy =            298.0698693555991667
    One-Electron Energy =               -1766.1393942493523355
    Two-Electron Energy =                 628.1496672577311529
    Total Energy =                       -839.9198576360220159
 Dipole X            :         33.1133230          -32.9442853            0.1690377
 Dipole Y            :         70.5516703          -71.4415762           -0.8899059
 Dipole Z            :        -65.8805127           64.4028471           -1.4776656
 Magnitude           :                                                    1.7332056
  Basis Set: (AUG-CC-PVTZ AUX)
    Blend: AUG-CC-PVTZ-RI
	 Reference Energy          =    -839.9198576360220159 [Eh]
	 Singles Energy            =      -0.0000000000000000 [Eh]
	 Same-Spin Energy          =      -0.4160312981350007 [Eh]
	 Opposite-Spin Energy      =      -1.2733032718296105 [Eh]
	 Correlation Energy        =      -1.6893345699646112 [Eh]
	 Total Energy              =    -841.6091922059865738 [Eh]

	 ================> DF-SCS-MP2 Energies <==================
	-----------------------------------------------------------
	 SCS Same-Spin Scale       =       0.3333333333333333 [-]
	 SCS Opposite-Spin Scale   =       1.2000000000000000 [-]
	 SCS Same-Spin Energy      =      -0.1386770993783336 [Eh]
	 SCS Opposite-Spin Energy  =      -1.5279639261955325 [Eh]
	 SCS Correlation Energy    =      -1.6666410255738660 [Eh]
	 SCS Total Energy          =    -841.5864986615958969 [Eh]
	-----------------------------------------------------------

*** Psi4 exiting successfully. Buy a developer a beer!
