                               Psi4 1.8.2 release

  ==> Input File <==

--------------------------------------------------------------------------
MEMORY 60 GB

molecule dimer {
0 1
Gh(Cl)     0.000000     0.000000     0.000000
Gh(O)     -1.632332     2.490935     1.090048
Gh(H)     -2.053129     2.113159     1.904687
Gh(H)     -1.215364     1.757596     0.622949
Gh(O)      0.950607     2.374464    -2.175994
Gh(H)      0.927656     1.703640    -1.451191
Gh(H)      1.486632     2.014327    -2.868406
O          1.822289     1.832252     1.982226
H          1.341000     2.127700     2.740689
H          1.159400     1.352759     1.469391
Gh(O)      1.460341    -2.851653    -1.369342
Gh(H)      0.883151    -3.546723    -1.094304
Gh(H)      1.133759    -1.999688    -1.056883
Gh(O)     -0.794840    -0.536729    -3.305985
Gh(H)     -1.209369    -0.160838    -4.088131
Gh(H)     -0.723789     0.210704    -2.606868

units ang
no_reorient
no_com
symmetry c1
}

set {
basis        aug-cc-pVTZ
scf_type     df
}

energy("mp2")
--------------------------------------------------------------------------

    Molecular point group: c1

    Geometry (in Angstrom), charge = 0, multiplicity = 1:

       Center              X                  Y                   Z               Mass
    ------------   -----------------  -----------------  -----------------  -----------------
      Gh(CL)          0.000000000000     0.000000000000     0.000000000000    34.968852682000
      Gh(O)          -1.632332000000     2.490935000000     1.090048000000    15.994914619570
      Gh(H)          -2.053129000000     2.113159000000     1.904687000000     1.007825032230
      Gh(H)          -1.215364000000     1.757596000000     0.622949000000     1.007825032230
      Gh(O)           0.950607000000     2.374464000000    -2.175994000000    15.994914619570
      Gh(H)           0.927656000000     1.703640000000    -1.451191000000     1.007825032230
      Gh(H)           1.486632000000     2.014327000000    -2.868406000000     1.007825032230
         O            1.822289000000     1.832252000000     1.982226000000    15.994914619570
         H            1.341000000000     2.127700000000     2.740689000000     1.007825032230
         H            1.159400000000     1.352759000000     1.469391000000     1.007825032230
      Gh(O)           1.460341000000    -2.851653000000    -1.369342000000    15.994914619570
      Gh(H)           0.883151000000    -3.546723000000    -1.094304000000     1.007825032230
      Gh(H)           1.133759000000    -1.999688000000    -1.056883000000     1.007825032230
      Gh(O)          -0.794840000000    -0.536729000000    -3.305985000000    15.994914619570
      Gh(H)          -1.209369000000    -0.160838000000    -4.088131000000     1.007825032230
      Gh(H)          -0.723789000000     0.210704000000    -2.606868000000     1.007825032230

  Charge       = 0
  Multiplicity = 1
  Basis Set: AUG-CC-PVTZ
    Blend: AUG-CC-PVTZ
  Basis Set: (AUG-CC-PVTZ AUX)
    Blend: AUG-CC-PVTZ-JKFIT

    Orbital Energies [Eh]
    ---------------------

    Doubly Occupied:

       1A    -20.567315     2A     -1.355316     3A     -0.716541
       4A     -0.587360     5A     -0.510821

  @DF-RHF Final Energy:   -76.06045793328678

   => Energetics <=

    Nuclear Repulsion Energy =              9.2140323135452444
    One-Electron Energy =                -123.0742700621346586
    Two-Electron Energy =                  37.7997798153026210
    Total Energy =                        -76.0604579332867843
 Dipole X            :        -33.0337052           32.2740883           -0.7596169
 Dipole Y            :        -34.3974819           34.2767501           -0.1207318
 Dipole Z            :        -37.7567474           37.9228122            0.1660649
 Magnitude           :                                                    0.7868746
  Basis Set: (AUG-CC-PVTZ AUX)
    Blend: AUG-CC-PVTZ-RI
	 Reference Energy          =     -76.0604579332867843 [Eh]
	 Singles Energy            =      -0.0000000000000000 [Eh]
	 Same-Spin Energy          =      -0.0683818177413619 [Eh]
	 Opposite-Spin Energy      =      -0.2157735148627640 [Eh]
	 Correlation Energy        =      -0.2841553326041260 [Eh]
	 Total Energy              =     -76.3446132658909136 [Eh]

	 ================> DF-SCS-MP2 Energies <==================
	-----------------------------------------------------------
	 SCS Same-Spin Scale       =       0.3333333333333333 [-]
	 SCS Opposite-Spin Scale   =       1.2000000000000000 [-]
	 SCS Same-Spin Energy      =      -0.0227939392471206 [Eh]
	 SCS Opposite-Spin Energy  =      -0.2589282178353168 [Eh]
	 SCS Correlation Energy    =      -0.2817221570824375 [Eh]
	 SCS Total Energy          =     -76.3421800903692258 [Eh]
	-----------------------------------------------------------

*** Psi4 exiting successfully. Buy a developer a beer!
