                               Psi4 1.9 release

  ==> Input File <==

--------------------------------------------------------------------------
MEMORY 60 GB

molecule dimer {
-1 1
Cl     0.000000     0.000000     0.000000
--
0 1
O     -1.257237     2.633802     1.643676
H     -0.472322     3.199341     1.601593
H     -0.884215     1.758953     1.297836
O     -0.959567     0.169390    -3.287997
H     -0.989043     1.102120    -3.350897
H     -0.834577    -0.042888    -2.352496
O     -1.511354    -2.001931     2.031514
H     -1.523814    -2.958892     1.902628
H     -1.166046    -1.643150     1.181507
O      1.480813     2.833599    -1.290836
H      1.309795     1.891885    -1.090443
H      1.759092     2.761863    -2.211318
O     -3.275195    -0.122822    -0.472046
H     -2.339256    -0.062478    -0.530134
H     -3.682454     0.715169    -0.738294
O      1.065993    -3.039273    -1.176898
H      1.143900    -3.393441    -0.306845
H      0.193610    -2.655795    -1.030520

units ang
no_reorient
no_com
symmetry c1
}

set {
basis        aug-cc-pVTZ
scf_type     df
}

energy("mp2", bsse_type="cp")
--------------------------------------------------------------------------

                               Psi4 1.9 release
    Molecular point group: c1
  Charge       = 0
  Multiplicity = 1
  Basis Set: AUG-CC-PVTZ
    Blend: AUG-CC-PVTZ
  Basis Set: (AUG-CC-PVTZ AUX)
    Blend: AUG-CC-PVTZ-JKFIT
  @DF-RHF Final Energy:  -456.33857373649977
    Total Energy =                       -456.3385737364997681
 Dipole X            :         82.3751316          -81.5184500            0.8566816
 Dipole Y            :         -8.5205211            8.4183652           -0.1021559
 Dipole Z            :         48.8719511          -49.2237354           -0.3517844
 Magnitude           :                                                    0.9317142
  Basis Set: (AUG-CC-PVTZ AUX)
    Blend: AUG-CC-PVTZ-RI
	 Reference Energy          =    -456.3385737364997681 [Eh]
	 Singles Energy            =      -0.0000000000000000 [Eh]
	 Same-Spin Energy          =      -0.4132936915200982 [Eh]
	 Opposite-Spin Energy      =      -1.3003830282559372 [Eh]
	 Correlation Energy        =      -1.7136767197760354 [Eh]
	 Total Energy              =    -458.0522504562758286 [Eh]
	 SCS Total Energy          =    -458.0367979342469198 [Eh]
                               Psi4 1.9 release
    Molecular point group: c1
  Multiplicity = 1
  Basis Set: AUG-CC-PVTZ
    Blend: AUG-CC-PVTZ
  Basis Set: (AUG-CC-PVTZ AUX)
    Blend: AUG-CC-PVTZ-JKFIT
  @DF-RHF Final Energy:  -459.57358381116666
    Total Energy =                       -459.5735838111666567
  Basis Set: (AUG-CC-PVTZ AUX)
	 Singles Energy            =      -0.0000000000000000 [Eh]
	 Same-Spin Energy          =      -0.0635463092636123 [Eh]
	 Opposite-Spin Energy      =      -0.1837640384560983 [Eh]
	 Correlation Energy        =      -0.2473103477197106 [Eh]
	 Total Energy              =    -459.8208941588863468 [Eh]
	 SCS Total Energy          =    -459.8152827604018285 [Eh]
                               Psi4 1.9 release
    Molecular point group: c1

    Geometry (in Bohr), charge = -1, multiplicity = 1:

       Center              X                  Y                   Z               Mass
    ------------   -----------------  -----------------  -----------------  -----------------
         CL           0.000000000000     0.000000000000     0.000000000000    34.968852682000
         O           -2.375833604792     4.977164448683     3.106097478988    15.994914619570
         H           -0.892559223028     6.045878271948     3.026572134450     1.007825032230
         H           -1.670924186022     3.323939437552     2.452554595760     1.007825032230
         O           -1.813318829027     0.320100708391    -6.213413831327    15.994914619570
         H           -1.869020396301     2.082704957390    -6.332277604618     1.007825032230
         H           -1.577121960606    -0.081046574069    -4.445573151235     1.007825032230
         O           -2.856045138615    -3.783101312064     3.839005080033    15.994914619570
         H           -2.879591126138    -5.591495514808     3.595445838628     1.007825032230
         H           -2.203507589686    -3.105103483046     2.232724645311     1.007825032230
         O            2.798331013018     5.354726059371    -2.439326512881    15.994914619570
         H            2.475153830494     3.575144510862    -2.060638625423     1.007825032230
         H            3.324202109484     5.219164666035    -4.178785396295     1.007825032230
         O           -6.189221557469    -0.232099942181    -0.892037658618    15.994914619570
         H           -4.420553177334    -0.118066308866    -1.001808069793     1.007825032230
         H           -6.958829529597     1.351473543418    -1.395173460069     1.007825032230
         O            2.014434821655    -5.743393590499    -2.224014897599    15.994914619570
         H            2.161657714911    -6.412674112900    -0.579853012966     1.007825032230
         H            0.365869875150    -5.018725195360    -1.947400566807     1.007825032230

  Charge       = -1
  Multiplicity = 1
  Basis Set: AUG-CC-PVTZ
    Blend: AUG-CC-PVTZ
  Basis Set: (AUG-CC-PVTZ AUX)
    Blend: AUG-CC-PVTZ-JKFIT

    Orbital Energies [Eh]
    ---------------------

    Doubly Occupied:

       1A   -104.599209     2A    -20.445878     3A    -20.444005
       4A    -20.429653     5A    -20.426803     6A    -20.417576
       7A    -20.416918     8A    -10.324319     9A     -7.790451
      10A     -7.790387    11A     -7.790353    12A     -1.239821
      13A     -1.224366    14A     -1.222545    15A     -1.206792
      16A     -1.203778    17A     -1.187138    18A     -0.842547
      19A     -0.594523    20A     -0.586893    21A     -0.577159
      22A     -0.576268    23A     -0.567621    24A     -0.542237
      25A     -0.484043    26A     -0.468784    27A     -0.453023
      28A     -0.442989    29A     -0.437090    30A     -0.432880
      31A     -0.391227    32A     -0.386234    33A     -0.379176
      34A     -0.369099    35A     -0.362930    36A     -0.356632
      37A     -0.256999    38A     -0.253165    39A     -0.250802

  @DF-RHF Final Energy:  -915.98892194193627

   => Energetics <=

    Nuclear Repulsion Energy =            389.8456005564345332
    One-Electron Energy =               -2055.3244062898324955
    Two-Electron Energy =                 749.4898837914618070
    Total Energy =                       -915.9889219419362689
 Dipole X            :         82.9440145          -81.5184500            1.4255645
 Dipole Y            :         -8.6534351            8.4183652           -0.2350699
 Dipole Z            :         49.0915773          -49.2237354           -0.1321581
 Magnitude           :                                                    1.4508472
  Basis Set: (AUG-CC-PVTZ AUX)
    Blend: AUG-CC-PVTZ-RI
	 Reference Energy          =    -915.9889219419362689 [Eh]
	 Singles Energy            =      -0.0000000000000000 [Eh]
	 Same-Spin Energy          =      -0.4857411296417402 [Eh]
	 Opposite-Spin Energy      =      -1.4900742160428631 [Eh]
	 Correlation Energy        =      -1.9758153456846033 [Eh]
	 Total Energy              =    -917.9647372876208919 [Eh]

	 ================> DF-SCS-MP2 Energies <==================
	-----------------------------------------------------------
	 SCS Same-Spin Scale       =       0.3333333333333333 [-]
	 SCS Opposite-Spin Scale   =       1.2000000000000000 [-]
	 SCS Same-Spin Energy      =      -0.1619137098805801 [Eh]
	 SCS Opposite-Spin Energy  =      -1.7880890592514356 [Eh]
	 SCS Correlation Energy    =      -1.9500027691320156 [Eh]
	 SCS Total Energy          =    -917.9389247110682390 [Eh]
	-----------------------------------------------------------

*** Psi4 exiting successfully. Buy a developer a beer!
