                               Psi4 1.8.2 release

  ==> Input File <==

--------------------------------------------------------------------------
MEMORY 60 GB

molecule dimer {
0 1
Gh(Cl)     0.000000     0.000000     0.000000
O          2.151842     1.930427    -1.340171
H          1.350694     1.443964    -1.092752
H          2.600730     2.059208    -0.557280
Gh(O)     -0.845603    -1.954378    -2.400622
Gh(H)     -0.576408    -1.381923    -1.685351
Gh(H)     -0.891883    -2.856008    -2.074388
Gh(O)     -2.695475     1.706640    -1.327933
Gh(H)     -1.902725     1.294081    -0.924358
Gh(H)     -2.569155     2.694294    -1.426749
Gh(O)     -2.474764    -2.030755     0.960515
Gh(H)     -3.239782    -1.595363     0.512300
Gh(H)     -1.802427    -1.355761     0.798361
Gh(O)     -1.355417     2.160929     1.846580
Gh(H)     -0.713707     2.483561     2.470183
Gh(H)     -1.000521     1.322098     1.546916

units ang
no_reorient
no_com
symmetry c1
}

set {
basis        aug-cc-pVTZ
scf_type     df
}

energy("mp2")
--------------------------------------------------------------------------

    Molecular point group: c1

    Geometry (in Angstrom), charge = 0, multiplicity = 1:

       Center              X                  Y                   Z               Mass
    ------------   -----------------  -----------------  -----------------  -----------------
      Gh(CL)          0.000000000000     0.000000000000     0.000000000000    34.968852682000
         O            2.151842000000     1.930427000000    -1.340171000000    15.994914619570
         H            1.350694000000     1.443964000000    -1.092752000000     1.007825032230
         H            2.600730000000     2.059208000000    -0.557280000000     1.007825032230
      Gh(O)          -0.845603000000    -1.954378000000    -2.400622000000    15.994914619570
      Gh(H)          -0.576408000000    -1.381923000000    -1.685351000000     1.007825032230
      Gh(H)          -0.891883000000    -2.856008000000    -2.074388000000     1.007825032230
      Gh(O)          -2.695475000000     1.706640000000    -1.327933000000    15.994914619570
      Gh(H)          -1.902725000000     1.294081000000    -0.924358000000     1.007825032230
      Gh(H)          -2.569155000000     2.694294000000    -1.426749000000     1.007825032230
      Gh(O)          -2.474764000000    -2.030755000000     0.960515000000    15.994914619570
      Gh(H)          -3.239782000000    -1.595363000000     0.512300000000     1.007825032230
      Gh(H)          -1.802427000000    -1.355761000000     0.798361000000     1.007825032230
      Gh(O)          -1.355417000000     2.160929000000     1.846580000000    15.994914619570
      Gh(H)          -0.713707000000     2.483561000000     2.470183000000     1.007825032230
      Gh(H)          -1.000521000000     1.322098000000     1.546916000000     1.007825032230

  Charge       = 0
  Multiplicity = 1
  Basis Set: AUG-CC-PVTZ
    Blend: AUG-CC-PVTZ
  Basis Set: (AUG-CC-PVTZ AUX)
    Blend: AUG-CC-PVTZ-JKFIT

    Orbital Energies [Eh]
    ---------------------

    Doubly Occupied:

       1A    -20.563753     2A     -1.362919     3A     -0.728308
       4A     -0.586902     5A     -0.511711

  @DF-RHF Final Energy:   -76.05931547999921

   => Energetics <=

    Nuclear Repulsion Energy =              9.3656408692545448
    One-Electron Energy =                -123.3427257832657915
    Two-Electron Energy =                  37.9177694340120297
    Total Energy =                        -76.0593154799992135
 Dipole X            :        -40.2275495           39.9982455           -0.2293040
 Dipole Y            :        -36.0409533           35.8038623           -0.2370909
 Dipole Z            :         24.0764594          -23.3785578            0.6979016
 Magnitude           :                                                    0.7719191
  Basis Set: (AUG-CC-PVTZ AUX)
    Blend: AUG-CC-PVTZ-RI
	 Reference Energy          =     -76.0593154799992135 [Eh]
	 Singles Energy            =      -0.0000000000000000 [Eh]
	 Same-Spin Energy          =      -0.0680729822415602 [Eh]
	 Opposite-Spin Energy      =      -0.2148795312262969 [Eh]
	 Correlation Energy        =      -0.2829525134678572 [Eh]
	 Total Energy              =     -76.3422679934670754 [Eh]

	 ================> DF-SCS-MP2 Energies <==================
	-----------------------------------------------------------
	 SCS Same-Spin Scale       =       0.3333333333333333 [-]
	 SCS Opposite-Spin Scale   =       1.2000000000000000 [-]
	 SCS Same-Spin Energy      =      -0.0226909940805201 [Eh]
	 SCS Opposite-Spin Energy  =      -0.2578554374715563 [Eh]
	 SCS Correlation Energy    =      -0.2805464315520763 [Eh]
	 SCS Total Energy          =     -76.3398619115512957 [Eh]
	-----------------------------------------------------------

*** Psi4 exiting successfully. Buy a developer a beer!
