                               Psi4 1.8.2 release

  ==> Input File <==

--------------------------------------------------------------------------
MEMORY 60 GB

molecule dimer {
0 1
Gh(Cl)     0.000000     0.000000     0.000000
Gh(O)      3.015981     0.151241    -1.457305
Gh(H)      2.845971    -0.567435    -2.049500
Gh(H)      2.230828     0.149298    -0.843213
Gh(O)     -2.797673    -0.644207    -1.757639
Gh(H)     -2.491546    -1.380346    -2.302014
Gh(H)     -2.015250    -0.495737    -1.259297
Gh(O)     -0.715759     3.330850    -0.769336
Gh(H)      0.052831     3.505661    -0.203645
Gh(H)     -0.556393     2.470762    -1.223557
O          0.652205     0.435816    -3.215109
H          1.085218     1.200515    -2.995505
H          0.387193     0.144769    -2.312401
Gh(O)      1.503331     1.130459     2.879779
Gh(H)      1.109970     0.660961     2.083685
Gh(H)      1.604155     0.401707     3.533176
Gh(O)      0.517922    -3.056007    -0.636675
Gh(H)     -0.210470    -3.438063    -1.173663
Gh(H)      0.434987    -2.108656    -0.643081

units ang
no_reorient
no_com
symmetry c1
}

set {
basis        aug-cc-pVTZ
scf_type     df
}

energy("mp2")
--------------------------------------------------------------------------

    Molecular point group: c1

    Geometry (in Angstrom), charge = 0, multiplicity = 1:

       Center              X                  Y                   Z               Mass
    ------------   -----------------  -----------------  -----------------  -----------------
      Gh(CL)          0.000000000000     0.000000000000     0.000000000000    34.968852682000
      Gh(O)           3.015981000000     0.151241000000    -1.457305000000    15.994914619570
      Gh(H)           2.845971000000    -0.567435000000    -2.049500000000     1.007825032230
      Gh(H)           2.230828000000     0.149298000000    -0.843213000000     1.007825032230
      Gh(O)          -2.797673000000    -0.644207000000    -1.757639000000    15.994914619570
      Gh(H)          -2.491546000000    -1.380346000000    -2.302014000000     1.007825032230
      Gh(H)          -2.015250000000    -0.495737000000    -1.259297000000     1.007825032230
      Gh(O)          -0.715759000000     3.330850000000    -0.769336000000    15.994914619570
      Gh(H)           0.052831000000     3.505661000000    -0.203645000000     1.007825032230
      Gh(H)          -0.556393000000     2.470762000000    -1.223557000000     1.007825032230
         O            0.652205000000     0.435816000000    -3.215109000000    15.994914619570
         H            1.085218000000     1.200515000000    -2.995505000000     1.007825032230
         H            0.387193000000     0.144769000000    -2.312401000000     1.007825032230
      Gh(O)           1.503331000000     1.130459000000     2.879779000000    15.994914619570
      Gh(H)           1.109970000000     0.660961000000     2.083685000000     1.007825032230
      Gh(H)           1.604155000000     0.401707000000     3.533176000000     1.007825032230
      Gh(O)           0.517922000000    -3.056007000000    -0.636675000000    15.994914619570
      Gh(H)          -0.210470000000    -3.438063000000    -1.173663000000     1.007825032230
      Gh(H)           0.434987000000    -2.108656000000    -0.643081000000     1.007825032230

  Charge       = 0
  Multiplicity = 1
  Basis Set: AUG-CC-PVTZ
    Blend: AUG-CC-PVTZ
  Basis Set: (AUG-CC-PVTZ AUX)
    Blend: AUG-CC-PVTZ-JKFIT

    Orbital Energies [Eh]
    ---------------------

    Doubly Occupied:

       1A    -20.566862     2A     -1.365594     3A     -0.713513
       4A     -0.597519     5A     -0.513027

  @DF-RHF Final Energy:   -76.05647016641966

   => Energetics <=

    Nuclear Repulsion Energy =              9.3403491786796948
    One-Electron Energy =                -123.2806042435594236
    Two-Electron Energy =                  37.8837848984600640
    Total Energy =                        -76.0564701664196576
 Dipole X            :        -12.5238459           12.6423642            0.1185183
 Dipole Y            :         -8.8065373            9.1308014            0.3242641
 Dipole Z            :         59.3694944          -58.6358924            0.7336019
 Magnitude           :                                                    0.8107808
  Basis Set: (AUG-CC-PVTZ AUX)
    Blend: AUG-CC-PVTZ-RI
	 Reference Energy          =     -76.0564701664196576 [Eh]
	 Singles Energy            =      -0.0000000000000000 [Eh]
	 Same-Spin Energy          =      -0.0683299610874435 [Eh]
	 Opposite-Spin Energy      =      -0.2158921360828771 [Eh]
	 Correlation Energy        =      -0.2842220971703207 [Eh]
	 Total Energy              =     -76.3406922635899718 [Eh]

	 ================> DF-SCS-MP2 Energies <==================
	-----------------------------------------------------------
	 SCS Same-Spin Scale       =       0.3333333333333333 [-]
	 SCS Opposite-Spin Scale   =       1.2000000000000000 [-]
	 SCS Same-Spin Energy      =      -0.0227766536958145 [Eh]
	 SCS Opposite-Spin Energy  =      -0.2590705632994525 [Eh]
	 SCS Correlation Energy    =      -0.2818472169952670 [Eh]
	 SCS Total Energy          =     -76.3383173834149318 [Eh]
	-----------------------------------------------------------

*** Psi4 exiting successfully. Buy a developer a beer!
