                               Psi4 1.8.2 release

  ==> Input File <==

--------------------------------------------------------------------------
MEMORY 60 GB

molecule dimer {
-1 1
Cl         0.000000     0.000000     0.000000
O          1.572535     2.984313     0.080535
H          2.483152     2.774963     0.044021
H          1.091164     2.083829     0.086158
O         -2.519770     0.473353     1.764939
H         -1.730664     0.352182     1.242951
H         -2.351355     1.328225     2.177357
O          1.097544    -1.383699     2.955254
H          0.572761    -1.058492     3.732723
H          0.582499    -1.021529     2.224847
O         -2.152007     2.124199    -0.978722
H         -1.802804     1.460648    -0.427201
H         -1.664805     1.959459    -1.761428
O          2.011060     0.105217    -2.783367
H          1.274497     0.182662    -2.166724
H          2.754003    -0.550445    -2.510663

units ang
no_reorient
no_com
symmetry c1
}

set {
basis        aug-cc-pVTZ
scf_type     df
}

energy("mp2")
--------------------------------------------------------------------------

    Molecular point group: c1

    Geometry (in Angstrom), charge = -1, multiplicity = 1:

       Center              X                  Y                   Z               Mass
    ------------   -----------------  -----------------  -----------------  -----------------
         CL           0.000000000000     0.000000000000     0.000000000000    34.968852682000
         O            1.572535000000     2.984313000000     0.080535000000    15.994914619570
         H            2.483152000000     2.774963000000     0.044021000000     1.007825032230
         H            1.091164000000     2.083829000000     0.086158000000     1.007825032230
         O           -2.519770000000     0.473353000000     1.764939000000    15.994914619570
         H           -1.730664000000     0.352182000000     1.242951000000     1.007825032230
         H           -2.351355000000     1.328225000000     2.177357000000     1.007825032230
         O            1.097544000000    -1.383699000000     2.955254000000    15.994914619570
         H            0.572761000000    -1.058492000000     3.732723000000     1.007825032230
         H            0.582499000000    -1.021529000000     2.224847000000     1.007825032230
         O           -2.152007000000     2.124199000000    -0.978722000000    15.994914619570
         H           -1.802804000000     1.460648000000    -0.427201000000     1.007825032230
         H           -1.664805000000     1.959459000000    -1.761428000000     1.007825032230
         O            2.011060000000     0.105217000000    -2.783367000000    15.994914619570
         H            1.274497000000     0.182662000000    -2.166724000000     1.007825032230
         H            2.754003000000    -0.550445000000    -2.510663000000     1.007825032230

  Charge       = -1
  Multiplicity = 1
  Basis Set: AUG-CC-PVTZ
    Blend: AUG-CC-PVTZ
  Basis Set: (AUG-CC-PVTZ AUX)
    Blend: AUG-CC-PVTZ-JKFIT

    Orbital Energies [Eh]
    ---------------------

    Doubly Occupied:

       1A   -104.600036     2A    -20.436943     3A    -20.435460
       4A    -20.419241     5A    -20.418362     6A    -20.406748
       7A    -10.325468     8A     -7.791595     9A     -7.791528
      10A     -7.791498    11A     -1.215972    12A     -1.211737
      13A     -1.209034    14A     -1.197782    15A     -1.197294
      16A     -0.845397    17A     -0.586489    18A     -0.574785
      19A     -0.566484    20A     -0.563727    21A     -0.561940
      22A     -0.457703    23A     -0.452144    24A     -0.447689
      25A     -0.436633    26A     -0.429289    27A     -0.377093
      28A     -0.374386    29A     -0.367155    30A     -0.362207
      31A     -0.359124    32A     -0.258267    33A     -0.254435
      34A     -0.252931

  @DF-RHF Final Energy:  -839.92304493014262

   => Energetics <=

    Nuclear Repulsion Energy =            300.6042716847347265
    One-Electron Energy =               -1771.1014737360414983
    Two-Electron Energy =                 630.5741571211642622
    Total Energy =                       -839.9230449301426233
 Dipole X            :         -1.5995191            2.4251687            0.8256495
 Dipole Y            :        -80.4784550           79.2524038           -1.2260511
 Dipole Z            :        -20.5008877           20.6946799            0.1937922
 Magnitude           :                                                    1.4907897
  Basis Set: (AUG-CC-PVTZ AUX)
    Blend: AUG-CC-PVTZ-RI
	 Reference Energy          =    -839.9230449301426233 [Eh]
	 Singles Energy            =      -0.0000000000000000 [Eh]
	 Same-Spin Energy          =      -0.4164986138831898 [Eh]
	 Opposite-Spin Energy      =      -1.2737276882141688 [Eh]
	 Correlation Energy        =      -1.6902263020973587 [Eh]
	 Total Energy              =    -841.6132712322399811 [Eh]

	 ================> DF-SCS-MP2 Energies <==================
	-----------------------------------------------------------
	 SCS Same-Spin Scale       =       0.3333333333333333 [-]
	 SCS Opposite-Spin Scale   =       1.2000000000000000 [-]
	 SCS Same-Spin Energy      =      -0.1388328712943966 [Eh]
	 SCS Opposite-Spin Energy  =      -1.5284732258570026 [Eh]
	 SCS Correlation Energy    =      -1.6673060971513993 [Eh]
	 SCS Total Energy          =    -841.5903510272939911 [Eh]
	-----------------------------------------------------------

*** Psi4 exiting successfully. Buy a developer a beer!
