                               Psi4 1.8.2 release

  ==> Input File <==

--------------------------------------------------------------------------
MEMORY 60 GB

molecule dimer {
0 1
Gh(Cl)     0.000000     0.000000     0.000000
Gh(O)      0.309276     2.230580     2.384255
Gh(H)      0.172358     1.780632     1.568707
Gh(H)      0.070820     1.580932     3.070981
Gh(O)     -3.106756    -1.201459     0.184859
Gh(H)     -3.615730    -1.153433    -0.609588
Gh(H)     -2.337299    -0.547263     0.106862
Gh(O)      2.375058     0.829933    -1.953883
Gh(H)      2.611264     1.792549    -2.051113
Gh(H)      1.790705     0.628269    -1.215983
O         -0.849852     2.660511    -1.102632
H         -0.932491     2.833868    -2.029998
H         -0.711092     1.689129    -1.111696

units ang
no_reorient
no_com
symmetry c1
}

set {
basis        aug-cc-pVTZ
scf_type     df
}

energy("mp2")
--------------------------------------------------------------------------

    Molecular point group: c1

    Geometry (in Angstrom), charge = 0, multiplicity = 1:

       Center              X                  Y                   Z               Mass
    ------------   -----------------  -----------------  -----------------  -----------------
      Gh(CL)          0.000000000000     0.000000000000     0.000000000000    34.968852682000
      Gh(O)           0.309276000000     2.230580000000     2.384255000000    15.994914619570
      Gh(H)           0.172358000000     1.780632000000     1.568707000000     1.007825032230
      Gh(H)           0.070820000000     1.580932000000     3.070981000000     1.007825032230
      Gh(O)          -3.106756000000    -1.201459000000     0.184859000000    15.994914619570
      Gh(H)          -3.615730000000    -1.153433000000    -0.609588000000     1.007825032230
      Gh(H)          -2.337299000000    -0.547263000000     0.106862000000     1.007825032230
      Gh(O)           2.375058000000     0.829933000000    -1.953883000000    15.994914619570
      Gh(H)           2.611264000000     1.792549000000    -2.051113000000     1.007825032230
      Gh(H)           1.790705000000     0.628269000000    -1.215983000000     1.007825032230
         O           -0.849852000000     2.660511000000    -1.102632000000    15.994914619570
         H           -0.932491000000     2.833868000000    -2.029998000000     1.007825032230
         H           -0.711092000000     1.689129000000    -1.111696000000     1.007825032230

  Charge       = 0
  Multiplicity = 1
  Basis Set: AUG-CC-PVTZ
    Blend: AUG-CC-PVTZ
  Basis Set: (AUG-CC-PVTZ AUX)
    Blend: AUG-CC-PVTZ-JKFIT

    Orbital Energies [Eh]
    ---------------------

    Doubly Occupied:

       1A    -20.569947     2A     -1.353088     3A     -0.706487
       4A     -0.591064     5A     -0.510927

  @DF-RHF Final Energy:   -76.05896715897408

   => Energetics <=

    Nuclear Repulsion Energy =              9.1408547073762954
    One-Electron Energy =                -122.9366141846902849
    Two-Electron Energy =                  37.7367923183399014
    Total Energy =                        -76.0589671589740988
 Dipole X            :         15.9893890          -15.9538220            0.0355670
 Dipole Y            :        -49.2865733           48.7683227           -0.5182506
 Dipole Z            :         21.9884937          -22.6063212           -0.6178275
 Magnitude           :                                                    0.8071924
  Basis Set: (AUG-CC-PVTZ AUX)
    Blend: AUG-CC-PVTZ-RI
	 Reference Energy          =     -76.0589671589740846 [Eh]
	 Singles Energy            =      -0.0000000000000000 [Eh]
	 Same-Spin Energy          =      -0.0685993805158692 [Eh]
	 Opposite-Spin Energy      =      -0.2163013554736131 [Eh]
	 Correlation Energy        =      -0.2849007359894822 [Eh]
	 Total Energy              =     -76.3438678949635658 [Eh]

	 ================> DF-SCS-MP2 Energies <==================
	-----------------------------------------------------------
	 SCS Same-Spin Scale       =       0.3333333333333333 [-]
	 SCS Opposite-Spin Scale   =       1.2000000000000000 [-]
	 SCS Same-Spin Energy      =      -0.0228664601719564 [Eh]
	 SCS Opposite-Spin Energy  =      -0.2595616265683356 [Eh]
	 SCS Correlation Energy    =      -0.2824280867402920 [Eh]
	 SCS Total Energy          =     -76.3413952457143807 [Eh]
	-----------------------------------------------------------

*** Psi4 exiting successfully. Buy a developer a beer!
