                               Psi4 1.8.2 release

  ==> Input File <==

--------------------------------------------------------------------------
MEMORY 60 GB

molecule dimer {
-1 1
Cl         0.000000     0.000000     0.000000
O          1.897040     2.508472     0.302538
H          1.357854     1.760957     0.096876
H          1.821429     3.097428    -0.472561
O          1.468839    -2.859802     0.731682
H          0.736236    -2.305230     0.469404
H          1.608881    -2.605813     1.655215
O         -0.432860     1.202269     3.088280
H         -0.095501     0.925593     2.231419
H         -0.432197     2.174121     3.067087
O         -2.583472    -1.827415     0.818109
H         -3.021839    -1.220259     0.255210
H         -1.746720    -1.415553     1.142264
O         -2.492733     2.189682    -0.627088
H         -2.444094     2.136340    -1.579013
H         -2.056599     1.404262    -0.404676

units ang
no_reorient
no_com
symmetry c1
}

set {
basis        aug-cc-pVTZ
scf_type     df
}

energy("mp2")
--------------------------------------------------------------------------

    Molecular point group: c1

    Geometry (in Angstrom), charge = -1, multiplicity = 1:

       Center              X                  Y                   Z               Mass
    ------------   -----------------  -----------------  -----------------  -----------------
         CL           0.000000000000     0.000000000000     0.000000000000    34.968852682000
         O            1.897040000000     2.508472000000     0.302538000000    15.994914619570
         H            1.357854000000     1.760957000000     0.096876000000     1.007825032230
         H            1.821429000000     3.097428000000    -0.472561000000     1.007825032230
         O            1.468839000000    -2.859802000000     0.731682000000    15.994914619570
         H            0.736236000000    -2.305230000000     0.469404000000     1.007825032230
         H            1.608881000000    -2.605813000000     1.655215000000     1.007825032230
         O           -0.432860000000     1.202269000000     3.088280000000    15.994914619570
         H           -0.095501000000     0.925593000000     2.231419000000     1.007825032230
         H           -0.432197000000     2.174121000000     3.067087000000     1.007825032230
         O           -2.583472000000    -1.827415000000     0.818109000000    15.994914619570
         H           -3.021839000000    -1.220259000000     0.255210000000     1.007825032230
         H           -1.746720000000    -1.415553000000     1.142264000000     1.007825032230
         O           -2.492733000000     2.189682000000    -0.627088000000    15.994914619570
         H           -2.444094000000     2.136340000000    -1.579013000000     1.007825032230
         H           -2.056599000000     1.404262000000    -0.404676000000     1.007825032230

  Charge       = -1
  Multiplicity = 1
  Basis Set: AUG-CC-PVTZ
    Blend: AUG-CC-PVTZ
  Basis Set: (AUG-CC-PVTZ AUX)
    Blend: AUG-CC-PVTZ-JKFIT

    Orbital Energies [Eh]
    ---------------------

    Doubly Occupied:

       1A   -104.589727     2A    -20.433779     3A    -20.419460
       4A    -20.419003     5A    -20.418309     6A    -20.417944
       7A    -10.315041     8A     -7.781159     9A     -7.781112
      10A     -7.781089    11A     -1.235870    12A     -1.205711
      13A     -1.205608    14A     -1.204491    15A     -1.200420
      16A     -0.833667    17A     -0.587691    18A     -0.580687
      19A     -0.573199    20A     -0.568165    21A     -0.565620
      22A     -0.470863    23A     -0.445567    24A     -0.441950
      25A     -0.437809    26A     -0.435939    27A     -0.384187
      28A     -0.366657    29A     -0.365095    30A     -0.364733
      31A     -0.362627    32A     -0.246435    33A     -0.244547
      34A     -0.243261

  @DF-RHF Final Energy:  -839.93431202643421

   => Energetics <=

    Nuclear Repulsion Energy =            300.7381755591455317
    One-Electron Energy =               -1771.4901218006045838
    Two-Electron Energy =                 630.8176342150248956
    Total Energy =                       -839.9343120264342133
 Dipole X            :         40.6491739          -40.4742260            0.1749479
 Dipole Y            :        -24.9951563           25.8089232            0.8137669
 Dipole Z            :        -79.2296754           77.4209323           -1.8087431
 Magnitude           :                                                    1.9910738
  Basis Set: (AUG-CC-PVTZ AUX)
    Blend: AUG-CC-PVTZ-RI
	 Reference Energy          =    -839.9343120264342133 [Eh]
	 Singles Energy            =      -0.0000000000000000 [Eh]
	 Same-Spin Energy          =      -0.4143401606299312 [Eh]
	 Opposite-Spin Energy      =      -1.2688787061278952 [Eh]
	 Correlation Energy        =      -1.6832188667578265 [Eh]
	 Total Energy              =    -841.6175308931919972 [Eh]

	 ================> DF-SCS-MP2 Energies <==================
	-----------------------------------------------------------
	 SCS Same-Spin Scale       =       0.3333333333333333 [-]
	 SCS Opposite-Spin Scale   =       1.2000000000000000 [-]
	 SCS Same-Spin Energy      =      -0.1381133868766437 [Eh]
	 SCS Opposite-Spin Energy  =      -1.5226544473534742 [Eh]
	 SCS Correlation Energy    =      -1.6607678342301180 [Eh]
	 SCS Total Energy          =    -841.5950798606643275 [Eh]
	-----------------------------------------------------------

*** Psi4 exiting successfully. Buy a developer a beer!
