                               Psi4 1.9 release

  ==> Input File <==

--------------------------------------------------------------------------
MEMORY 60 GB

molecule dimer {
-1 1
Cl     0.000000     0.000000     0.000000
--
0 1
O     -1.646482     1.636033    -2.118452
H     -1.306755     2.527241    -2.068860
H     -1.347572     1.202892    -1.318347
O      0.358450    -3.254429     0.454156
H      0.170382    -2.323902     0.612073
H     -0.522232    -3.667292     0.173894
O     -1.946055    -0.590932     2.381757
H     -1.388639    -0.387392     1.592721
H     -2.499547     0.181910     2.276099
O      2.703315     1.660936     0.446614
H      1.911369     1.537530    -0.062756
H      3.335061     2.181112     0.003027

units ang
no_reorient
no_com
symmetry c1
}

set {
basis        aug-cc-pVTZ
scf_type     df
}

energy("mp2", bsse_type="cp")
--------------------------------------------------------------------------

                               Psi4 1.9 release
    Molecular point group: c1
  Charge       = 0
  Multiplicity = 1
  Basis Set: AUG-CC-PVTZ
    Blend: AUG-CC-PVTZ
  Basis Set: (AUG-CC-PVTZ AUX)
    Blend: AUG-CC-PVTZ-JKFIT
  @DF-RHF Final Energy:  -304.22753011097808
    Total Energy =                       -304.2275301109780798
 Dipole X            :         10.7490306          -11.1382518           -0.3892211
 Dipole Y            :          7.4727852           -5.9243613            1.5484239
 Dipole Z            :        -20.5916609           19.8807711           -0.7108898
 Magnitude           :                                                    1.7477053
  Basis Set: (AUG-CC-PVTZ AUX)
    Blend: AUG-CC-PVTZ-RI
	 Reference Energy          =    -304.2275301109780798 [Eh]
	 Singles Energy            =      -0.0000000000000000 [Eh]
	 Same-Spin Energy          =      -0.2745865771895075 [Eh]
	 Opposite-Spin Energy      =      -0.8651316702319587 [Eh]
	 Correlation Energy        =      -1.1397182474214662 [Eh]
	 Total Energy              =    -305.3672483583995358 [Eh]
	 SCS Total Energy          =    -305.3572169743196127 [Eh]
                               Psi4 1.9 release
    Molecular point group: c1
  Multiplicity = 1
  Basis Set: AUG-CC-PVTZ
    Blend: AUG-CC-PVTZ
  Basis Set: (AUG-CC-PVTZ AUX)
    Blend: AUG-CC-PVTZ-JKFIT
  @DF-RHF Final Energy:  -459.57356100943480
    Total Energy =                       -459.5735610094347976
  Basis Set: (AUG-CC-PVTZ AUX)
	 Singles Energy            =      -0.0000000000000000 [Eh]
	 Same-Spin Energy          =      -0.0633448502015918 [Eh]
	 Opposite-Spin Energy      =      -0.1831639739887004 [Eh]
	 Correlation Energy        =      -0.2465088241902922 [Eh]
	 Total Energy              =    -459.8200698336250980 [Eh]
	 SCS Total Energy          =    -459.8144727282884219 [Eh]
                               Psi4 1.9 release
    Molecular point group: c1

    Geometry (in Bohr), charge = -1, multiplicity = 1:

       Center              X                  Y                   Z               Mass
    ------------   -----------------  -----------------  -----------------  -----------------
         CL           0.000000000000     0.000000000000     0.000000000000    34.968852682000
         O           -3.111400050496     3.091654302211    -4.003294089928    15.994914619570
         H           -2.469409063073     4.775793343028    -3.909578791915     1.007825032230
         H           -2.546542014335     2.273136438504    -2.491314768319     1.007825032230
         O            0.677372329670    -6.149979504748     0.858230458233    15.994914619570
         H            0.321975316708    -4.391538322404     1.156650338787     1.007825032230
         H           -0.986875453950    -6.930177502082     0.328612034860     1.007825032230
         O           -3.677510975078    -1.116699638769     4.500868427392    15.994914619570
         H           -2.624147397130    -0.732064783193     3.009806484265     1.007825032230
         H           -4.723459267710     0.343760079482     4.301203744428     1.007825032230
         O            5.108524980842     3.138714151913     0.843978143795    15.994914619570
         H            3.611963934690     2.905510609675    -0.118591652729     1.007825032230
         H            6.302351901696     4.121704328950     0.005720200982     1.007825032230

  Charge       = -1
  Multiplicity = 1
  Basis Set: AUG-CC-PVTZ
    Blend: AUG-CC-PVTZ
  Basis Set: (AUG-CC-PVTZ AUX)
    Blend: AUG-CC-PVTZ-JKFIT

    Orbital Energies [Eh]
    ---------------------

    Doubly Occupied:

       1A   -104.574742     2A    -20.417242     3A    -20.412735
       4A    -20.411685     5A    -20.405671     6A    -10.300202
       7A     -7.766332     8A     -7.766279     9A     -7.766197
      10A     -1.214986    11A     -1.202195    12A     -1.191577
      13A     -1.181386    14A     -0.819861    15A     -0.599873
      16A     -0.570400    17A     -0.548288    18A     -0.529155
      19A     -0.446172    20A     -0.437128    21A     -0.431490
      22A     -0.424061    23A     -0.367829    24A     -0.360249
      25A     -0.352229    26A     -0.350281    27A     -0.233574
      28A     -0.230273    29A     -0.225939

  @DF-RHF Final Energy:  -763.85457119599300

   => Energetics <=

    Nuclear Repulsion Energy =            215.9481525126369377
    One-Electron Energy =               -1496.5293783253180209
    Two-Electron Energy =                 516.7266546166881653
    Total Energy =                       -763.8545711959930031
 Dipole X            :         11.1206151          -11.1382518           -0.0176367
 Dipole Y            :          7.3959401           -5.9243613            1.4715788
 Dipole Z            :        -20.7563128           19.8807711           -0.8755417
 Magnitude           :                                                    1.7124334
  Basis Set: (AUG-CC-PVTZ AUX)
    Blend: AUG-CC-PVTZ-RI
	 Reference Energy          =    -763.8545711959930031 [Eh]
	 Singles Energy            =      -0.0000000000000000 [Eh]
	 Same-Spin Energy          =      -0.3460425712008534 [Eh]
	 Opposite-Spin Energy      =      -1.0541823543380238 [Eh]
	 Correlation Energy        =      -1.4002249255388772 [Eh]
	 Total Energy              =    -765.2547961215318537 [Eh]

	 ================> DF-SCS-MP2 Energies <==================
	-----------------------------------------------------------
	 SCS Same-Spin Scale       =       0.3333333333333333 [-]
	 SCS Opposite-Spin Scale   =       1.2000000000000000 [-]
	 SCS Same-Spin Energy      =      -0.1153475237336178 [Eh]
	 SCS Opposite-Spin Energy  =      -1.2650188252056285 [Eh]
	 SCS Correlation Energy    =      -1.3803663489392464 [Eh]
	 SCS Total Energy          =    -765.2349375449322224 [Eh]
	-----------------------------------------------------------

*** Psi4 exiting successfully. Buy a developer a beer!
