                               Psi4 1.9 release

  ==> Input File <==

--------------------------------------------------------------------------
MEMORY 60 GB

molecule dimer {
-1 1
Cl     0.000000     0.000000     0.000000
--
0 1
O      3.015981     0.151241    -1.457305
H      2.845971    -0.567435    -2.049500
H      2.230828     0.149298    -0.843213
O     -2.797673    -0.644207    -1.757639
H     -2.491546    -1.380346    -2.302014
H     -2.015250    -0.495737    -1.259297
O     -0.715759     3.330850    -0.769336
H      0.052831     3.505661    -0.203645
H     -0.556393     2.470762    -1.223557
O      0.652205     0.435816    -3.215109
H      1.085218     1.200515    -2.995505
H      0.387193     0.144769    -2.312401
O      1.503331     1.130459     2.879779
H      1.109970     0.660961     2.083685
H      1.604155     0.401707     3.533176
O      0.517922    -3.056007    -0.636675
H     -0.210470    -3.438063    -1.173663
H      0.434987    -2.108656    -0.643081

units ang
no_reorient
no_com
symmetry c1
}

set {
basis        aug-cc-pVTZ
scf_type     df
}

energy("mp2", bsse_type="cp")
--------------------------------------------------------------------------

                               Psi4 1.9 release
    Molecular point group: c1
  Charge       = 0
  Multiplicity = 1
  Basis Set: AUG-CC-PVTZ
    Blend: AUG-CC-PVTZ
  Basis Set: (AUG-CC-PVTZ AUX)
    Blend: AUG-CC-PVTZ-JKFIT
  @DF-RHF Final Energy:  -456.33161357056889
    Total Energy =                       -456.3316135705688907
 Dipole X            :        -41.2019781           41.3576956            0.1557175
 Dipole Y            :        -22.7849262           21.4080497           -1.3768766
 Dipole Z            :         92.9168896          -92.6708369            0.2460526
 Magnitude           :                                                    1.4073304
  Basis Set: (AUG-CC-PVTZ AUX)
    Blend: AUG-CC-PVTZ-RI
	 Reference Energy          =    -456.3316135705688907 [Eh]
	 Singles Energy            =      -0.0000000000000000 [Eh]
	 Same-Spin Energy          =      -0.4140251779656540 [Eh]
	 Opposite-Spin Energy      =      -1.3024760239077176 [Eh]
	 Correlation Energy        =      -1.7165012018733716 [Eh]
	 Total Energy              =    -458.0481147724422613 [Eh]
	 SCS Total Energy          =    -458.0325931919133495 [Eh]
                               Psi4 1.9 release
    Molecular point group: c1
  Multiplicity = 1
  Basis Set: AUG-CC-PVTZ
    Blend: AUG-CC-PVTZ
  Basis Set: (AUG-CC-PVTZ AUX)
    Blend: AUG-CC-PVTZ-JKFIT
  @DF-RHF Final Energy:  -459.57358870676705
    Total Energy =                       -459.5735887067670546
  Basis Set: (AUG-CC-PVTZ AUX)
	 Singles Energy            =      -0.0000000000000000 [Eh]
	 Same-Spin Energy          =      -0.0636745841160212 [Eh]
	 Opposite-Spin Energy      =      -0.1842761573161339 [Eh]
	 Correlation Energy        =      -0.2479507414321551 [Eh]
	 Total Energy              =    -459.8215394481991893 [Eh]
	 SCS Total Energy          =    -459.8159449569184289 [Eh]
                               Psi4 1.9 release
    Molecular point group: c1

    Geometry (in Bohr), charge = -1, multiplicity = 1:

       Center              X                  Y                   Z               Mass
    ------------   -----------------  -----------------  -----------------  -----------------
         CL           0.000000000000     0.000000000000     0.000000000000    34.968852682000
         O            5.699378089584     0.285804068940    -2.753907331260    15.994914619570
         H            5.378105750995    -1.072296743999    -3.872993694126     1.007825032230
         H            4.215653953003     0.282132331079    -1.593441635426     1.007825032230
         O           -5.286835758588    -1.217374798103    -3.321456337424    15.994914619570
         H           -4.708339568980    -2.608475898371    -4.350175996970     1.007825032230
         H           -3.808270574329    -0.936807160256    -2.379726440611     1.007825032230
         O           -1.352588481832     6.294394264981    -1.453834338455    15.994914619570
         H            0.099836120934     6.624739178699    -0.384833276819     1.007825032230
         H           -1.051430388122     4.669063501188    -2.312187628887     1.007825032230
         O            1.232488827654     0.823572881093    -6.075675473495    15.994914619570
         H            2.050764806417     2.268644559504    -5.660684057440     1.007825032230
         H            0.731688727694     0.273573761456    -4.369804582235     1.007825032230
         O            2.840883865911     2.136257906059     5.441993611845    15.994914619570
         H            2.097539307474     1.249035269609     3.937593981725     1.007825032230
         H            3.031413612784     0.759116212679     6.676734993041     1.007825032230
         O            0.978730734349    -5.775016267482    -1.203141380926    15.994914619570
         H           -0.397730657625    -6.496997472070    -2.217901633583     1.007825032230
         H            0.822006298135    -3.984782332803    -1.215246966486     1.007825032230

  Charge       = -1
  Multiplicity = 1
  Basis Set: AUG-CC-PVTZ
    Blend: AUG-CC-PVTZ
  Basis Set: (AUG-CC-PVTZ AUX)
    Blend: AUG-CC-PVTZ-JKFIT

    Orbital Energies [Eh]
    ---------------------

    Doubly Occupied:

       1A   -104.614071     2A    -20.441512     3A    -20.437290
       4A    -20.435647     5A    -20.433417     6A    -20.427524
       7A    -20.426808     8A    -10.339409     9A     -7.805530
      10A     -7.805466    11A     -7.805428    12A     -1.232595
      13A     -1.229536    14A     -1.216023    15A     -1.210417
      16A     -1.208609    17A     -1.206460    18A     -0.859462
      19A     -0.591958    20A     -0.581778    21A     -0.581576
      22A     -0.579176    23A     -0.572327    24A     -0.565331
      25A     -0.471824    26A     -0.469924    27A     -0.454461
      28A     -0.450245    29A     -0.448749    30A     -0.447034
      31A     -0.390411    32A     -0.382248    33A     -0.378972
      34A     -0.378553    35A     -0.377965    36A     -0.361213
      37A     -0.272660    38A     -0.268431    39A     -0.266432

  @DF-RHF Final Energy:  -915.99505222093558

   => Energetics <=

    Nuclear Repulsion Energy =            395.0106710740548692
    One-Electron Energy =               -2065.1584964091257461
    Two-Electron Energy =                 754.1527731141352433
    Total Energy =                       -915.9950522209355768
 Dipole X            :        -41.5750957           41.3576956           -0.2174000
 Dipole Y            :        -22.6639844           21.4080497           -1.2559348
 Dipole Z            :         93.5540232          -92.6708369            0.8831862
 Magnitude           :                                                    1.5506943
  Basis Set: (AUG-CC-PVTZ AUX)
    Blend: AUG-CC-PVTZ-RI
	 Reference Energy          =    -915.9950522209355768 [Eh]
	 Singles Energy            =      -0.0000000000000000 [Eh]
	 Same-Spin Energy          =      -0.4869343067203799 [Eh]
	 Opposite-Spin Energy      =      -1.4922567903229489 [Eh]
	 Correlation Energy        =      -1.9791910970433286 [Eh]
	 Total Energy              =    -917.9742433179789032 [Eh]

	 ================> DF-SCS-MP2 Energies <==================
	-----------------------------------------------------------
	 SCS Same-Spin Scale       =       0.3333333333333333 [-]
	 SCS Opposite-Spin Scale   =       1.2000000000000000 [-]
	 SCS Same-Spin Energy      =      -0.1623114355734600 [Eh]
	 SCS Opposite-Spin Energy  =      -1.7907081483875387 [Eh]
	 SCS Correlation Energy    =      -1.9530195839609985 [Eh]
	 SCS Total Energy          =    -917.9480718048965855 [Eh]
	-----------------------------------------------------------

*** Psi4 exiting successfully. Buy a developer a beer!
