                               Psi4 1.8.2 release

  ==> Input File <==

--------------------------------------------------------------------------
MEMORY 60 GB

molecule dimer {
0 1
Gh(Cl)     0.000000     0.000000     0.000000
Gh(O)      2.347456    -0.658120     1.836924
Gh(H)      1.503461    -0.342108     1.498010
Gh(H)      3.023913    -0.371611     1.184006
O          1.476974    -2.981181    -0.401283
H          1.428877    -2.124141     0.044335
H          0.987391    -2.973805    -1.261521
Gh(O)      1.221048    -0.028193    -3.177290
Gh(H)      0.809868    -0.267015    -2.372466
Gh(H)      1.740949     0.746334    -2.920550
Gh(O)     -0.343156     1.510349     2.607781
Gh(H)     -0.163751     0.855136     1.877864
Gh(H)      0.291671     2.275670     2.361551
Gh(O)     -1.949830    -2.734697     0.889703
Gh(H)     -2.584009    -2.204144     1.367376
Gh(H)     -1.302316    -2.065112     0.692981

units ang
no_reorient
no_com
symmetry c1
}

set {
basis        aug-cc-pVTZ
scf_type     df
}

energy("mp2")
--------------------------------------------------------------------------

    Molecular point group: c1

    Geometry (in Angstrom), charge = 0, multiplicity = 1:

       Center              X                  Y                   Z               Mass
    ------------   -----------------  -----------------  -----------------  -----------------
      Gh(CL)          0.000000000000     0.000000000000     0.000000000000    34.968852682000
      Gh(O)           2.347456000000    -0.658120000000     1.836924000000    15.994914619570
      Gh(H)           1.503461000000    -0.342108000000     1.498010000000     1.007825032230
      Gh(H)           3.023913000000    -0.371611000000     1.184006000000     1.007825032230
         O            1.476974000000    -2.981181000000    -0.401283000000    15.994914619570
         H            1.428877000000    -2.124141000000     0.044335000000     1.007825032230
         H            0.987391000000    -2.973805000000    -1.261521000000     1.007825032230
      Gh(O)           1.221048000000    -0.028193000000    -3.177290000000    15.994914619570
      Gh(H)           0.809868000000    -0.267015000000    -2.372466000000     1.007825032230
      Gh(H)           1.740949000000     0.746334000000    -2.920550000000     1.007825032230
      Gh(O)          -0.343156000000     1.510349000000     2.607781000000    15.994914619570
      Gh(H)          -0.163751000000     0.855136000000     1.877864000000     1.007825032230
      Gh(H)           0.291671000000     2.275670000000     2.361551000000     1.007825032230
      Gh(O)          -1.949830000000    -2.734697000000     0.889703000000    15.994914619570
      Gh(H)          -2.584009000000    -2.204144000000     1.367376000000     1.007825032230
      Gh(H)          -1.302316000000    -2.065112000000     0.692981000000     1.007825032230

  Charge       = 0
  Multiplicity = 1
  Basis Set: AUG-CC-PVTZ
    Blend: AUG-CC-PVTZ
  Basis Set: (AUG-CC-PVTZ AUX)
    Blend: AUG-CC-PVTZ-JKFIT

    Orbital Energies [Eh]
    ---------------------

    Doubly Occupied:

       1A    -20.567372     2A     -1.338154     3A     -0.718949
       4A     -0.567076     5A     -0.506365

  @DF-RHF Final Energy:   -76.05711591010143

   => Energetics <=

    Nuclear Repulsion Energy =              8.9808729238312974
    One-Electron Energy =                -122.6801415532052886
    Two-Electron Energy =                  37.6421527192725591
    Total Energy =                        -76.0571159101014302
 Dipole X            :        -27.2547105           26.8946956           -0.3600149
 Dipole Y            :         55.2846062          -54.7026467            0.5819595
 Dipole Z            :          8.0909542           -8.3666679           -0.2757137
 Magnitude           :                                                    0.7377707
  Basis Set: (AUG-CC-PVTZ AUX)
    Blend: AUG-CC-PVTZ-RI
	 Reference Energy          =     -76.0571159101014302 [Eh]
	 Singles Energy            =      -0.0000000000000000 [Eh]
	 Same-Spin Energy          =      -0.0686818025113955 [Eh]
	 Opposite-Spin Energy      =      -0.2166788665946195 [Eh]
	 Correlation Energy        =      -0.2853606691060150 [Eh]
	 Total Energy              =     -76.3424765792074425 [Eh]

	 ================> DF-SCS-MP2 Energies <==================
	-----------------------------------------------------------
	 SCS Same-Spin Scale       =       0.3333333333333333 [-]
	 SCS Opposite-Spin Scale   =       1.2000000000000000 [-]
	 SCS Same-Spin Energy      =      -0.0228939341704652 [Eh]
	 SCS Opposite-Spin Energy  =      -0.2600146399135434 [Eh]
	 SCS Correlation Energy    =      -0.2829085740840086 [Eh]
	 SCS Total Energy          =     -76.3400244841854345 [Eh]
	-----------------------------------------------------------

*** Psi4 exiting successfully. Buy a developer a beer!
