                               Psi4 1.8.2 release

  ==> Input File <==

--------------------------------------------------------------------------
MEMORY 60 GB

molecule dimer {
-1 1
Cl         0.000000     0.000000     0.000000
O          2.247823     1.054428     2.091133
H          1.975481     0.561471     1.348335
H          2.892441     0.520458     2.606351
O          0.349162    -2.885324     1.690405
H          0.406239    -3.703972     1.217566
H          0.590132    -2.160564     1.081020
O          1.622947     1.853072    -2.013003
H          2.373746     1.475204    -2.405921
H          1.243024     1.154997    -1.444838

units ang
no_reorient
no_com
symmetry c1
}

set {
basis        aug-cc-pVTZ
scf_type     df
}

energy("mp2")
--------------------------------------------------------------------------

    Molecular point group: c1

    Geometry (in Angstrom), charge = -1, multiplicity = 1:

       Center              X                  Y                   Z               Mass
    ------------   -----------------  -----------------  -----------------  -----------------
         CL           0.000000000000     0.000000000000     0.000000000000    34.968852682000
         O            2.247823000000     1.054428000000     2.091133000000    15.994914619570
         H            1.975481000000     0.561471000000     1.348335000000     1.007825032230
         H            2.892441000000     0.520458000000     2.606351000000     1.007825032230
         O            0.349162000000    -2.885324000000     1.690405000000    15.994914619570
         H            0.406239000000    -3.703972000000     1.217566000000     1.007825032230
         H            0.590132000000    -2.160564000000     1.081020000000     1.007825032230
         O            1.622947000000     1.853072000000    -2.013003000000    15.994914619570
         H            2.373746000000     1.475204000000    -2.405921000000     1.007825032230
         H            1.243024000000     1.154997000000    -1.444838000000     1.007825032230

  Charge       = -1
  Multiplicity = 1
  Basis Set: AUG-CC-PVTZ
    Blend: AUG-CC-PVTZ
  Basis Set: (AUG-CC-PVTZ AUX)
    Blend: AUG-CC-PVTZ-JKFIT

    Orbital Energies [Eh]
    ---------------------

    Doubly Occupied:

       1A   -104.552690     2A    -20.416237     3A    -20.407846
       4A    -20.394645     5A    -10.277319     6A     -7.743428
       7A     -7.743389     8A     -7.743341     9A     -1.200767
      10A     -1.194604    11A     -1.189155    12A     -0.791005
      13A     -0.574202    14A     -0.569693    15A     -0.556155
      16A     -0.431436    17A     -0.422445    18A     -0.420854
      19A     -0.361723    20A     -0.353872    21A     -0.344085
      22A     -0.206278    23A     -0.205419    24A     -0.201244

  @DF-RHF Final Energy:  -687.78704269999741

   => Energetics <=

    Nuclear Repulsion Energy =            145.8986281023708784
    One-Electron Energy =               -1250.7676739949440616
    Two-Electron Energy =                 417.0820031925758258
    Total Energy =                       -687.7870426999974143
 Dipole X            :        -81.6603690           81.7127384            0.0523695
 Dipole Y            :          2.3600057           -3.7322053           -1.3721996
 Dipole Z            :        -32.0271634           31.2764659           -0.7506974
 Magnitude           :                                                    1.5649987
  Basis Set: (AUG-CC-PVTZ AUX)
    Blend: AUG-CC-PVTZ-RI
	 Reference Energy          =    -687.7870426999974143 [Eh]
	 Singles Energy            =      -0.0000000000000000 [Eh]
	 Same-Spin Energy          =      -0.2739523696085304 [Eh]
	 Opposite-Spin Energy      =      -0.8330724799625708 [Eh]
	 Correlation Energy        =      -1.1070248495711013 [Eh]
	 Total Energy              =    -688.8940675495684900 [Eh]

	 ================> DF-SCS-MP2 Energies <==================
	-----------------------------------------------------------
	 SCS Same-Spin Scale       =       0.3333333333333333 [-]
	 SCS Opposite-Spin Scale   =       1.2000000000000000 [-]
	 SCS Same-Spin Energy      =      -0.0913174565361768 [Eh]
	 SCS Opposite-Spin Energy  =      -0.9996869759550849 [Eh]
	 SCS Correlation Energy    =      -1.0910044324912618 [Eh]
	 SCS Total Energy          =    -688.8780471324886321 [Eh]
	-----------------------------------------------------------

*** Psi4 exiting successfully. Buy a developer a beer!
