                               Psi4 1.8.2 release

  ==> Input File <==

--------------------------------------------------------------------------
MEMORY 60 GB

molecule dimer {
-1 1
Cl         0.000000     0.000000     0.000000
O         -1.574485    -1.388937    -2.457758
H         -1.317235    -0.940408    -1.655788
H         -0.953383    -2.128561    -2.491628
O          1.040796     3.218040    -0.206438
H          1.331961     2.595955     0.466511
H          1.503828     2.878531    -0.981858
O          1.627090    -0.479667     2.866522
H          2.163509     0.349331     2.829028
H          0.905208    -0.350725     2.192300
O         -2.718709    -1.072812     1.625741
H         -2.618297    -0.589436     2.466084
H         -1.916153    -0.782770     1.183766
O          0.257603    -3.266791     0.337367
H         -0.476299    -3.510657     0.988196
H          0.110478    -2.308356     0.242427
O          1.489698     0.001930    -3.063037
H          0.983789     0.084810    -2.249346
H          1.838570    -0.877214    -3.177410

units ang
no_reorient
no_com
symmetry c1
}

set {
basis        aug-cc-pVTZ
scf_type     df
}

energy("mp2")
--------------------------------------------------------------------------

    Molecular point group: c1

    Geometry (in Angstrom), charge = -1, multiplicity = 1:

       Center              X                  Y                   Z               Mass
    ------------   -----------------  -----------------  -----------------  -----------------
         CL           0.000000000000     0.000000000000     0.000000000000    34.968852682000
         O           -1.574485000000    -1.388937000000    -2.457758000000    15.994914619570
         H           -1.317235000000    -0.940408000000    -1.655788000000     1.007825032230
         H           -0.953383000000    -2.128561000000    -2.491628000000     1.007825032230
         O            1.040796000000     3.218040000000    -0.206438000000    15.994914619570
         H            1.331961000000     2.595955000000     0.466511000000     1.007825032230
         H            1.503828000000     2.878531000000    -0.981858000000     1.007825032230
         O            1.627090000000    -0.479667000000     2.866522000000    15.994914619570
         H            2.163509000000     0.349331000000     2.829028000000     1.007825032230
         H            0.905208000000    -0.350725000000     2.192300000000     1.007825032230
         O           -2.718709000000    -1.072812000000     1.625741000000    15.994914619570
         H           -2.618297000000    -0.589436000000     2.466084000000     1.007825032230
         H           -1.916153000000    -0.782770000000     1.183766000000     1.007825032230
         O            0.257603000000    -3.266791000000     0.337367000000    15.994914619570
         H           -0.476299000000    -3.510657000000     0.988196000000     1.007825032230
         H            0.110478000000    -2.308356000000     0.242427000000     1.007825032230
         O            1.489698000000     0.001930000000    -3.063037000000    15.994914619570
         H            0.983789000000     0.084810000000    -2.249346000000     1.007825032230
         H            1.838570000000    -0.877214000000    -3.177410000000     1.007825032230

  Charge       = -1
  Multiplicity = 1
  Basis Set: AUG-CC-PVTZ
    Blend: AUG-CC-PVTZ
  Basis Set: (AUG-CC-PVTZ AUX)
    Blend: AUG-CC-PVTZ-JKFIT

    Orbital Energies [Eh]
    ---------------------

    Doubly Occupied:

       1A   -104.607766     2A    -20.445346     3A    -20.439919
       4A    -20.437177     5A    -20.430214     6A    -20.427019
       7A    -20.414691     8A    -10.333152     9A     -7.799268
      10A     -7.799249    11A     -7.799154    12A     -1.229702
      13A     -1.220738    14A     -1.214307    15A     -1.206076
      16A     -1.203388    17A     -1.197810    18A     -0.853029
      19A     -0.598318    20A     -0.584839    21A     -0.571989
      22A     -0.571643    23A     -0.563426    24A     -0.553685
      25A     -0.470190    26A     -0.465803    27A     -0.451945
      28A     -0.448966    29A     -0.445371    30A     -0.438467
      31A     -0.389284    32A     -0.380611    33A     -0.378461
      34A     -0.377931    35A     -0.368496    36A     -0.358014
      37A     -0.265897    38A     -0.263638    39A     -0.259205

  @DF-RHF Final Energy:  -915.99488743649817

   => Energetics <=

    Nuclear Repulsion Energy =            390.8352450627707526
    One-Electron Energy =               -2057.1318824241898255
    Two-Electron Energy =                 750.3017499249208413
    Total Energy =                       -915.9948874364981748
 Dipole X            :         -3.9301066            4.7846354            0.8545287
 Dipole Y            :         56.4405911          -55.7193231            0.7212680
 Dipole Z            :         14.9104177          -13.9245263            0.9858914
 Magnitude           :                                                    1.4907812
  Basis Set: (AUG-CC-PVTZ AUX)
    Blend: AUG-CC-PVTZ-RI
	 Reference Energy          =    -915.9948874364981748 [Eh]
	 Singles Energy            =      -0.0000000000000000 [Eh]
	 Same-Spin Energy          =      -0.4866367551819021 [Eh]
	 Opposite-Spin Energy      =      -1.4925649477310241 [Eh]
	 Correlation Energy        =      -1.9792017029129263 [Eh]
	 Total Energy              =    -917.9740891394111486 [Eh]

	 ================> DF-SCS-MP2 Energies <==================
	-----------------------------------------------------------
	 SCS Same-Spin Scale       =       0.3333333333333333 [-]
	 SCS Opposite-Spin Scale   =       1.2000000000000000 [-]
	 SCS Same-Spin Energy      =      -0.1622122517273007 [Eh]
	 SCS Opposite-Spin Energy  =      -1.7910779372772290 [Eh]
	 SCS Correlation Energy    =      -1.9532901890045298 [Eh]
	 SCS Total Energy          =    -917.9481776255026944 [Eh]
	-----------------------------------------------------------

*** Psi4 exiting successfully. Buy a developer a beer!
