                               Psi4 1.8.2 release

  ==> Input File <==

--------------------------------------------------------------------------
MEMORY 60 GB

molecule dimer {
0 1
Gh(Cl)     0.000000     0.000000     0.000000
O          1.572535     2.984313     0.080535
H          2.483152     2.774963     0.044021
H          1.091164     2.083829     0.086158
Gh(O)     -2.519770     0.473353     1.764939
Gh(H)     -1.730664     0.352182     1.242951
Gh(H)     -2.351355     1.328225     2.177357
Gh(O)      1.097544    -1.383699     2.955254
Gh(H)      0.572761    -1.058492     3.732723
Gh(H)      0.582499    -1.021529     2.224847
Gh(O)     -2.152007     2.124199    -0.978722
Gh(H)     -1.802804     1.460648    -0.427201
Gh(H)     -1.664805     1.959459    -1.761428
Gh(O)      2.011060     0.105217    -2.783367
Gh(H)      1.274497     0.182662    -2.166724
Gh(H)      2.754003    -0.550445    -2.510663

units ang
no_reorient
no_com
symmetry c1
}

set {
basis        aug-cc-pVTZ
scf_type     df
}

energy("mp2")
--------------------------------------------------------------------------

    Molecular point group: c1

    Geometry (in Angstrom), charge = 0, multiplicity = 1:

       Center              X                  Y                   Z               Mass
    ------------   -----------------  -----------------  -----------------  -----------------
      Gh(CL)          0.000000000000     0.000000000000     0.000000000000    34.968852682000
         O            1.572535000000     2.984313000000     0.080535000000    15.994914619570
         H            2.483152000000     2.774963000000     0.044021000000     1.007825032230
         H            1.091164000000     2.083829000000     0.086158000000     1.007825032230
      Gh(O)          -2.519770000000     0.473353000000     1.764939000000    15.994914619570
      Gh(H)          -1.730664000000     0.352182000000     1.242951000000     1.007825032230
      Gh(H)          -2.351355000000     1.328225000000     2.177357000000     1.007825032230
      Gh(O)           1.097544000000    -1.383699000000     2.955254000000    15.994914619570
      Gh(H)           0.572761000000    -1.058492000000     3.732723000000     1.007825032230
      Gh(H)           0.582499000000    -1.021529000000     2.224847000000     1.007825032230
      Gh(O)          -2.152007000000     2.124199000000    -0.978722000000    15.994914619570
      Gh(H)          -1.802804000000     1.460648000000    -0.427201000000     1.007825032230
      Gh(H)          -1.664805000000     1.959459000000    -1.761428000000     1.007825032230
      Gh(O)           2.011060000000     0.105217000000    -2.783367000000    15.994914619570
      Gh(H)           1.274497000000     0.182662000000    -2.166724000000     1.007825032230
      Gh(H)           2.754003000000    -0.550445000000    -2.510663000000     1.007825032230

  Charge       = 0
  Multiplicity = 1
  Basis Set: AUG-CC-PVTZ
    Blend: AUG-CC-PVTZ
  Basis Set: (AUG-CC-PVTZ AUX)
    Blend: AUG-CC-PVTZ-JKFIT

    Orbital Energies [Eh]
    ---------------------

    Doubly Occupied:

       1A    -20.570100     2A     -1.344296     3A     -0.708426
       4A     -0.578950     5A     -0.508616

  @DF-RHF Final Energy:   -76.05524402510726

   => Energetics <=

    Nuclear Repulsion Energy =              9.0136680090536139
    One-Electron Energy =                -122.7170454650966462
    Two-Electron Energy =                  37.6481334309357720
    Total Energy =                        -76.0552440251072568
 Dipole X            :        -30.2319850           30.5277621            0.2957771
 Dipole Y            :        -55.0229235           54.2980601           -0.7248634
 Dipole Z            :         -1.4840377            1.4635154           -0.0205223
 Magnitude           :                                                    0.7831553
  Basis Set: (AUG-CC-PVTZ AUX)
    Blend: AUG-CC-PVTZ-RI
	 Reference Energy          =     -76.0552440251072568 [Eh]
	 Singles Energy            =      -0.0000000000000000 [Eh]
	 Same-Spin Energy          =      -0.0687093627683130 [Eh]
	 Opposite-Spin Energy      =      -0.2168672162574571 [Eh]
	 Correlation Energy        =      -0.2855765790257702 [Eh]
	 Total Energy              =     -76.3408206041330288 [Eh]

	 ================> DF-SCS-MP2 Energies <==================
	-----------------------------------------------------------
	 SCS Same-Spin Scale       =       0.3333333333333333 [-]
	 SCS Opposite-Spin Scale   =       1.2000000000000000 [-]
	 SCS Same-Spin Energy      =      -0.0229031209227710 [Eh]
	 SCS Opposite-Spin Energy  =      -0.2602406595089485 [Eh]
	 SCS Correlation Energy    =      -0.2831437804317196 [Eh]
	 SCS Total Energy          =     -76.3383878055389715 [Eh]
	-----------------------------------------------------------

*** Psi4 exiting successfully. Buy a developer a beer!
