                               Psi4 1.8.2 release

  ==> Input File <==

--------------------------------------------------------------------------
MEMORY 60 GB

molecule dimer {
-1 1
Cl         0.000000     0.000000     0.000000
O          2.741234     0.738472    -1.525475
H          2.030876     0.591915    -0.837522
H          3.603201     0.343611    -1.225902
O         -1.282461     2.745085     1.157741
H         -1.948791     2.416369     1.805657
H         -0.745954     1.941353     0.995102
O         -2.297413    -1.049486     2.333506
H         -2.862620    -0.996762     1.560954
H         -1.356740    -0.962436     2.174113
O         -1.160282     1.516406    -2.408583
H         -0.693222     0.915110    -1.786235
H         -0.649383     2.316099    -2.294649
O          1.852777    -0.587624     2.593331
H          2.415237    -1.388943     2.530648
H          1.630884    -0.133154     1.758059

units ang
no_reorient
no_com
symmetry c1
}

set {
basis        aug-cc-pVTZ
scf_type     df
}

energy("mp2")
--------------------------------------------------------------------------

    Molecular point group: c1

    Geometry (in Angstrom), charge = -1, multiplicity = 1:

       Center              X                  Y                   Z               Mass
    ------------   -----------------  -----------------  -----------------  -----------------
         CL           0.000000000000     0.000000000000     0.000000000000    34.968852682000
         O            2.741234000000     0.738472000000    -1.525475000000    15.994914619570
         H            2.030876000000     0.591915000000    -0.837522000000     1.007825032230
         H            3.603201000000     0.343611000000    -1.225902000000     1.007825032230
         O           -1.282461000000     2.745085000000     1.157741000000    15.994914619570
         H           -1.948791000000     2.416369000000     1.805657000000     1.007825032230
         H           -0.745954000000     1.941353000000     0.995102000000     1.007825032230
         O           -2.297413000000    -1.049486000000     2.333506000000    15.994914619570
         H           -2.862620000000    -0.996762000000     1.560954000000     1.007825032230
         H           -1.356740000000    -0.962436000000     2.174113000000     1.007825032230
         O           -1.160282000000     1.516406000000    -2.408583000000    15.994914619570
         H           -0.693222000000     0.915110000000    -1.786235000000     1.007825032230
         H           -0.649383000000     2.316099000000    -2.294649000000     1.007825032230
         O            1.852777000000    -0.587624000000     2.593331000000    15.994914619570
         H            2.415237000000    -1.388943000000     2.530648000000     1.007825032230
         H            1.630884000000    -0.133154000000     1.758059000000     1.007825032230

  Charge       = -1
  Multiplicity = 1
  Basis Set: AUG-CC-PVTZ
    Blend: AUG-CC-PVTZ
  Basis Set: (AUG-CC-PVTZ AUX)
    Blend: AUG-CC-PVTZ-JKFIT

    Orbital Energies [Eh]
    ---------------------

    Doubly Occupied:

       1A   -104.594139     2A    -20.432493     3A    -20.427641
       4A    -20.426132     5A    -20.415519     6A    -20.394968
       7A    -10.319878     8A     -7.785965     9A     -7.785927
      10A     -7.785887    11A     -1.210515    12A     -1.204945
      13A     -1.190410    14A     -1.189033    15A     -1.180107
      16A     -0.841437    17A     -0.603756    18A     -0.598533
      19A     -0.568424    20A     -0.547479    21A     -0.536218
      22A     -0.437293    23A     -0.432946    24A     -0.432267
      25A     -0.427945    26A     -0.426687    27A     -0.376273
      28A     -0.373767    29A     -0.365868    30A     -0.357386
      31A     -0.340286    32A     -0.251486    33A     -0.250190
      34A     -0.246975

  @DF-RHF Final Energy:  -839.91845465957988

   => Energetics <=

    Nuclear Repulsion Energy =            302.0364467112602256
    One-Electron Energy =               -1774.3922492043407146
    Two-Electron Energy =                 632.4373478335006666
    Total Energy =                       -839.9184546595798793
 Dipole X            :          0.4799142            0.4806103            0.9605245
 Dipole Y            :        -61.9389155           60.3691643           -1.5697512
 Dipole Z            :        -41.2328132           41.3554941            0.1226808
 Magnitude           :                                                    1.8443906
  Basis Set: (AUG-CC-PVTZ AUX)
    Blend: AUG-CC-PVTZ-RI
	 Reference Energy          =    -839.9184546595798793 [Eh]
	 Singles Energy            =      -0.0000000000000000 [Eh]
	 Same-Spin Energy          =      -0.4175553037926167 [Eh]
	 Opposite-Spin Energy      =      -1.2748252587296813 [Eh]
	 Correlation Energy        =      -1.6923805625222981 [Eh]
	 Total Energy              =    -841.6108352221021960 [Eh]

	 ================> DF-SCS-MP2 Energies <==================
	-----------------------------------------------------------
	 SCS Same-Spin Scale       =       0.3333333333333333 [-]
	 SCS Opposite-Spin Scale   =       1.2000000000000000 [-]
	 SCS Same-Spin Energy      =      -0.1391851012642056 [Eh]
	 SCS Opposite-Spin Energy  =      -1.5297903104756176 [Eh]
	 SCS Correlation Energy    =      -1.6689754117398232 [Eh]
	 SCS Total Energy          =    -841.5874300713196590 [Eh]
	-----------------------------------------------------------

*** Psi4 exiting successfully. Buy a developer a beer!
