                               Psi4 1.9 release

  ==> Input File <==

--------------------------------------------------------------------------
MEMORY 60 GB

molecule dimer {
-1 1
Cl     0.000000     0.000000     0.000000
--
0 1
O     -0.853615    -3.073938     0.001422
H     -0.700047    -2.131269     0.018283
H     -0.736767    -3.342697     0.936492
O     -1.861729    -0.237708    -2.894943
H     -2.044505     0.088802    -2.038781
H     -0.909613    -0.441097    -2.789066
O      1.901996    -2.555862     1.121538
H      1.181856    -3.161835     1.015908
H      1.568338    -1.739261     0.697667
O     -0.317986     0.148115     3.343688
H      0.298703    -0.298440     3.876186
H     -0.036324     0.020454     2.421803
O     -2.717002     0.216750     1.453755
H     -2.702718    -0.603026     1.933237
H     -1.809585     0.403824     1.178356

units ang
no_reorient
no_com
symmetry c1
}

set {
basis        aug-cc-pVTZ
scf_type     df
}

energy("mp2", bsse_type="cp")
--------------------------------------------------------------------------

                               Psi4 1.9 release
    Molecular point group: c1
  Charge       = 0
  Multiplicity = 1
  Basis Set: AUG-CC-PVTZ
    Blend: AUG-CC-PVTZ
  Basis Set: (AUG-CC-PVTZ AUX)
    Blend: AUG-CC-PVTZ-JKFIT
  @DF-RHF Final Energy:  -380.28279990577221
    Total Energy =                       -380.2827999057722081
 Dipole X            :         70.4024046          -69.3101465            1.0922581
 Dipole Y            :        104.1468974         -104.3614273           -0.2145299
 Dipole Z            :        -58.5869222           59.4390015            0.8520793
 Magnitude           :                                                    1.4018166
  Basis Set: (AUG-CC-PVTZ AUX)
    Blend: AUG-CC-PVTZ-RI
	 Reference Energy          =    -380.2827999057722081 [Eh]
	 Singles Energy            =      -0.0000000000000000 [Eh]
	 Same-Spin Energy          =      -0.3450049237273605 [Eh]
	 Opposite-Spin Energy      =      -1.0833887274503720 [Eh]
	 Correlation Energy        =      -1.4283936511777324 [Eh]
	 Total Energy              =    -381.7111935569499224 [Eh]
	 SCS Total Energy          =    -381.6978680199550809 [Eh]
                               Psi4 1.9 release
    Molecular point group: c1
  Multiplicity = 1
  Basis Set: AUG-CC-PVTZ
    Blend: AUG-CC-PVTZ
  Basis Set: (AUG-CC-PVTZ AUX)
    Blend: AUG-CC-PVTZ-JKFIT
  @DF-RHF Final Energy:  -459.57357600444175
    Total Energy =                       -459.5735760044417475
  Basis Set: (AUG-CC-PVTZ AUX)
	 Singles Energy            =      -0.0000000000000000 [Eh]
	 Same-Spin Energy          =      -0.0635404212720900 [Eh]
	 Opposite-Spin Energy      =      -0.1837611490905391 [Eh]
	 Correlation Energy        =      -0.2473015703626292 [Eh]
	 Total Energy              =    -459.8208775748043990 [Eh]
	 SCS Total Energy          =    -459.8152695237744183 [Eh]
                               Psi4 1.9 release
    Molecular point group: c1

    Geometry (in Bohr), charge = -1, multiplicity = 1:

       Center              X                  Y                   Z               Mass
    ------------   -----------------  -----------------  -----------------  -----------------
         CL           0.000000000000     0.000000000000     0.000000000000    34.968852682000
         O           -1.613098566583    -5.808900946638     0.002687190550    15.994914619570
         H           -1.322897104948    -4.027514709678     0.034549862752     1.007825032230
         H           -1.392287848275    -6.316781850390     1.769713398682     1.007825032230
         O           -3.518157929822    -0.449203017830    -5.470649418811    15.994914619570
         H           -3.863554512129     0.167811459393    -3.852737719787     1.007825032230
         H           -1.718919450156    -0.833552524761    -5.270570885826     1.007825032230
         O            3.594251531716    -4.829879194465     2.119399659294    15.994914619570
         H            2.233384159729    -5.975002203887     1.919787888662     1.007825032230
         H            2.963729292148    -3.286726950690     1.318399556770     1.007825032230
         O           -0.600906451730     0.279896785072     6.318654568980    15.994914619570
         H            0.564466862853    -0.563969864882     7.324929951334     1.007825032230
         H           -0.068642411781     0.038652458170     4.576544399812     1.007825032230
         O           -5.134389662321     0.409598137693     2.747198803515    15.994914619570
         H           -5.107396814345    -1.139553986530     3.653288465602     1.007825032230
         H           -3.419620050737     0.763116762887     2.226770118290     1.007825032230

  Charge       = -1
  Multiplicity = 1
  Basis Set: AUG-CC-PVTZ
    Blend: AUG-CC-PVTZ
  Basis Set: (AUG-CC-PVTZ AUX)
    Blend: AUG-CC-PVTZ-JKFIT

    Orbital Energies [Eh]
    ---------------------

    Doubly Occupied:

       1A   -104.599335     2A    -20.434853     3A    -20.429669
       4A    -20.427429     5A    -20.423854     6A    -20.400741
       7A    -10.324721     8A     -7.790807     9A     -7.790795
      10A     -7.790750    11A     -1.224335    12A     -1.223765
      13A     -1.214105    14A     -1.211949    15A     -1.191241
      16A     -0.844731    17A     -0.595950    18A     -0.588116
      19A     -0.571770    20A     -0.565502    21A     -0.563930
      22A     -0.470293    23A     -0.456300    24A     -0.452552
      25A     -0.448245    26A     -0.426320    27A     -0.379092
      28A     -0.378753    29A     -0.372977    30A     -0.369782
      31A     -0.349658    32A     -0.255831    33A     -0.255504
      34A     -0.251698

  @DF-RHF Final Energy:  -839.93329853348757

   => Energetics <=

    Nuclear Repulsion Energy =            314.1571737150396757
    One-Electron Energy =               -1798.0302346187506828
    Two-Electron Energy =                 643.9397623702235478
    Total Energy =                       -839.9332985334875730
 Dipole X            :         70.7811394          -69.3101465            1.4709929
 Dipole Y            :        104.8425857         -104.3614273            0.4811584
 Dipole Z            :        -59.1222363           59.4390015            0.3167651
 Magnitude           :                                                    1.5797701
  Basis Set: (AUG-CC-PVTZ AUX)
    Blend: AUG-CC-PVTZ-RI
	 Reference Energy          =    -839.9332985334875730 [Eh]
	 Singles Energy            =      -0.0000000000000000 [Eh]
	 Same-Spin Energy          =      -0.4168665894706223 [Eh]
	 Opposite-Spin Energy      =      -1.2722399420715804 [Eh]
	 Correlation Energy        =      -1.6891065315422027 [Eh]
	 Total Energy              =    -841.6224050650297386 [Eh]

	 ================> DF-SCS-MP2 Energies <==================
	-----------------------------------------------------------
	 SCS Same-Spin Scale       =       0.3333333333333333 [-]
	 SCS Opposite-Spin Scale   =       1.2000000000000000 [-]
	 SCS Same-Spin Energy      =      -0.1389555298235408 [Eh]
	 SCS Opposite-Spin Energy  =      -1.5266879304858965 [Eh]
	 SCS Correlation Energy    =      -1.6656434603094372 [Eh]
	 SCS Total Energy          =    -841.5989419937969842 [Eh]
	-----------------------------------------------------------

*** Psi4 exiting successfully. Buy a developer a beer!
