                               Psi4 1.9 release

  ==> Input File <==

--------------------------------------------------------------------------
MEMORY 60 GB

molecule dimer {
-1 1
Cl     0.000000     0.000000     0.000000
--
0 1
O      2.229770     1.789189     1.621983
H      1.631070     1.514205     0.937078
H      3.095321     1.957227     1.201820
O     -0.849762    -1.714934    -2.358862
H     -0.445959    -1.021397    -2.934249
H     -1.069056    -1.384646    -1.506905
O     -0.610764     3.422499    -0.224439
H     -0.451227     2.515491    -0.613530
H      0.104167     4.032667    -0.497019
O     -3.173880     0.131157     1.037539
H     -2.298199     0.065462     0.589628
H     -2.996396     0.503443     1.848118

units ang
no_reorient
no_com
symmetry c1
}

set {
basis        aug-cc-pVTZ
scf_type     df
}

energy("mp2", bsse_type="cp")
--------------------------------------------------------------------------

                               Psi4 1.9 release
    Molecular point group: c1
  Charge       = 0
  Multiplicity = 1
  Basis Set: AUG-CC-PVTZ
    Blend: AUG-CC-PVTZ
  Basis Set: (AUG-CC-PVTZ AUX)
    Blend: AUG-CC-PVTZ-JKFIT
  @DF-RHF Final Energy:  -304.22591246847571
    Total Energy =                       -304.2259124684757126
 Dipole X            :         42.4776456          -40.9453895            1.5322561
 Dipole Y            :        -69.6207243           70.3086589            0.6879346
 Dipole Z            :         -0.0011021           -0.6902999           -0.6914020
 Magnitude           :                                                    1.8163424
  Basis Set: (AUG-CC-PVTZ AUX)
    Blend: AUG-CC-PVTZ-RI
	 Reference Energy          =    -304.2259124684757126 [Eh]
	 Singles Energy            =      -0.0000000000000000 [Eh]
	 Same-Spin Energy          =      -0.2744250390610082 [Eh]
	 Opposite-Spin Energy      =      -0.8645618425208266 [Eh]
	 Correlation Energy        =      -1.1389868815818347 [Eh]
	 Total Energy              =    -305.3648993500575557 [Eh]
	 SCS Total Energy          =    -305.3548616925210126 [Eh]
                               Psi4 1.9 release
    Molecular point group: c1
  Multiplicity = 1
  Basis Set: AUG-CC-PVTZ
    Blend: AUG-CC-PVTZ
  Basis Set: (AUG-CC-PVTZ AUX)
    Blend: AUG-CC-PVTZ-JKFIT
  @DF-RHF Final Energy:  -459.57355379293887
    Total Energy =                       -459.5735537929389238
  Basis Set: (AUG-CC-PVTZ AUX)
	 Singles Energy            =      -0.0000000000000000 [Eh]
	 Same-Spin Energy          =      -0.0631705090786767 [Eh]
	 Opposite-Spin Energy      =      -0.1823700892934332 [Eh]
	 Correlation Energy        =      -0.2455405983721099 [Eh]
	 Total Energy              =    -459.8190943913109550 [Eh]
	 SCS Total Energy          =    -459.8134547364505238 [Eh]
                               Psi4 1.9 release
    Molecular point group: c1

    Geometry (in Bohr), charge = -1, multiplicity = 1:

       Center              X                  Y                   Z               Mass
    ------------   -----------------  -----------------  -----------------  -----------------
         CL           0.000000000000     0.000000000000     0.000000000000    34.968852682000
         O            4.213654622762     3.381077196682     3.065103650148    15.994914619570
         H            3.082275591450     2.861432747799     1.770820778192     1.007825032230
         H            5.849308960378     3.698622995351     2.271110652098     1.007825032230
         O           -1.605817451821    -3.240755583236    -4.457603147750    15.994914619570
         H           -0.842740373183    -1.930160595364    -5.544926993899     1.007825032230
         H           -2.020223052777    -2.616601720711    -2.847637747083     1.007825032230
         O           -1.154176687289     6.467585774653    -0.424128241872    15.994914619570
         H           -0.852695450412     4.753589061054    -1.159403669752     1.007825032230
         H            0.196847101311     7.620636185172    -0.939229789149     1.007825032230
         O           -5.997763955068     0.247850809437     1.960664554481    15.994914619570
         H           -4.342966691801     0.123705251625     1.114235435901     1.007825032230
         H           -5.662367803417     0.951369389779     3.492436867529     1.007825032230

  Charge       = -1
  Multiplicity = 1
  Basis Set: AUG-CC-PVTZ
    Blend: AUG-CC-PVTZ
  Basis Set: (AUG-CC-PVTZ AUX)
    Blend: AUG-CC-PVTZ-JKFIT

    Orbital Energies [Eh]
    ---------------------

    Doubly Occupied:

       1A   -104.570427     2A    -20.431019     3A    -20.419022
       4A    -20.402727     5A    -20.401261     6A    -10.295511
       7A     -7.761637     8A     -7.761564     9A     -7.761528
      10A     -1.202293    11A     -1.201145    12A     -1.196987
      13A     -1.185427    14A     -0.811621    15A     -0.574804
      16A     -0.572301    17A     -0.569587    18A     -0.566660
      19A     -0.435914    20A     -0.432584    21A     -0.431831
      22A     -0.415718    23A     -0.371136    24A     -0.362029
      25A     -0.353601    26A     -0.349511    27A     -0.227949
      28A     -0.222796    29A     -0.219876

  @DF-RHF Final Energy:  -763.85124929480514

   => Energetics <=

    Nuclear Repulsion Energy =            215.6518597021793369
    One-Electron Energy =               -1495.9892828540278060
    Two-Electron Energy =                 516.4861738570433545
    Total Energy =                       -763.8512492948051431
 Dipole X            :         42.7694984          -40.9453895            1.8241090
 Dipole Y            :        -70.0435875           70.3086589            0.2650714
 Dipole Z            :          0.0884518           -0.6902999           -0.6018481
 Magnitude           :                                                    1.9390352
  Basis Set: (AUG-CC-PVTZ AUX)
    Blend: AUG-CC-PVTZ-RI
	 Reference Energy          =    -763.8512492948051431 [Eh]
	 Singles Energy            =      -0.0000000000000000 [Eh]
	 Same-Spin Energy          =      -0.3443987272802127 [Eh]
	 Opposite-Spin Energy      =      -1.0517577455954128 [Eh]
	 Correlation Energy        =      -1.3961564728756255 [Eh]
	 Total Energy              =    -765.2474057676807888 [Eh]

	 ================> DF-SCS-MP2 Energies <==================
	-----------------------------------------------------------
	 SCS Same-Spin Scale       =       0.3333333333333333 [-]
	 SCS Opposite-Spin Scale   =       1.2000000000000000 [-]
	 SCS Same-Spin Energy      =      -0.1147995757600709 [Eh]
	 SCS Opposite-Spin Energy  =      -1.2621092947144954 [Eh]
	 SCS Correlation Energy    =      -1.3769088704745662 [Eh]
	 SCS Total Energy          =    -765.2281581652797513 [Eh]
	-----------------------------------------------------------

*** Psi4 exiting successfully. Buy a developer a beer!
