                               Psi4 1.8.2 release

  ==> Input File <==

--------------------------------------------------------------------------
MEMORY 60 GB

molecule dimer {
-1 1
Cl         0.000000     0.000000     0.000000
Gh(O)      1.242748     0.373838    -2.862966
Gh(H)      1.138454     0.351436    -1.908457
Gh(H)      2.040450     0.897382    -2.964663
Gh(O)      0.276420     3.153674    -0.747807
Gh(H)      0.355701     2.306751    -0.429567
Gh(H)     -0.187972     3.065629    -1.574720
Gh(O)      0.006494     0.560028     2.997778
Gh(H)      0.008803     0.499540     2.013278
Gh(H)      0.769493     0.188003     3.383861
Gh(O)      3.047364     0.861757     0.211652
Gh(H)      2.118883     0.732903     0.199202
Gh(H)      3.204150     1.194867    -0.687368
Gh(O)      2.269934    -2.438292    -1.028284
Gh(H)      2.047839    -1.483943    -0.900356
Gh(H)      1.445497    -2.891753    -0.787702

units ang
no_reorient
no_com
symmetry c1
}

set {
basis        aug-cc-pVTZ
scf_type     df
}

energy("mp2")
--------------------------------------------------------------------------

    Molecular point group: c1

    Geometry (in Angstrom), charge = -1, multiplicity = 1:

       Center              X                  Y                   Z               Mass
    ------------   -----------------  -----------------  -----------------  -----------------
         CL           0.000000000000     0.000000000000     0.000000000000    34.968852682000
      Gh(O)           1.242748000000     0.373838000000    -2.862966000000    15.994914619570
      Gh(H)           1.138454000000     0.351436000000    -1.908457000000     1.007825032230
      Gh(H)           2.040450000000     0.897382000000    -2.964663000000     1.007825032230
      Gh(O)           0.276420000000     3.153674000000    -0.747807000000    15.994914619570
      Gh(H)           0.355701000000     2.306751000000    -0.429567000000     1.007825032230
      Gh(H)          -0.187972000000     3.065629000000    -1.574720000000     1.007825032230
      Gh(O)           0.006494000000     0.560028000000     2.997778000000    15.994914619570
      Gh(H)           0.008803000000     0.499540000000     2.013278000000     1.007825032230
      Gh(H)           0.769493000000     0.188003000000     3.383861000000     1.007825032230
      Gh(O)           3.047364000000     0.861757000000     0.211652000000    15.994914619570
      Gh(H)           2.118883000000     0.732903000000     0.199202000000     1.007825032230
      Gh(H)           3.204150000000     1.194867000000    -0.687368000000     1.007825032230
      Gh(O)           2.269934000000    -2.438292000000    -1.028284000000    15.994914619570
      Gh(H)           2.047839000000    -1.483943000000    -0.900356000000     1.007825032230
      Gh(H)           1.445497000000    -2.891753000000    -0.787702000000     1.007825032230

  Charge       = -1
  Multiplicity = 1
  Basis Set: AUG-CC-PVTZ
    Blend: AUG-CC-PVTZ
  Basis Set: (AUG-CC-PVTZ AUX)
    Blend: AUG-CC-PVTZ-JKFIT

    Orbital Energies [Eh]
    ---------------------

    Doubly Occupied:

       1A   -104.507395     2A    -10.230100     3A     -7.696179
       4A     -7.696168     5A     -7.696134     6A     -0.733471
       7A     -0.150311     8A     -0.150311     9A     -0.150307

  @DF-RHF Final Energy:  -459.57358079667745

   => Energetics <=

    Nuclear Repulsion Energy =              0.0000000000000000
    One-Electron Energy =                -641.1264232275045742
    Two-Electron Energy =                 181.5528424308271269
    Total Energy =                       -459.5735807966774473
 Dipole X            :          0.0003850            0.0000000            0.0003850
 Dipole Y            :          0.0003024            0.0000000            0.0003024
 Dipole Z            :          0.0001281            0.0000000            0.0001281
 Magnitude           :                                                    0.0005061
  Basis Set: (AUG-CC-PVTZ AUX)
    Blend: AUG-CC-PVTZ-RI
	 Reference Energy          =    -459.5735807966774473 [Eh]
	 Singles Energy            =      -0.0000000000000000 [Eh]
	 Same-Spin Energy          =      -0.0636821606639758 [Eh]
	 Opposite-Spin Energy      =      -0.1844226874347682 [Eh]
	 Correlation Energy        =      -0.2481048480987439 [Eh]
	 Total Energy              =    -459.8216856447762098 [Eh]

	 ================> DF-SCS-MP2 Energies <==================
	-----------------------------------------------------------
	 SCS Same-Spin Scale       =       0.3333333333333333 [-]
	 SCS Opposite-Spin Scale   =       1.2000000000000000 [-]
	 SCS Same-Spin Energy      =      -0.0212273868879919 [Eh]
	 SCS Opposite-Spin Energy  =      -0.2213072249217218 [Eh]
	 SCS Correlation Energy    =      -0.2425346118097137 [Eh]
	 SCS Total Energy          =    -459.8161154084871782 [Eh]
	-----------------------------------------------------------

*** Psi4 exiting successfully. Buy a developer a beer!
