                               Psi4 1.8.2 release

  ==> Input File <==

--------------------------------------------------------------------------
MEMORY 60 GB

molecule dimer {
0 1
Gh(Cl)     0.000000     0.000000     0.000000
O         -3.072186    -0.943385    -1.151340
H         -2.109297    -0.833410    -1.232254
H         -3.480580    -0.069519    -1.336406
Gh(O)     -2.170564     2.085398    -0.537936
Gh(H)     -1.492369     1.468992    -0.217548
Gh(H)     -1.948541     2.234535    -1.504709
Gh(O)      1.715914     2.702458    -1.046000
Gh(H)      2.231407     2.871279    -1.844869
Gh(H)      1.155635     1.946575    -1.231334
Gh(O)     -0.734965     0.285092    -3.206055
Gh(H)     -0.613228     0.151032    -2.243593
Gh(H)     -0.192858     1.041459    -3.457951
Gh(O)     -1.691451    -2.961899     0.571525
Gh(H)     -1.220428    -3.805275     0.457431
Gh(H)     -1.045938    -2.256831     0.320946

units ang
no_reorient
no_com
symmetry c1
}

set {
basis        aug-cc-pVTZ
scf_type     df
}

energy("mp2")
--------------------------------------------------------------------------

    Molecular point group: c1

    Geometry (in Angstrom), charge = 0, multiplicity = 1:

       Center              X                  Y                   Z               Mass
    ------------   -----------------  -----------------  -----------------  -----------------
      Gh(CL)          0.000000000000     0.000000000000     0.000000000000    34.968852682000
         O           -3.072186000000    -0.943385000000    -1.151340000000    15.994914619570
         H           -2.109297000000    -0.833410000000    -1.232254000000     1.007825032230
         H           -3.480580000000    -0.069519000000    -1.336406000000     1.007825032230
      Gh(O)          -2.170564000000     2.085398000000    -0.537936000000    15.994914619570
      Gh(H)          -1.492369000000     1.468992000000    -0.217548000000     1.007825032230
      Gh(H)          -1.948541000000     2.234535000000    -1.504709000000     1.007825032230
      Gh(O)           1.715914000000     2.702458000000    -1.046000000000    15.994914619570
      Gh(H)           2.231407000000     2.871279000000    -1.844869000000     1.007825032230
      Gh(H)           1.155635000000     1.946575000000    -1.231334000000     1.007825032230
      Gh(O)          -0.734965000000     0.285092000000    -3.206055000000    15.994914619570
      Gh(H)          -0.613228000000     0.151032000000    -2.243593000000     1.007825032230
      Gh(H)          -0.192858000000     1.041459000000    -3.457951000000     1.007825032230
      Gh(O)          -1.691451000000    -2.961899000000     0.571525000000    15.994914619570
      Gh(H)          -1.220428000000    -3.805275000000     0.457431000000     1.007825032230
      Gh(H)          -1.045938000000    -2.256831000000     0.320946000000     1.007825032230

  Charge       = 0
  Multiplicity = 1
  Basis Set: AUG-CC-PVTZ
    Blend: AUG-CC-PVTZ
  Basis Set: (AUG-CC-PVTZ AUX)
    Blend: AUG-CC-PVTZ-JKFIT

    Orbital Energies [Eh]
    ---------------------

    Doubly Occupied:

       1A    -20.569328     2A     -1.341542     3A     -0.711736
       4A     -0.575841     5A     -0.507872

  @DF-RHF Final Energy:   -76.05849077537344

   => Energetics <=

    Nuclear Repulsion Energy =              8.9996439413120370
    One-Electron Energy =                -122.7036287334631055
    Two-Electron Energy =                  37.6454940167776329
    Total Energy =                        -76.0584907753734285
 Dipole X            :         57.3768725          -57.0080578            0.3688147
 Dipole Y            :         16.6188045          -15.9682028            0.6506017
 Dipole Z            :         22.0837457          -22.2598021           -0.1760564
 Magnitude           :                                                    0.7683116
  Basis Set: (AUG-CC-PVTZ AUX)
    Blend: AUG-CC-PVTZ-RI
	 Reference Energy          =     -76.0584907753734427 [Eh]
	 Singles Energy            =      -0.0000000000000000 [Eh]
	 Same-Spin Energy          =      -0.0687145783958339 [Eh]
	 Opposite-Spin Energy      =      -0.2168947420155913 [Eh]
	 Correlation Energy        =      -0.2856093204114252 [Eh]
	 Total Energy              =     -76.3441000957848672 [Eh]

	 ================> DF-SCS-MP2 Energies <==================
	-----------------------------------------------------------
	 SCS Same-Spin Scale       =       0.3333333333333333 [-]
	 SCS Opposite-Spin Scale   =       1.2000000000000000 [-]
	 SCS Same-Spin Energy      =      -0.0229048594652780 [Eh]
	 SCS Opposite-Spin Energy  =      -0.2602736904187095 [Eh]
	 SCS Correlation Energy    =      -0.2831785498839875 [Eh]
	 SCS Total Energy          =     -76.3416693252574277 [Eh]
	-----------------------------------------------------------

*** Psi4 exiting successfully. Buy a developer a beer!
