                               Psi4 1.8.2 release

  ==> Input File <==

--------------------------------------------------------------------------
MEMORY 60 GB

molecule dimer {
0 1
Gh(Cl)     0.000000     0.000000     0.000000
Gh(O)      0.923800     0.408945    -3.194493
Gh(H)      0.272905    -0.114701    -3.625352
Gh(H)      0.832172     0.185801    -2.298947
Gh(O)     -2.149744     2.054070     0.217609
Gh(H)     -1.403826     1.455993     0.053234
Gh(H)     -2.334377     1.897274     1.183531
Gh(O)     -0.300157    -2.869195     1.420956
Gh(H)     -0.867771    -3.254414     0.744974
Gh(H)      0.097773    -2.075737     1.017545
O          1.448917     0.712721     2.656163
H          1.296456     0.906343     1.730539
H          0.664996     0.886631     3.121181
Gh(O)     -2.509108    -1.248524    -1.805840
Gh(H)     -1.802638    -0.777252    -1.256016
Gh(H)     -2.458071    -2.098524    -1.337245

units ang
no_reorient
no_com
symmetry c1
}

set {
basis        aug-cc-pVTZ
scf_type     df
}

energy("mp2")
--------------------------------------------------------------------------

    Molecular point group: c1

    Geometry (in Angstrom), charge = 0, multiplicity = 1:

       Center              X                  Y                   Z               Mass
    ------------   -----------------  -----------------  -----------------  -----------------
      Gh(CL)          0.000000000000     0.000000000000     0.000000000000    34.968852682000
      Gh(O)           0.923800000000     0.408945000000    -3.194493000000    15.994914619570
      Gh(H)           0.272905000000    -0.114701000000    -3.625352000000     1.007825032230
      Gh(H)           0.832172000000     0.185801000000    -2.298947000000     1.007825032230
      Gh(O)          -2.149744000000     2.054070000000     0.217609000000    15.994914619570
      Gh(H)          -1.403826000000     1.455993000000     0.053234000000     1.007825032230
      Gh(H)          -2.334377000000     1.897274000000     1.183531000000     1.007825032230
      Gh(O)          -0.300157000000    -2.869195000000     1.420956000000    15.994914619570
      Gh(H)          -0.867771000000    -3.254414000000     0.744974000000     1.007825032230
      Gh(H)           0.097773000000    -2.075737000000     1.017545000000     1.007825032230
         O            1.448917000000     0.712721000000     2.656163000000    15.994914619570
         H            1.296456000000     0.906343000000     1.730539000000     1.007825032230
         H            0.664996000000     0.886631000000     3.121181000000     1.007825032230
      Gh(O)          -2.509108000000    -1.248524000000    -1.805840000000    15.994914619570
      Gh(H)          -1.802638000000    -0.777252000000    -1.256016000000     1.007825032230
      Gh(H)          -2.458071000000    -2.098524000000    -1.337245000000     1.007825032230

  Charge       = 0
  Multiplicity = 1
  Basis Set: AUG-CC-PVTZ
    Blend: AUG-CC-PVTZ
  Basis Set: (AUG-CC-PVTZ AUX)
    Blend: AUG-CC-PVTZ-JKFIT

    Orbital Energies [Eh]
    ---------------------

    Doubly Occupied:

       1A    -20.562888     2A     -1.358666     3A     -0.732970
       4A     -0.580384     5A     -0.510532

  @DF-RHF Final Energy:   -76.06065172255410

   => Energetics <=

    Nuclear Repulsion Energy =              9.3283814219515300
    One-Electron Energy =                -123.2871822574608700
    Two-Electron Energy =                  37.8981491129552310
    Total Energy =                        -76.0606517225540983
 Dipole X            :        -26.2486578           25.6110576           -0.6376002
 Dipole Y            :        -13.9132250           14.1630098            0.2497848
 Dipole Z            :        -49.6326084           49.3237870           -0.3088214
 Magnitude           :                                                    0.7511971
  Basis Set: (AUG-CC-PVTZ AUX)
    Blend: AUG-CC-PVTZ-RI
	 Reference Energy          =     -76.0606517225540983 [Eh]
	 Singles Energy            =      -0.0000000000000000 [Eh]
	 Same-Spin Energy          =      -0.0680744202345539 [Eh]
	 Opposite-Spin Energy      =      -0.2146516469650409 [Eh]
	 Correlation Energy        =      -0.2827260671995948 [Eh]
	 Total Energy              =     -76.3433777897536885 [Eh]

	 ================> DF-SCS-MP2 Energies <==================
	-----------------------------------------------------------
	 SCS Same-Spin Scale       =       0.3333333333333333 [-]
	 SCS Opposite-Spin Scale   =       1.2000000000000000 [-]
	 SCS Same-Spin Energy      =      -0.0226914734115180 [Eh]
	 SCS Opposite-Spin Energy  =      -0.2575819763580491 [Eh]
	 SCS Correlation Energy    =      -0.2802734497695670 [Eh]
	 SCS Total Energy          =     -76.3409251723236650 [Eh]
	-----------------------------------------------------------

*** Psi4 exiting successfully. Buy a developer a beer!
