                               Psi4 1.8.2 release

  ==> Input File <==

--------------------------------------------------------------------------
MEMORY 60 GB

molecule dimer {
0 1
Gh(Cl)     0.000000     0.000000     0.000000
O         -0.939928     3.138189    -0.000936
H         -0.820702     2.238321     0.375766
H         -0.712248     3.077225    -0.943590
Gh(O)      1.774428     1.345338    -2.573145
Gh(H)      1.119620     1.302239    -1.824535
Gh(H)      1.660456     2.173050    -2.996113
Gh(O)     -2.265274    -2.324267     0.705293
Gh(H)     -2.834139    -2.738348     0.091603
Gh(H)     -1.824269    -1.638760     0.205252
Gh(O)      0.930253    -0.455464     2.995589
Gh(H)      0.429133     0.276974     3.481595
Gh(H)      0.852726    -0.389826     2.071742

units ang
no_reorient
no_com
symmetry c1
}

set {
basis        aug-cc-pVTZ
scf_type     df
}

energy("mp2")
--------------------------------------------------------------------------

    Molecular point group: c1

    Geometry (in Angstrom), charge = 0, multiplicity = 1:

       Center              X                  Y                   Z               Mass
    ------------   -----------------  -----------------  -----------------  -----------------
      Gh(CL)          0.000000000000     0.000000000000     0.000000000000    34.968852682000
         O           -0.939928000000     3.138189000000    -0.000936000000    15.994914619570
         H           -0.820702000000     2.238321000000     0.375766000000     1.007825032230
         H           -0.712248000000     3.077225000000    -0.943590000000     1.007825032230
      Gh(O)           1.774428000000     1.345338000000    -2.573145000000    15.994914619570
      Gh(H)           1.119620000000     1.302239000000    -1.824535000000     1.007825032230
      Gh(H)           1.660456000000     2.173050000000    -2.996113000000     1.007825032230
      Gh(O)          -2.265274000000    -2.324267000000     0.705293000000    15.994914619570
      Gh(H)          -2.834139000000    -2.738348000000     0.091603000000     1.007825032230
      Gh(H)          -1.824269000000    -1.638760000000     0.205252000000     1.007825032230
      Gh(O)           0.930253000000    -0.455464000000     2.995589000000    15.994914619570
      Gh(H)           0.429133000000     0.276974000000     3.481595000000     1.007825032230
      Gh(H)           0.852726000000    -0.389826000000     2.071742000000     1.007825032230

  Charge       = 0
  Multiplicity = 1
  Basis Set: AUG-CC-PVTZ
    Blend: AUG-CC-PVTZ
  Basis Set: (AUG-CC-PVTZ AUX)
    Blend: AUG-CC-PVTZ-JKFIT

    Orbital Energies [Eh]
    ---------------------

    Doubly Occupied:

       1A    -20.569685     2A     -1.342060     3A     -0.710855
       4A     -0.577004     5A     -0.508083

  @DF-RHF Final Energy:   -76.05848251739339

   => Energetics <=

    Nuclear Repulsion Energy =              9.0020157875636198
    One-Electron Energy =                -122.7056194302813736
    Two-Electron Energy =                  37.6451211253243656
    Total Energy =                        -76.0584825173933865
 Dipole X            :         17.3359919          -17.1065076            0.2294842
 Dipole Y            :        -58.1219915           57.4874681           -0.6345235
 Dipole Z            :          0.7114689           -1.0871821           -0.3757133
 Magnitude           :                                                    0.7722975
  Basis Set: (AUG-CC-PVTZ AUX)
    Blend: AUG-CC-PVTZ-RI
	 Reference Energy          =     -76.0584825173933865 [Eh]
	 Singles Energy            =      -0.0000000000000000 [Eh]
	 Same-Spin Energy          =      -0.0686844524592578 [Eh]
	 Opposite-Spin Energy      =      -0.2165689897814313 [Eh]
	 Correlation Energy        =      -0.2852534422406891 [Eh]
	 Total Energy              =     -76.3437359596340741 [Eh]

	 ================> DF-SCS-MP2 Energies <==================
	-----------------------------------------------------------
	 SCS Same-Spin Scale       =       0.3333333333333333 [-]
	 SCS Opposite-Spin Scale   =       1.2000000000000000 [-]
	 SCS Same-Spin Energy      =      -0.0228948174864193 [Eh]
	 SCS Opposite-Spin Energy  =      -0.2598827877377176 [Eh]
	 SCS Correlation Energy    =      -0.2827776052241368 [Eh]
	 SCS Total Energy          =     -76.3412601226175269 [Eh]
	-----------------------------------------------------------

*** Psi4 exiting successfully. Buy a developer a beer!
