                               Psi4 1.8.2 release

  ==> Input File <==

--------------------------------------------------------------------------
MEMORY 60 GB

molecule dimer {
0 1
Gh(Cl)     0.000000     0.000000     0.000000
Gh(O)     -1.878402    -1.080531     2.342565
Gh(H)     -1.026969    -1.166506     1.772713
Gh(H)     -2.580579    -0.523875     1.890567
Gh(O)      0.502856     0.086028    -3.057688
Gh(H)      1.102609    -0.631082    -3.406849
Gh(H)      0.164913    -0.155801    -2.188960
Gh(O)     -2.049806    -2.242880    -1.432389
Gh(H)     -1.691531    -2.297651    -2.291878
Gh(H)     -1.607052    -1.510032    -1.003034
O          1.381966    -2.850193    -0.519008
H          0.939692    -1.998758    -0.423708
H          2.117352    -2.631893     0.024183

units ang
no_reorient
no_com
symmetry c1
}

set {
basis        aug-cc-pVTZ
scf_type     df
}

energy("mp2")
--------------------------------------------------------------------------

    Molecular point group: c1

    Geometry (in Angstrom), charge = 0, multiplicity = 1:

       Center              X                  Y                   Z               Mass
    ------------   -----------------  -----------------  -----------------  -----------------
      Gh(CL)          0.000000000000     0.000000000000     0.000000000000    34.968852682000
      Gh(O)          -1.878402000000    -1.080531000000     2.342565000000    15.994914619570
      Gh(H)          -1.026969000000    -1.166506000000     1.772713000000     1.007825032230
      Gh(H)          -2.580579000000    -0.523875000000     1.890567000000     1.007825032230
      Gh(O)           0.502856000000     0.086028000000    -3.057688000000    15.994914619570
      Gh(H)           1.102609000000    -0.631082000000    -3.406849000000     1.007825032230
      Gh(H)           0.164913000000    -0.155801000000    -2.188960000000     1.007825032230
      Gh(O)          -2.049806000000    -2.242880000000    -1.432389000000    15.994914619570
      Gh(H)          -1.691531000000    -2.297651000000    -2.291878000000     1.007825032230
      Gh(H)          -1.607052000000    -1.510032000000    -1.003034000000     1.007825032230
         O            1.381966000000    -2.850193000000    -0.519008000000    15.994914619570
         H            0.939692000000    -1.998758000000    -0.423708000000     1.007825032230
         H            2.117352000000    -2.631893000000     0.024183000000     1.007825032230

  Charge       = 0
  Multiplicity = 1
  Basis Set: AUG-CC-PVTZ
    Blend: AUG-CC-PVTZ
  Basis Set: (AUG-CC-PVTZ AUX)
    Blend: AUG-CC-PVTZ-JKFIT

    Orbital Energies [Eh]
    ---------------------

    Doubly Occupied:

       1A    -20.569815     2A     -1.363310     3A     -0.702038
       4A     -0.603672     5A     -0.513298

  @DF-RHF Final Energy:   -76.05773512978740

   => Energetics <=

    Nuclear Repulsion Energy =              9.2698834550745008
    One-Electron Energy =                -123.1509705373950396
    Two-Electron Energy =                  37.8233519525331303
    Total Energy =                        -76.0577351297874031
 Dipole X            :        -26.4741725           26.6692740            0.1951014
 Dipole Y            :         52.5341223          -51.8393356            0.6947867
 Dipole Z            :          9.0189126           -8.6012566            0.4176560
 Magnitude           :                                                    0.8338043
  Basis Set: (AUG-CC-PVTZ AUX)
    Blend: AUG-CC-PVTZ-RI
	 Reference Energy          =     -76.0577351297874031 [Eh]
	 Singles Energy            =      -0.0000000000000000 [Eh]
	 Same-Spin Energy          =      -0.0685692966987673 [Eh]
	 Opposite-Spin Energy      =      -0.2162724973655366 [Eh]
	 Correlation Energy        =      -0.2848417940643039 [Eh]
	 Total Energy              =     -76.3425769238517091 [Eh]

	 ================> DF-SCS-MP2 Energies <==================
	-----------------------------------------------------------
	 SCS Same-Spin Scale       =       0.3333333333333333 [-]
	 SCS Opposite-Spin Scale   =       1.2000000000000000 [-]
	 SCS Same-Spin Energy      =      -0.0228564322329224 [Eh]
	 SCS Opposite-Spin Energy  =      -0.2595269968386439 [Eh]
	 SCS Correlation Energy    =      -0.2823834290715663 [Eh]
	 SCS Total Energy          =     -76.3401185588589755 [Eh]
	-----------------------------------------------------------

*** Psi4 exiting successfully. Buy a developer a beer!
