                               Psi4 1.8.2 release

  ==> Input File <==

--------------------------------------------------------------------------
MEMORY 60 GB

molecule dimer {
0 1
Gh(Cl)     0.000000     0.000000     0.000000
Gh(O)      2.392892    -2.249336     0.528916
Gh(H)      1.674089    -1.706624     0.209313
Gh(H)      2.557296    -2.872549    -0.137894
O          0.444889    -1.472921    -3.121234
H         -0.461387    -1.401078    -3.412750
H          0.507135    -1.039894    -2.245373
Gh(O)     -3.046056    -0.925525     0.944484
Gh(H)     -2.313189    -0.468576     0.501708
Gh(H)     -3.729574    -0.239388     1.075466
Gh(O)      3.113696     1.295050    -0.353510
Gh(H)      2.241301     1.067437     0.024019
Gh(H)      3.028581     1.517922    -1.237394
Gh(O)     -0.067022     3.095066     0.593650
Gh(H)      0.114241     3.470367    -0.335940
Gh(H)     -0.162182     2.157073     0.397022
Gh(O)      0.244648     0.314880     3.296093
Gh(H)      0.874277     1.006974     3.592872
Gh(H)      0.245306     0.331853     2.336846

units ang
no_reorient
no_com
symmetry c1
}

set {
basis        aug-cc-pVTZ
scf_type     df
}

energy("mp2")
--------------------------------------------------------------------------

    Molecular point group: c1

    Geometry (in Angstrom), charge = 0, multiplicity = 1:

       Center              X                  Y                   Z               Mass
    ------------   -----------------  -----------------  -----------------  -----------------
      Gh(CL)          0.000000000000     0.000000000000     0.000000000000    34.968852682000
      Gh(O)           2.392892000000    -2.249336000000     0.528916000000    15.994914619570
      Gh(H)           1.674089000000    -1.706624000000     0.209313000000     1.007825032230
      Gh(H)           2.557296000000    -2.872549000000    -0.137894000000     1.007825032230
         O            0.444889000000    -1.472921000000    -3.121234000000    15.994914619570
         H           -0.461387000000    -1.401078000000    -3.412750000000     1.007825032230
         H            0.507135000000    -1.039894000000    -2.245373000000     1.007825032230
      Gh(O)          -3.046056000000    -0.925525000000     0.944484000000    15.994914619570
      Gh(H)          -2.313189000000    -0.468576000000     0.501708000000     1.007825032230
      Gh(H)          -3.729574000000    -0.239388000000     1.075466000000     1.007825032230
      Gh(O)           3.113696000000     1.295050000000    -0.353510000000    15.994914619570
      Gh(H)           2.241301000000     1.067437000000     0.024019000000     1.007825032230
      Gh(H)           3.028581000000     1.517922000000    -1.237394000000     1.007825032230
      Gh(O)          -0.067022000000     3.095066000000     0.593650000000    15.994914619570
      Gh(H)           0.114241000000     3.470367000000    -0.335940000000     1.007825032230
      Gh(H)          -0.162182000000     2.157073000000     0.397022000000     1.007825032230
      Gh(O)           0.244648000000     0.314880000000     3.296093000000    15.994914619570
      Gh(H)           0.874277000000     1.006974000000     3.592872000000     1.007825032230
      Gh(H)           0.245306000000     0.331853000000     2.336846000000     1.007825032230

  Charge       = 0
  Multiplicity = 1
  Basis Set: AUG-CC-PVTZ
    Blend: AUG-CC-PVTZ
  Basis Set: (AUG-CC-PVTZ AUX)
    Blend: AUG-CC-PVTZ-JKFIT

    Orbital Energies [Eh]
    ---------------------

    Doubly Occupied:

       1A    -20.567491     2A     -1.346712     3A     -0.718117
       4A     -0.577271     5A     -0.508670

  @DF-RHF Final Energy:   -76.05947919799407

   => Energetics <=

    Nuclear Repulsion Energy =              9.0976541881412061
    One-Electron Energy =                -122.8777427234832800
    Two-Electron Energy =                  37.7206093373480087
    Total Energy =                        -76.0594791979940652
 Dipole X            :         -7.3780578            6.8121981           -0.5658597
 Dipole Y            :         27.2164374          -26.8801069            0.3363304
 Dipole Z            :         58.2659283          -57.8785223            0.3874060
 Magnitude           :                                                    0.7638055
  Basis Set: (AUG-CC-PVTZ AUX)
    Blend: AUG-CC-PVTZ-RI
	 Reference Energy          =     -76.0594791979940652 [Eh]
	 Singles Energy            =      -0.0000000000000000 [Eh]
	 Same-Spin Energy          =      -0.0684997375957381 [Eh]
	 Opposite-Spin Energy      =      -0.2161350542716150 [Eh]
	 Correlation Energy        =      -0.2846347918673531 [Eh]
	 Total Energy              =     -76.3441139898614125 [Eh]

	 ================> DF-SCS-MP2 Energies <==================
	-----------------------------------------------------------
	 SCS Same-Spin Scale       =       0.3333333333333333 [-]
	 SCS Opposite-Spin Scale   =       1.2000000000000000 [-]
	 SCS Same-Spin Energy      =      -0.0228332458652460 [Eh]
	 SCS Opposite-Spin Energy  =      -0.2593620651259380 [Eh]
	 SCS Correlation Energy    =      -0.2821953109911840 [Eh]
	 SCS Total Energy          =     -76.3416745089852498 [Eh]
	-----------------------------------------------------------

*** Psi4 exiting successfully. Buy a developer a beer!
