                               Psi4 1.8.2 release

  ==> Input File <==

--------------------------------------------------------------------------
MEMORY 60 GB

molecule dimer {
-1 1
Cl         0.000000     0.000000     0.000000
Gh(O)     -3.036540    -1.130948     0.571455
Gh(H)     -2.816521    -0.349188     0.044649
Gh(H)     -4.001200    -1.116491     0.759985
Gh(O)      2.042900     1.983750     1.557742
Gh(H)      1.377876     1.644053     0.979838
Gh(H)      2.348539     2.811821     1.186573
Gh(O)     -1.201565     2.176958     2.115980
Gh(H)     -0.858161     1.779863     1.307099
Gh(H)     -0.662453     1.807091     2.819899
Gh(O)      0.655515    -1.917276     2.650823
Gh(H)      0.870212    -1.423797     1.789194
Gh(H)     -0.239017    -1.790514     2.917007
Gh(O)     -0.319376     2.472691    -2.034529
Gh(H)     -0.223367     1.847408    -1.233402
Gh(H)     -0.065493     3.291772    -1.721202
Gh(O)      2.365589    -1.192386    -1.524898
Gh(H)      2.063632    -1.946725    -1.022722
Gh(H)      1.713985    -0.498279    -1.350896

units ang
no_reorient
no_com
symmetry c1
}

set {
basis        aug-cc-pVTZ
scf_type     df
}

energy("mp2")
--------------------------------------------------------------------------

    Molecular point group: c1

    Geometry (in Angstrom), charge = -1, multiplicity = 1:

       Center              X                  Y                   Z               Mass
    ------------   -----------------  -----------------  -----------------  -----------------
         CL           0.000000000000     0.000000000000     0.000000000000    34.968852682000
      Gh(O)          -3.036540000000    -1.130948000000     0.571455000000    15.994914619570
      Gh(H)          -2.816521000000    -0.349188000000     0.044649000000     1.007825032230
      Gh(H)          -4.001200000000    -1.116491000000     0.759985000000     1.007825032230
      Gh(O)           2.042900000000     1.983750000000     1.557742000000    15.994914619570
      Gh(H)           1.377876000000     1.644053000000     0.979838000000     1.007825032230
      Gh(H)           2.348539000000     2.811821000000     1.186573000000     1.007825032230
      Gh(O)          -1.201565000000     2.176958000000     2.115980000000    15.994914619570
      Gh(H)          -0.858161000000     1.779863000000     1.307099000000     1.007825032230
      Gh(H)          -0.662453000000     1.807091000000     2.819899000000     1.007825032230
      Gh(O)           0.655515000000    -1.917276000000     2.650823000000    15.994914619570
      Gh(H)           0.870212000000    -1.423797000000     1.789194000000     1.007825032230
      Gh(H)          -0.239017000000    -1.790514000000     2.917007000000     1.007825032230
      Gh(O)          -0.319376000000     2.472691000000    -2.034529000000    15.994914619570
      Gh(H)          -0.223367000000     1.847408000000    -1.233402000000     1.007825032230
      Gh(H)          -0.065493000000     3.291772000000    -1.721202000000     1.007825032230
      Gh(O)           2.365589000000    -1.192386000000    -1.524898000000    15.994914619570
      Gh(H)           2.063632000000    -1.946725000000    -1.022722000000     1.007825032230
      Gh(H)           1.713985000000    -0.498279000000    -1.350896000000     1.007825032230

  Charge       = -1
  Multiplicity = 1
  Basis Set: AUG-CC-PVTZ
    Blend: AUG-CC-PVTZ
  Basis Set: (AUG-CC-PVTZ AUX)
    Blend: AUG-CC-PVTZ-JKFIT

    Orbital Energies [Eh]
    ---------------------

    Doubly Occupied:

       1A   -104.507378     2A    -10.230085     3A     -7.696149
       4A     -7.696146     5A     -7.696137     6A     -0.733458
       7A     -0.150303     8A     -0.150301     9A     -0.150297

  @DF-RHF Final Energy:  -459.57359196723678

   => Energetics <=

    Nuclear Repulsion Energy =              0.0000000000000000
    One-Electron Energy =                -641.1266848498938771
    Two-Electron Energy =                 181.5530928826570971
    Total Energy =                       -459.5735919672367800
 Dipole X            :          0.0000500            0.0000000            0.0000500
 Dipole Y            :          0.0000802            0.0000000            0.0000802
 Dipole Z            :          0.0000825            0.0000000            0.0000825
 Magnitude           :                                                    0.0001254
  Basis Set: (AUG-CC-PVTZ AUX)
    Blend: AUG-CC-PVTZ-RI
	 Reference Energy          =    -459.5735919672367800 [Eh]
	 Singles Energy            =      -0.0000000000000000 [Eh]
	 Same-Spin Energy          =      -0.0636864683936719 [Eh]
	 Opposite-Spin Energy      =      -0.1843873786139659 [Eh]
	 Correlation Energy        =      -0.2480738470076378 [Eh]
	 Total Energy              =    -459.8216658142443976 [Eh]

	 ================> DF-SCS-MP2 Energies <==================
	-----------------------------------------------------------
	 SCS Same-Spin Scale       =       0.3333333333333333 [-]
	 SCS Opposite-Spin Scale   =       1.2000000000000000 [-]
	 SCS Same-Spin Energy      =      -0.0212288227978906 [Eh]
	 SCS Opposite-Spin Energy  =      -0.2212648543367591 [Eh]
	 SCS Correlation Energy    =      -0.2424936771346497 [Eh]
	 SCS Total Energy          =    -459.8160856443714124 [Eh]
	-----------------------------------------------------------

*** Psi4 exiting successfully. Buy a developer a beer!
