                               Psi4 1.8.2 release

  ==> Input File <==

--------------------------------------------------------------------------
MEMORY 60 GB

molecule dimer {
0 1
Gh(Cl)     0.000000     0.000000     0.000000
Gh(O)     -1.308514    -3.021033     0.224570
Gh(H)     -0.936905    -2.106332     0.230301
Gh(H)     -1.583115    -3.224008    -0.634500
Gh(O)      2.034987    -2.736438     0.261525
Gh(H)      1.926419    -3.209727     1.152196
Gh(H)      1.340897    -2.074538     0.255592
Gh(O)      2.614152     1.974738    -1.057657
Gh(H)      2.604676     1.369411    -0.325218
Gh(H)      3.499309     2.340070    -1.031330
O         -0.443471     1.169568    -3.144304
H         -0.589228     0.505431    -2.398513
H         -0.814852     0.803347    -3.980457
Gh(O)      3.188344    -0.067036     1.347838
Gh(H)      3.603647     0.506360     1.946832
Gh(H)      2.585837    -0.642943     1.833742
Gh(O)      0.074816    -0.986092     3.001192
Gh(H)     -0.185721    -0.495387     2.211357
Gh(H)     -0.346700    -0.687598     3.778177
Gh(O)     -3.028136    -0.051263     0.795317
Gh(H)     -3.215716     0.852168     1.057333
Gh(H)     -2.058031    -0.146230     0.730970

units ang
no_reorient
no_com
symmetry c1
}

set {
basis        aug-cc-pVTZ
scf_type     df
}

energy("mp2")
--------------------------------------------------------------------------

    Molecular point group: c1

    Geometry (in Angstrom), charge = 0, multiplicity = 1:

       Center              X                  Y                   Z               Mass
    ------------   -----------------  -----------------  -----------------  -----------------
      Gh(CL)          0.000000000000     0.000000000000     0.000000000000    34.968852682000
      Gh(O)          -1.308514000000    -3.021033000000     0.224570000000    15.994914619570
      Gh(H)          -0.936905000000    -2.106332000000     0.230301000000     1.007825032230
      Gh(H)          -1.583115000000    -3.224008000000    -0.634500000000     1.007825032230
      Gh(O)           2.034987000000    -2.736438000000     0.261525000000    15.994914619570
      Gh(H)           1.926419000000    -3.209727000000     1.152196000000     1.007825032230
      Gh(H)           1.340897000000    -2.074538000000     0.255592000000     1.007825032230
      Gh(O)           2.614152000000     1.974738000000    -1.057657000000    15.994914619570
      Gh(H)           2.604676000000     1.369411000000    -0.325218000000     1.007825032230
      Gh(H)           3.499309000000     2.340070000000    -1.031330000000     1.007825032230
         O           -0.443471000000     1.169568000000    -3.144304000000    15.994914619570
         H           -0.589228000000     0.505431000000    -2.398513000000     1.007825032230
         H           -0.814852000000     0.803347000000    -3.980457000000     1.007825032230
      Gh(O)           3.188344000000    -0.067036000000     1.347838000000    15.994914619570
      Gh(H)           3.603647000000     0.506360000000     1.946832000000     1.007825032230
      Gh(H)           2.585837000000    -0.642943000000     1.833742000000     1.007825032230
      Gh(O)           0.074816000000    -0.986092000000     3.001192000000    15.994914619570
      Gh(H)          -0.185721000000    -0.495387000000     2.211357000000     1.007825032230
      Gh(H)          -0.346700000000    -0.687598000000     3.778177000000     1.007825032230
      Gh(O)          -3.028136000000    -0.051263000000     0.795317000000    15.994914619570
      Gh(H)          -3.215716000000     0.852168000000     1.057333000000     1.007825032230
      Gh(H)          -2.058031000000    -0.146230000000     0.730970000000     1.007825032230

  Charge       = 0
  Multiplicity = 1
  Basis Set: AUG-CC-PVTZ
    Blend: AUG-CC-PVTZ
  Basis Set: (AUG-CC-PVTZ AUX)
    Blend: AUG-CC-PVTZ-JKFIT

    Orbital Energies [Eh]
    ---------------------

    Doubly Occupied:

       1A    -20.571782     2A     -1.330937     3A     -0.704460
       4A     -0.568354     5A     -0.505725

  @DF-RHF Final Energy:   -76.05432411712997

   => Energetics <=

    Nuclear Repulsion Energy =              8.8160299524655059
    One-Electron Energy =                -122.3781880588346240
    Two-Electron Energy =                  37.5078339892391384
    Total Energy =                        -76.0543241171299655
 Dipole X            :          9.0165103           -9.3576365           -0.3411262
 Dipole Y            :        -20.8324692           20.1545376           -0.6779316
 Dipole Z            :         59.5265914          -59.5894936           -0.0629022
 Magnitude           :                                                    0.7615215
  Basis Set: (AUG-CC-PVTZ AUX)
    Blend: AUG-CC-PVTZ-RI
	 Reference Energy          =     -76.0543241171299655 [Eh]
	 Singles Energy            =      -0.0000000000000000 [Eh]
	 Same-Spin Energy          =      -0.0690014939263131 [Eh]
	 Opposite-Spin Energy      =      -0.2174526710113616 [Eh]
	 Correlation Energy        =      -0.2864541649376746 [Eh]
	 Total Energy              =     -76.3407782820676459 [Eh]

	 ================> DF-SCS-MP2 Energies <==================
	-----------------------------------------------------------
	 SCS Same-Spin Scale       =       0.3333333333333333 [-]
	 SCS Opposite-Spin Scale   =       1.2000000000000000 [-]
	 SCS Same-Spin Energy      =      -0.0230004979754377 [Eh]
	 SCS Opposite-Spin Energy  =      -0.2609432052136338 [Eh]
	 SCS Correlation Energy    =      -0.2839437031890715 [Eh]
	 SCS Total Energy          =     -76.3382678203190324 [Eh]
	-----------------------------------------------------------

*** Psi4 exiting successfully. Buy a developer a beer!
