                               Psi4 1.8.2 release

  ==> Input File <==

--------------------------------------------------------------------------
MEMORY 60 GB

molecule dimer {
0 1
Gh(Cl)     0.000000     0.000000     0.000000
Gh(O)      1.204895    -0.292806     3.103745
Gh(H)      0.858812    -0.438415     2.264549
Gh(H)      0.985701    -1.004115     3.659773
Gh(O)      0.789525    -2.891032     1.505917
Gh(H)     -0.080665    -2.757418     1.853570
Gh(H)      0.819466    -2.343279     0.748618
Gh(O)     -0.872242     2.463895     1.602122
Gh(H)     -1.313491     2.263765     2.460438
Gh(H)     -0.729683     1.568483     1.276229
O          1.378925     2.839395    -1.431688
H          2.181119     3.120693    -1.891219
H          1.599881     2.296982    -0.701732
Gh(O)     -0.356147    -2.668445    -1.634404
Gh(H)      0.502565    -3.070606    -1.479224
Gh(H)     -0.391807    -1.750591    -1.299217
Gh(O)     -0.586778     0.539437    -3.392799
Gh(H)     -0.357652     0.715562    -2.504387
Gh(H)     -1.194776    -0.217509    -3.459535
Gh(O)     -2.873076    -0.935610     0.706102
Gh(H)     -2.054198    -0.673415     0.344225
Gh(H)     -3.477967    -0.300884     1.099128

units ang
no_reorient
no_com
symmetry c1
}

set {
basis        aug-cc-pVTZ
scf_type     df
}

energy("mp2")
--------------------------------------------------------------------------

    Molecular point group: c1

    Geometry (in Angstrom), charge = 0, multiplicity = 1:

       Center              X                  Y                   Z               Mass
    ------------   -----------------  -----------------  -----------------  -----------------
      Gh(CL)          0.000000000000     0.000000000000     0.000000000000    34.968852682000
      Gh(O)           1.204895000000    -0.292806000000     3.103745000000    15.994914619570
      Gh(H)           0.858812000000    -0.438415000000     2.264549000000     1.007825032230
      Gh(H)           0.985701000000    -1.004115000000     3.659773000000     1.007825032230
      Gh(O)           0.789525000000    -2.891032000000     1.505917000000    15.994914619570
      Gh(H)          -0.080665000000    -2.757418000000     1.853570000000     1.007825032230
      Gh(H)           0.819466000000    -2.343279000000     0.748618000000     1.007825032230
      Gh(O)          -0.872242000000     2.463895000000     1.602122000000    15.994914619570
      Gh(H)          -1.313491000000     2.263765000000     2.460438000000     1.007825032230
      Gh(H)          -0.729683000000     1.568483000000     1.276229000000     1.007825032230
         O            1.378925000000     2.839395000000    -1.431688000000    15.994914619570
         H            2.181119000000     3.120693000000    -1.891219000000     1.007825032230
         H            1.599881000000     2.296982000000    -0.701732000000     1.007825032230
      Gh(O)          -0.356147000000    -2.668445000000    -1.634404000000    15.994914619570
      Gh(H)           0.502565000000    -3.070606000000    -1.479224000000     1.007825032230
      Gh(H)          -0.391807000000    -1.750591000000    -1.299217000000     1.007825032230
      Gh(O)          -0.586778000000     0.539437000000    -3.392799000000    15.994914619570
      Gh(H)          -0.357652000000     0.715562000000    -2.504387000000     1.007825032230
      Gh(H)          -1.194776000000    -0.217509000000    -3.459535000000     1.007825032230
      Gh(O)          -2.873076000000    -0.935610000000     0.706102000000    15.994914619570
      Gh(H)          -2.054198000000    -0.673415000000     0.344225000000     1.007825032230
      Gh(H)          -3.477967000000    -0.300884000000     1.099128000000     1.007825032230

  Charge       = 0
  Multiplicity = 1
  Basis Set: AUG-CC-PVTZ
    Blend: AUG-CC-PVTZ
  Basis Set: (AUG-CC-PVTZ AUX)
    Blend: AUG-CC-PVTZ-JKFIT

    Orbital Energies [Eh]
    ---------------------

    Doubly Occupied:

       1A    -20.563467     2A     -1.353009     3A     -0.731813
       4A     -0.575119     5A     -0.509236

  @DF-RHF Final Energy:   -76.06011083280208

   => Energetics <=

    Nuclear Repulsion Energy =              9.2437292855660633
    One-Electron Energy =                -123.1423882725878940
    Two-Electron Energy =                  37.8385481542197368
    Total Energy =                        -76.0601108328020956
 Dipole X            :        -27.2974199           27.9913793            0.6939594
 Dipole Y            :        -53.3429643           53.1633533           -0.1796110
 Dipole Z            :         26.7315396          -26.5439530            0.1875866
 Magnitude           :                                                    0.7409646
  Basis Set: (AUG-CC-PVTZ AUX)
    Blend: AUG-CC-PVTZ-RI
	 Reference Energy          =     -76.0601108328020814 [Eh]
	 Singles Energy            =      -0.0000000000000000 [Eh]
	 Same-Spin Energy          =      -0.0682007599226172 [Eh]
	 Opposite-Spin Energy      =      -0.2149886728757015 [Eh]
	 Correlation Energy        =      -0.2831894327983188 [Eh]
	 Total Energy              =     -76.3433002656004049 [Eh]

	 ================> DF-SCS-MP2 Energies <==================
	-----------------------------------------------------------
	 SCS Same-Spin Scale       =       0.3333333333333333 [-]
	 SCS Opposite-Spin Scale   =       1.2000000000000000 [-]
	 SCS Same-Spin Energy      =      -0.0227335866408724 [Eh]
	 SCS Opposite-Spin Energy  =      -0.2579864074508418 [Eh]
	 SCS Correlation Energy    =      -0.2807199940917142 [Eh]
	 SCS Total Energy          =     -76.3408308268937930 [Eh]
	-----------------------------------------------------------

*** Psi4 exiting successfully. Buy a developer a beer!
