                               Psi4 1.8.2 release

  ==> Input File <==

--------------------------------------------------------------------------
MEMORY 60 GB

molecule dimer {
-1 1
Cl         0.000000     0.000000     0.000000
O          2.229770     1.789189     1.621983
H          1.631070     1.514205     0.937078
H          3.095321     1.957227     1.201820
O         -0.849762    -1.714934    -2.358862
H         -0.445959    -1.021397    -2.934249
H         -1.069056    -1.384646    -1.506905
O         -0.610764     3.422499    -0.224439
H         -0.451227     2.515491    -0.613530
H          0.104167     4.032667    -0.497019
O         -3.173880     0.131157     1.037539
H         -2.298199     0.065462     0.589628
H         -2.996396     0.503443     1.848118

units ang
no_reorient
no_com
symmetry c1
}

set {
basis        aug-cc-pVTZ
scf_type     df
}

energy("mp2")
--------------------------------------------------------------------------

    Molecular point group: c1

    Geometry (in Angstrom), charge = -1, multiplicity = 1:

       Center              X                  Y                   Z               Mass
    ------------   -----------------  -----------------  -----------------  -----------------
         CL           0.000000000000     0.000000000000     0.000000000000    34.968852682000
         O            2.229770000000     1.789189000000     1.621983000000    15.994914619570
         H            1.631070000000     1.514205000000     0.937078000000     1.007825032230
         H            3.095321000000     1.957227000000     1.201820000000     1.007825032230
         O           -0.849762000000    -1.714934000000    -2.358862000000    15.994914619570
         H           -0.445959000000    -1.021397000000    -2.934249000000     1.007825032230
         H           -1.069056000000    -1.384646000000    -1.506905000000     1.007825032230
         O           -0.610764000000     3.422499000000    -0.224439000000    15.994914619570
         H           -0.451227000000     2.515491000000    -0.613530000000     1.007825032230
         H            0.104167000000     4.032667000000    -0.497019000000     1.007825032230
         O           -3.173880000000     0.131157000000     1.037539000000    15.994914619570
         H           -2.298199000000     0.065462000000     0.589628000000     1.007825032230
         H           -2.996396000000     0.503443000000     1.848118000000     1.007825032230

  Charge       = -1
  Multiplicity = 1
  Basis Set: AUG-CC-PVTZ
    Blend: AUG-CC-PVTZ
  Basis Set: (AUG-CC-PVTZ AUX)
    Blend: AUG-CC-PVTZ-JKFIT

    Orbital Energies [Eh]
    ---------------------

    Doubly Occupied:

       1A   -104.570427     2A    -20.431019     3A    -20.419022
       4A    -20.402727     5A    -20.401261     6A    -10.295511
       7A     -7.761637     8A     -7.761564     9A     -7.761528
      10A     -1.202293    11A     -1.201145    12A     -1.196987
      13A     -1.185427    14A     -0.811621    15A     -0.574804
      16A     -0.572301    17A     -0.569587    18A     -0.566660
      19A     -0.435914    20A     -0.432584    21A     -0.431831
      22A     -0.415718    23A     -0.371136    24A     -0.362029
      25A     -0.353601    26A     -0.349511    27A     -0.227949
      28A     -0.222796    29A     -0.219876

  @DF-RHF Final Energy:  -763.85124929480560

   => Energetics <=

    Nuclear Repulsion Energy =            215.6518597021793369
    One-Electron Energy =               -1495.9892828540544087
    Two-Electron Energy =                 516.4861738570695024
    Total Energy =                       -763.8512492948055979
 Dipole X            :         42.7694984          -40.9453895            1.8241090
 Dipole Y            :        -70.0435875           70.3086589            0.2650714
 Dipole Z            :          0.0884518           -0.6902999           -0.6018481
 Magnitude           :                                                    1.9390352
  Basis Set: (AUG-CC-PVTZ AUX)
    Blend: AUG-CC-PVTZ-RI
	 Reference Energy          =    -763.8512492948055979 [Eh]
	 Singles Energy            =      -0.0000000000000000 [Eh]
	 Same-Spin Energy          =      -0.3443987272804448 [Eh]
	 Opposite-Spin Energy      =      -1.0517577455962897 [Eh]
	 Correlation Energy        =      -1.3961564728767344 [Eh]
	 Total Energy              =    -765.2474057676823804 [Eh]

	 ================> DF-SCS-MP2 Energies <==================
	-----------------------------------------------------------
	 SCS Same-Spin Scale       =       0.3333333333333333 [-]
	 SCS Opposite-Spin Scale   =       1.2000000000000000 [-]
	 SCS Same-Spin Energy      =      -0.1147995757601483 [Eh]
	 SCS Opposite-Spin Energy  =      -1.2621092947155474 [Eh]
	 SCS Correlation Energy    =      -1.3769088704756958 [Eh]
	 SCS Total Energy          =    -765.2281581652813429 [Eh]
	-----------------------------------------------------------

*** Psi4 exiting successfully. Buy a developer a beer!
