                               Psi4 1.8.2 release

  ==> Input File <==

--------------------------------------------------------------------------
MEMORY 60 GB

molecule dimer {
-1 1
Cl         0.000000     0.000000     0.000000
O          1.697875     2.812156    -0.064854
H          1.661557     3.150216     0.885145
H          1.369173     1.911949    -0.005570
O          2.612789    -0.037192     1.821798
H          1.866734    -0.055376     1.210788
H          3.305740     0.353047     1.299827
O         -0.939614    -2.784060    -1.739328
H         -1.213754    -3.715577    -1.660327
H         -0.254384    -2.702145    -1.078967
O         -0.798589     1.117862     3.058410
H         -0.409022     0.795271     3.907486
H         -0.301269     0.718251     2.313142
O         -3.076715     0.941408     0.114922
H         -2.926424     0.271835    -0.596134
H         -2.124851     1.261653     0.395401

units ang
no_reorient
no_com
symmetry c1
}

set {
basis        aug-cc-pVTZ
scf_type     df
}

energy("mp2")
--------------------------------------------------------------------------

    Molecular point group: c1

    Geometry (in Angstrom), charge = -1, multiplicity = 1:

       Center              X                  Y                   Z               Mass
    ------------   -----------------  -----------------  -----------------  -----------------
         CL           0.000000000000     0.000000000000     0.000000000000    34.968852682000
         O            1.697875000000     2.812156000000    -0.064854000000    15.994914619570
         H            1.661557000000     3.150216000000     0.885145000000     1.007825032230
         H            1.369173000000     1.911949000000    -0.005570000000     1.007825032230
         O            2.612789000000    -0.037192000000     1.821798000000    15.994914619570
         H            1.866734000000    -0.055376000000     1.210788000000     1.007825032230
         H            3.305740000000     0.353047000000     1.299827000000     1.007825032230
         O           -0.939614000000    -2.784060000000    -1.739328000000    15.994914619570
         H           -1.213754000000    -3.715577000000    -1.660327000000     1.007825032230
         H           -0.254384000000    -2.702145000000    -1.078967000000     1.007825032230
         O           -0.798589000000     1.117862000000     3.058410000000    15.994914619570
         H           -0.409022000000     0.795271000000     3.907486000000     1.007825032230
         H           -0.301269000000     0.718251000000     2.313142000000     1.007825032230
         O           -3.076715000000     0.941408000000     0.114922000000    15.994914619570
         H           -2.926424000000     0.271835000000    -0.596134000000     1.007825032230
         H           -2.124851000000     1.261653000000     0.395401000000     1.007825032230

  Charge       = -1
  Multiplicity = 1
  Basis Set: AUG-CC-PVTZ
    Blend: AUG-CC-PVTZ
  Basis Set: (AUG-CC-PVTZ AUX)
    Blend: AUG-CC-PVTZ-JKFIT

    Orbital Energies [Eh]
    ---------------------

    Doubly Occupied:

       1A   -104.580525     2A    -20.447204     3A    -20.422701
       4A    -20.421333     5A    -20.418703     6A    -20.405292
       7A    -10.305697     8A     -7.771797     9A     -7.771756
      10A     -7.771710    11A     -1.228747    12A     -1.210190
      13A     -1.193004    14A     -1.192257    15A     -1.158281
      16A     -0.823864    17A     -0.588576    18A     -0.572211
      19A     -0.566150    20A     -0.556289    21A     -0.522200
      22A     -0.464404    23A     -0.450220    24A     -0.436451
      25A     -0.429661    26A     -0.411737    27A     -0.388518
      28A     -0.369193    29A     -0.363063    30A     -0.359681
      31A     -0.339399    32A     -0.237060    33A     -0.233995
      34A     -0.232921

  @DF-RHF Final Energy:  -839.91254988161359

   => Energetics <=

    Nuclear Repulsion Energy =            298.7038844303708061
    One-Electron Energy =               -1767.9432794857043518
    Two-Electron Energy =                 629.3268451737199030
    Total Energy =                       -839.9125498816135860
 Dipole X            :          6.8405220           -5.7835673            1.0569547
 Dipole Y            :        -36.4827040           34.7530385           -1.7296654
 Dipole Z            :        -61.1528169           60.8461104           -0.3067064
 Magnitude           :                                                    2.0501133
  Basis Set: (AUG-CC-PVTZ AUX)
    Blend: AUG-CC-PVTZ-RI
	 Reference Energy          =    -839.9125498816135860 [Eh]
	 Singles Energy            =      -0.0000000000000000 [Eh]
	 Same-Spin Energy          =      -0.4170934490554013 [Eh]
	 Opposite-Spin Energy      =      -1.2758377412570956 [Eh]
	 Correlation Energy        =      -1.6929311903124968 [Eh]
	 Total Energy              =    -841.6054810719260786 [Eh]

	 ================> DF-SCS-MP2 Energies <==================
	-----------------------------------------------------------
	 SCS Same-Spin Scale       =       0.3333333333333333 [-]
	 SCS Opposite-Spin Scale   =       1.2000000000000000 [-]
	 SCS Same-Spin Energy      =      -0.1390311496851337 [Eh]
	 SCS Opposite-Spin Energy  =      -1.5310052895085147 [Eh]
	 SCS Correlation Energy    =      -1.6700364391936484 [Eh]
	 SCS Total Energy          =    -841.5825863208071951 [Eh]
	-----------------------------------------------------------

*** Psi4 exiting successfully. Buy a developer a beer!
