                               Psi4 1.8.2 release

  ==> Input File <==

--------------------------------------------------------------------------
MEMORY 60 GB

molecule dimer {
0 1
Gh(Cl)     0.000000     0.000000     0.000000
Gh(O)     -0.853615    -3.073938     0.001422
Gh(H)     -0.700047    -2.131269     0.018283
Gh(H)     -0.736767    -3.342697     0.936492
Gh(O)     -1.861729    -0.237708    -2.894943
Gh(H)     -2.044505     0.088802    -2.038781
Gh(H)     -0.909613    -0.441097    -2.789066
Gh(O)      1.901996    -2.555862     1.121538
Gh(H)      1.181856    -3.161835     1.015908
Gh(H)      1.568338    -1.739261     0.697667
Gh(O)     -0.317986     0.148115     3.343688
Gh(H)      0.298703    -0.298440     3.876186
Gh(H)     -0.036324     0.020454     2.421803
O         -2.717002     0.216750     1.453755
H         -2.702718    -0.603026     1.933237
H         -1.809585     0.403824     1.178356

units ang
no_reorient
no_com
symmetry c1
}

set {
basis        aug-cc-pVTZ
scf_type     df
}

energy("mp2")
--------------------------------------------------------------------------

    Molecular point group: c1

    Geometry (in Angstrom), charge = 0, multiplicity = 1:

       Center              X                  Y                   Z               Mass
    ------------   -----------------  -----------------  -----------------  -----------------
      Gh(CL)          0.000000000000     0.000000000000     0.000000000000    34.968852682000
      Gh(O)          -0.853615000000    -3.073938000000     0.001422000000    15.994914619570
      Gh(H)          -0.700047000000    -2.131269000000     0.018283000000     1.007825032230
      Gh(H)          -0.736767000000    -3.342697000000     0.936492000000     1.007825032230
      Gh(O)          -1.861729000000    -0.237708000000    -2.894943000000    15.994914619570
      Gh(H)          -2.044505000000     0.088802000000    -2.038781000000     1.007825032230
      Gh(H)          -0.909613000000    -0.441097000000    -2.789066000000     1.007825032230
      Gh(O)           1.901996000000    -2.555862000000     1.121538000000    15.994914619570
      Gh(H)           1.181856000000    -3.161835000000     1.015908000000     1.007825032230
      Gh(H)           1.568338000000    -1.739261000000     0.697667000000     1.007825032230
      Gh(O)          -0.317986000000     0.148115000000     3.343688000000    15.994914619570
      Gh(H)           0.298703000000    -0.298440000000     3.876186000000     1.007825032230
      Gh(H)          -0.036324000000     0.020454000000     2.421803000000     1.007825032230
         O           -2.717002000000     0.216750000000     1.453755000000    15.994914619570
         H           -2.702718000000    -0.603026000000     1.933237000000     1.007825032230
         H           -1.809585000000     0.403824000000     1.178356000000     1.007825032230

  Charge       = 0
  Multiplicity = 1
  Basis Set: AUG-CC-PVTZ
    Blend: AUG-CC-PVTZ
  Basis Set: (AUG-CC-PVTZ AUX)
    Blend: AUG-CC-PVTZ-JKFIT

    Orbital Energies [Eh]
    ---------------------

    Doubly Occupied:

       1A    -20.565998     2A     -1.351140     3A     -0.722499
       4A     -0.579300     5A     -0.509442

  @DF-RHF Final Energy:   -76.06047367919734

   => Energetics <=

    Nuclear Repulsion Energy =              9.1799020036068892
    One-Electron Energy =                -123.0239907687700338
    Two-Electron Energy =                  37.7836150859658133
    Total Energy =                        -76.0604736791973437
 Dipole X            :         50.2187068          -49.6021342            0.6165727
 Dipole Y            :         -3.3259770            2.9003479           -0.4256291
 Dipole Z            :        -27.7195094           27.8576490            0.1381396
 Magnitude           :                                                    0.7618428
  Basis Set: (AUG-CC-PVTZ AUX)
    Blend: AUG-CC-PVTZ-RI
	 Reference Energy          =     -76.0604736791973437 [Eh]
	 Singles Energy            =      -0.0000000000000000 [Eh]
	 Same-Spin Energy          =      -0.0683773380050726 [Eh]
	 Opposite-Spin Energy      =      -0.2158551431749834 [Eh]
	 Correlation Energy        =      -0.2842324811800560 [Eh]
	 Total Energy              =     -76.3447061603773989 [Eh]

	 ================> DF-SCS-MP2 Energies <==================
	-----------------------------------------------------------
	 SCS Same-Spin Scale       =       0.3333333333333333 [-]
	 SCS Opposite-Spin Scale   =       1.2000000000000000 [-]
	 SCS Same-Spin Energy      =      -0.0227924460016909 [Eh]
	 SCS Opposite-Spin Energy  =      -0.2590261718099801 [Eh]
	 SCS Correlation Energy    =      -0.2818186178116709 [Eh]
	 SCS Total Energy          =     -76.3422922970090099 [Eh]
	-----------------------------------------------------------

*** Psi4 exiting successfully. Buy a developer a beer!
