                               Psi4 1.9 release

  ==> Input File <==

--------------------------------------------------------------------------
MEMORY 60 GB

molecule dimer {
-1 1
Cl     0.000000     0.000000     0.000000
--
0 1
O     -2.143902     2.687894     0.369827
H     -1.751923     1.916157    -0.042508
H     -1.445437     3.008980     0.964821
O      1.417822     2.683757    -0.963726
H      1.031224     1.892839    -0.638075
H      2.176857     2.933195    -0.408350
O      2.157044    -1.948549     1.619987
H      1.520347    -1.260861     1.273406
H      3.039464    -1.804037     1.249342
O      0.806693     1.251237     2.760041
H      1.460046     1.848920     2.529623
H      0.603623     0.876975     1.911660
O     -0.281475     0.477673    -3.053473
H     -0.340130     0.334391    -2.127821
H      0.648817     0.768530    -3.252626
O      2.027069    -1.802246    -1.829283
H      1.495188    -2.466996    -2.164289
H      1.704265    -1.376629    -1.005788

units ang
no_reorient
no_com
symmetry c1
}

set {
basis        aug-cc-pVTZ
scf_type     df
}

energy("mp2", bsse_type="cp")
--------------------------------------------------------------------------

                               Psi4 1.9 release
    Molecular point group: c1
  Charge       = 0
  Multiplicity = 1
  Basis Set: AUG-CC-PVTZ
    Blend: AUG-CC-PVTZ
  Basis Set: (AUG-CC-PVTZ AUX)
    Blend: AUG-CC-PVTZ-JKFIT
  @DF-RHF Final Energy:  -456.33282957422512
    Total Energy =                       -456.3328295742251157
 Dipole X            :        -77.8690230           79.3842746            1.5152516
 Dipole Y            :        -63.2659295           63.2483624           -0.0175671
 Dipole Z            :         20.1473206          -19.8111725            0.3361481
 Magnitude           :                                                    1.5521893
  Basis Set: (AUG-CC-PVTZ AUX)
    Blend: AUG-CC-PVTZ-RI
	 Reference Energy          =    -456.3328295742251157 [Eh]
	 Singles Energy            =      -0.0000000000000000 [Eh]
	 Same-Spin Energy          =      -0.4130824067973207 [Eh]
	 Opposite-Spin Energy      =      -1.2993290652896008 [Eh]
	 Correlation Energy        =      -1.7124114720869215 [Eh]
	 Total Energy              =    -458.0452410463120145 [Eh]
	 SCS Total Energy          =    -458.0297185881717610 [Eh]
                               Psi4 1.9 release
    Molecular point group: c1
  Multiplicity = 1
  Basis Set: AUG-CC-PVTZ
    Blend: AUG-CC-PVTZ
  Basis Set: (AUG-CC-PVTZ AUX)
    Blend: AUG-CC-PVTZ-JKFIT
  @DF-RHF Final Energy:  -459.57359558270889
    Total Energy =                       -459.5735955827088901
  Basis Set: (AUG-CC-PVTZ AUX)
	 Singles Energy            =      -0.0000000000000000 [Eh]
	 Same-Spin Energy          =      -0.0638089775802196 [Eh]
	 Opposite-Spin Energy      =      -0.1849921112737686 [Eh]
	 Correlation Energy        =      -0.2488010888539882 [Eh]
	 Total Energy              =    -459.8223966715628990 [Eh]
	 SCS Total Energy          =    -459.8168557754308381 [Eh]
                               Psi4 1.9 release
    Molecular point group: c1

    Geometry (in Bohr), charge = -1, multiplicity = 1:

       Center              X                  Y                   Z               Mass
    ------------   -----------------  -----------------  -----------------  -----------------
         CL           0.000000000000     0.000000000000     0.000000000000    34.968852682000
         O           -4.051387619821     5.079383514261     0.698871743800    15.994914619570
         H           -3.310654662890     3.621011943379    -0.080328478141     1.007825032230
         H           -2.731480061603     5.686148116980     1.823247450090     1.007825032230
         O            2.679295274649     5.071565717280    -1.821178199983    15.994914619570
         H            1.948730933999     3.576947309585    -1.205786997502     1.007825032230
         H            4.113663544286     5.542935222562    -0.771669663331     1.007825032230
         O            4.076222400562    -3.682223952035     3.061331756802    15.994914619570
         H            2.873039445661    -2.382681972271     2.406388586515     1.007825032230
         H            5.743754528189    -3.409135850193     2.360914217032     1.007825032230
         O            1.524428837324     2.364495248039     5.215721585035    15.994914619570
         H            2.759087070570     3.493952427881     4.780294670659     1.007825032230
         H            1.140682153027     1.657242568873     3.612513844993     1.007825032230
         O           -0.531910661163     0.902671147526    -5.770227701480    15.994914619570
         H           -0.642752547052     0.631907408818    -4.020998933998     1.007825032230
         H            1.226086435541     1.452311219198    -6.146572328543     1.007825032230
         O            3.830605247406    -3.405751350702    -3.456843875956    15.994914619570
         H            2.825495826071    -4.661946792600    -4.089913466341     1.007825032230
         H            3.220594095203    -2.601451786363    -1.900663860272     1.007825032230

  Charge       = -1
  Multiplicity = 1
  Basis Set: AUG-CC-PVTZ
    Blend: AUG-CC-PVTZ
  Basis Set: (AUG-CC-PVTZ AUX)
    Blend: AUG-CC-PVTZ-JKFIT

    Orbital Energies [Eh]
    ---------------------

    Doubly Occupied:

       1A   -104.616646     2A    -20.434790     3A    -20.433058
       4A    -20.426160     5A    -20.425868     6A    -20.421435
       7A    -20.406683     8A    -10.342837     9A     -7.808947
      10A     -7.808864    11A     -7.808839    12A     -1.236862
      13A     -1.224557    14A     -1.216638    15A     -1.209057
      16A     -1.204768    17A     -1.191268    18A     -0.868153
      19A     -0.609623    20A     -0.604007    21A     -0.593115
      22A     -0.581978    23A     -0.571698    24A     -0.564937
      25A     -0.469178    26A     -0.451307    27A     -0.449411
      28A     -0.441972    29A     -0.433471    30A     -0.427995
      31A     -0.383942    32A     -0.382760    33A     -0.377666
      34A     -0.369881    35A     -0.369040    36A     -0.351190
      37A     -0.277301    38A     -0.273960    39A     -0.271686

  @DF-RHF Final Energy:  -915.99308637528191

   => Energetics <=

    Nuclear Repulsion Energy =            408.4707026190684473
    One-Electron Energy =               -2092.2444780608907422
    Two-Electron Energy =                 767.7806890665402761
    Total Energy =                       -915.9930863752819050
 Dipole X            :        -78.5319845           79.3842746            0.8522901
 Dipole Y            :        -63.6775806           63.2483624           -0.4292181
 Dipole Z            :         20.2005206          -19.8111725            0.3893481
 Magnitude           :                                                    1.0306399
  Basis Set: (AUG-CC-PVTZ AUX)
    Blend: AUG-CC-PVTZ-RI
	 Reference Energy          =    -915.9930863752819050 [Eh]
	 Singles Energy            =      -0.0000000000000000 [Eh]
	 Same-Spin Energy          =      -0.4876136028413305 [Eh]
	 Opposite-Spin Energy      =      -1.4912274437649102 [Eh]
	 Correlation Energy        =      -1.9788410466062407 [Eh]
	 Total Energy              =    -917.9719274218881537 [Eh]

	 ================> DF-SCS-MP2 Energies <==================
	-----------------------------------------------------------
	 SCS Same-Spin Scale       =       0.3333333333333333 [-]
	 SCS Opposite-Spin Scale   =       1.2000000000000000 [-]
	 SCS Same-Spin Energy      =      -0.1625378676137768 [Eh]
	 SCS Opposite-Spin Energy  =      -1.7894729325178922 [Eh]
	 SCS Correlation Energy    =      -1.9520108001316689 [Eh]
	 SCS Total Energy          =    -917.9450971754135935 [Eh]
	-----------------------------------------------------------

*** Psi4 exiting successfully. Buy a developer a beer!
