                               Psi4 1.8.2 release

  ==> Input File <==

--------------------------------------------------------------------------
MEMORY 60 GB

molecule dimer {
-1 1
Cl         0.000000     0.000000     0.000000
O          1.349723     3.144590     0.491977
H          0.675618     2.449119     0.560682
H          1.543742     3.300192    -0.440350
O         -0.434395     1.153350    -2.878709
H         -0.293618     0.819358    -1.949994
H         -1.094274     1.844104    -2.701477
O         -0.112666    -3.172677    -0.818981
H         -0.440484    -3.464567    -1.684643
H         -0.573775    -2.384919    -0.634122
O          2.707321     0.923269    -1.525442
H          1.858217     0.675925    -1.212679
H          2.622540     1.151439    -2.426239
O         -2.976873     1.483817    -0.382684
H         -2.949395     2.384073    -0.726030
H         -2.058380     1.184344    -0.550989

units ang
no_reorient
no_com
symmetry c1
}

set {
basis        aug-cc-pVTZ
scf_type     df
}

energy("mp2")
--------------------------------------------------------------------------

    Molecular point group: c1

    Geometry (in Angstrom), charge = -1, multiplicity = 1:

       Center              X                  Y                   Z               Mass
    ------------   -----------------  -----------------  -----------------  -----------------
         CL           0.000000000000     0.000000000000     0.000000000000    34.968852682000
         O            1.349723000000     3.144590000000     0.491977000000    15.994914619570
         H            0.675618000000     2.449119000000     0.560682000000     1.007825032230
         H            1.543742000000     3.300192000000    -0.440350000000     1.007825032230
         O           -0.434395000000     1.153350000000    -2.878709000000    15.994914619570
         H           -0.293618000000     0.819358000000    -1.949994000000     1.007825032230
         H           -1.094274000000     1.844104000000    -2.701477000000     1.007825032230
         O           -0.112666000000    -3.172677000000    -0.818981000000    15.994914619570
         H           -0.440484000000    -3.464567000000    -1.684643000000     1.007825032230
         H           -0.573775000000    -2.384919000000    -0.634122000000     1.007825032230
         O            2.707321000000     0.923269000000    -1.525442000000    15.994914619570
         H            1.858217000000     0.675925000000    -1.212679000000     1.007825032230
         H            2.622540000000     1.151439000000    -2.426239000000     1.007825032230
         O           -2.976873000000     1.483817000000    -0.382684000000    15.994914619570
         H           -2.949395000000     2.384073000000    -0.726030000000     1.007825032230
         H           -2.058380000000     1.184344000000    -0.550989000000     1.007825032230

  Charge       = -1
  Multiplicity = 1
  Basis Set: AUG-CC-PVTZ
    Blend: AUG-CC-PVTZ
  Basis Set: (AUG-CC-PVTZ AUX)
    Blend: AUG-CC-PVTZ-JKFIT

    Orbital Energies [Eh]
    ---------------------

    Doubly Occupied:

       1A   -104.589137     2A    -20.440579     3A    -20.430147
       4A    -20.424398     5A    -20.420249     6A    -20.405931
       7A    -10.314345     8A     -7.780472     9A     -7.780374
      10A     -7.780351    11A     -1.220603    12A     -1.216351
      13A     -1.210699    14A     -1.206177    15A     -1.200371
      16A     -0.833826    17A     -0.584932    18A     -0.582929
      19A     -0.576130    20A     -0.575889    21A     -0.558927
      22A     -0.469309    23A     -0.452474    24A     -0.446539
      25A     -0.435777    26A     -0.432706    27A     -0.383070
      28A     -0.372518    29A     -0.371426    30A     -0.368980
      31A     -0.353972    32A     -0.246043    33A     -0.243401
      34A     -0.241938

  @DF-RHF Final Energy:  -839.92541246891028

   => Energetics <=

    Nuclear Repulsion Energy =            307.5877825304617659
    One-Electron Energy =               -1785.1244384522265136
    Two-Electron Energy =                 637.6112434528545236
    Total Energy =                       -839.9254124689102809
 Dipole X            :         -7.7798689            6.7181105           -1.0617583
 Dipole Y            :        -68.4611868           68.4418363           -0.0193505
 Dipole Z            :         99.2424089          -99.5442584           -0.3018495
 Magnitude           :                                                    1.1040010
  Basis Set: (AUG-CC-PVTZ AUX)
    Blend: AUG-CC-PVTZ-RI
	 Reference Energy          =    -839.9254124689102809 [Eh]
	 Singles Energy            =      -0.0000000000000000 [Eh]
	 Same-Spin Energy          =      -0.4167905485989913 [Eh]
	 Opposite-Spin Energy      =      -1.2731249325105833 [Eh]
	 Correlation Energy        =      -1.6899154811095747 [Eh]
	 Total Energy              =    -841.6153279500198323 [Eh]

	 ================> DF-SCS-MP2 Energies <==================
	-----------------------------------------------------------
	 SCS Same-Spin Scale       =       0.3333333333333333 [-]
	 SCS Opposite-Spin Scale   =       1.2000000000000000 [-]
	 SCS Same-Spin Energy      =      -0.1389301828663304 [Eh]
	 SCS Opposite-Spin Energy  =      -1.5277499190127000 [Eh]
	 SCS Correlation Energy    =      -1.6666801018790305 [Eh]
	 SCS Total Energy          =    -841.5920925707893048 [Eh]
	-----------------------------------------------------------

*** Psi4 exiting successfully. Buy a developer a beer!
