                               Psi4 1.8.2 release

  ==> Input File <==

--------------------------------------------------------------------------
MEMORY 60 GB

molecule dimer {
-1 1
Cl         0.000000     0.000000     0.000000
O          0.276022    -1.334830     2.896328
H         -0.211761    -1.725104     2.182119
H          0.225626    -0.372405     2.733340
O         -0.259441    -2.755488    -2.002064
H         -0.286332    -3.342753    -1.273505
H         -0.138063    -1.901984    -1.552411
O         -1.584387     2.452541    -1.393069
H         -0.945988     3.217678    -1.519608
H         -1.143003     1.748347    -0.885128
O          3.243922     0.276549    -1.143430
H          3.813885    -0.022833    -1.928896
H          3.119205    -0.556862    -0.576049
O          0.948908     1.827757    -2.782125
H          0.552450     2.669854    -3.084036
H          1.588809     1.979159    -2.100038
O         -1.225019     2.327001     2.155250
H         -1.056340     1.708565     1.443285
H         -0.593127     1.978656     2.772432
O         -2.840213    -1.201275     0.058620
H         -2.064020    -0.701230    -0.168248
H         -2.637975    -1.778049     0.799946
O          2.501855    -2.019999     0.703643
H          3.050098    -1.823498     1.470441
H          1.634282    -1.604580     0.874442

units ang
no_reorient
no_com
symmetry c1
}

set {
basis        aug-cc-pVTZ
scf_type     df
}

energy("mp2")
--------------------------------------------------------------------------

    Molecular point group: c1

    Geometry (in Angstrom), charge = -1, multiplicity = 1:

       Center              X                  Y                   Z               Mass
    ------------   -----------------  -----------------  -----------------  -----------------
         CL           0.000000000000     0.000000000000     0.000000000000    34.968852682000
         O            0.276022000000    -1.334830000000     2.896328000000    15.994914619570
         H           -0.211761000000    -1.725104000000     2.182119000000     1.007825032230
         H            0.225626000000    -0.372405000000     2.733340000000     1.007825032230
         O           -0.259441000000    -2.755488000000    -2.002064000000    15.994914619570
         H           -0.286332000000    -3.342753000000    -1.273505000000     1.007825032230
         H           -0.138063000000    -1.901984000000    -1.552411000000     1.007825032230
         O           -1.584387000000     2.452541000000    -1.393069000000    15.994914619570
         H           -0.945988000000     3.217678000000    -1.519608000000     1.007825032230
         H           -1.143003000000     1.748347000000    -0.885128000000     1.007825032230
         O            3.243922000000     0.276549000000    -1.143430000000    15.994914619570
         H            3.813885000000    -0.022833000000    -1.928896000000     1.007825032230
         H            3.119205000000    -0.556862000000    -0.576049000000     1.007825032230
         O            0.948908000000     1.827757000000    -2.782125000000    15.994914619570
         H            0.552450000000     2.669854000000    -3.084036000000     1.007825032230
         H            1.588809000000     1.979159000000    -2.100038000000     1.007825032230
         O           -1.225019000000     2.327001000000     2.155250000000    15.994914619570
         H           -1.056340000000     1.708565000000     1.443285000000     1.007825032230
         H           -0.593127000000     1.978656000000     2.772432000000     1.007825032230
         O           -2.840213000000    -1.201275000000     0.058620000000    15.994914619570
         H           -2.064020000000    -0.701230000000    -0.168248000000     1.007825032230
         H           -2.637975000000    -1.778049000000     0.799946000000     1.007825032230
         O            2.501855000000    -2.019999000000     0.703643000000    15.994914619570
         H            3.050098000000    -1.823498000000     1.470441000000     1.007825032230
         H            1.634282000000    -1.604580000000     0.874442000000     1.007825032230

  Charge       = -1
  Multiplicity = 1
  Basis Set: AUG-CC-PVTZ
    Blend: AUG-CC-PVTZ
  Basis Set: (AUG-CC-PVTZ AUX)
    Blend: AUG-CC-PVTZ-JKFIT

    Orbital Energies [Eh]
    ---------------------

    Doubly Occupied:

       1A   -104.605136     2A    -20.456455     3A    -20.455147
       4A    -20.443817     5A    -20.438327     6A    -20.432275
       7A    -20.419758     8A    -20.416031     9A    -20.411762
      10A    -10.331075    11A     -7.797186    12A     -7.797131
      13A     -7.797064    14A     -1.243507    15A     -1.236836
      16A     -1.232028    17A     -1.215524    18A     -1.212427
      19A     -1.202658    20A     -1.195467    21A     -1.184422
      22A     -0.854536    23A     -0.609938    24A     -0.603343
      25A     -0.595772    26A     -0.581071    27A     -0.578118
      28A     -0.567976    29A     -0.562433    30A     -0.560467
      31A     -0.481733    32A     -0.477441    33A     -0.472996
      34A     -0.450968    35A     -0.448713    36A     -0.439877
      37A     -0.433940    38A     -0.425823    39A     -0.404683
      40A     -0.394496    41A     -0.384962    42A     -0.381531
      43A     -0.376871    44A     -0.369415    45A     -0.358065
      46A     -0.348882    47A     -0.266734    48A     -0.262710
      49A     -0.257288

  @DF-RHF Final Energy: -1068.09888973202874

   => Energetics <=

    Nuclear Repulsion Energy =            621.4822985804705695
    One-Electron Energy =               -2730.2127370052198785
    Two-Electron Energy =                1040.6315486927203438
    Total Energy =                      -1068.0988897320287379
 Dipole X            :        -23.3053646           25.3240724            2.0187079
 Dipole Y            :          7.6576045           -7.4625115            0.1950931
 Dipole Z            :         25.6675255          -24.3145202            1.3530053
 Magnitude           :                                                    2.4380045
  Basis Set: (AUG-CC-PVTZ AUX)
    Blend: AUG-CC-PVTZ-RI
	 Reference Energy          =   -1068.0988897320287379 [Eh]
	 Singles Energy            =      -0.0000000000000000 [Eh]
	 Same-Spin Energy          =      -0.6300052856545714 [Eh]
	 Opposite-Spin Energy      =      -1.9328823027904736 [Eh]
	 Correlation Energy        =      -2.5628875884450451 [Eh]
	 Total Energy              =   -1070.6617773204736750 [Eh]

	 ================> DF-SCS-MP2 Energies <==================
	-----------------------------------------------------------
	 SCS Same-Spin Scale       =       0.3333333333333333 [-]
	 SCS Opposite-Spin Scale   =       1.2000000000000000 [-]
	 SCS Same-Spin Energy      =      -0.2100017618848571 [Eh]
	 SCS Opposite-Spin Energy  =      -2.3194587633485684 [Eh]
	 SCS Correlation Energy    =      -2.5294605252334255 [Eh]
	 SCS Total Energy          =   -1070.6283502572621273 [Eh]
	-----------------------------------------------------------

*** Psi4 exiting successfully. Buy a developer a beer!
