                               Psi4 1.8.2 release

  ==> Input File <==

--------------------------------------------------------------------------
MEMORY 60 GB

molecule dimer {
-1 1
Cl         0.000000     0.000000     0.000000
Gh(O)     -0.530148    -2.541396     2.339857
Gh(H)      0.120897    -3.202570     2.327133
Gh(H)     -0.132628    -1.880997     1.716211
Gh(O)     -3.000928    -1.352034     0.154153
Gh(H)     -2.071433    -1.106112     0.036891
Gh(H)     -3.306104    -0.958508     1.007444
Gh(O)      1.266958    -0.619388    -2.939972
Gh(H)      1.004602    -0.223763    -2.097255
Gh(H)      2.223231    -0.656263    -2.974201
Gh(O)      1.279146    -2.624031    -0.164319
Gh(H)      0.765925    -1.837237    -0.085508
Gh(H)      0.822661    -3.176240    -0.835511
Gh(O)      2.570326     0.754051     2.126946
Gh(H)      2.553981     1.080305     3.025190
Gh(H)      1.674012     0.429569     1.888366

units ang
no_reorient
no_com
symmetry c1
}

set {
basis        aug-cc-pVTZ
scf_type     df
}

energy("mp2")
--------------------------------------------------------------------------

    Molecular point group: c1

    Geometry (in Angstrom), charge = -1, multiplicity = 1:

       Center              X                  Y                   Z               Mass
    ------------   -----------------  -----------------  -----------------  -----------------
         CL           0.000000000000     0.000000000000     0.000000000000    34.968852682000
      Gh(O)          -0.530148000000    -2.541396000000     2.339857000000    15.994914619570
      Gh(H)           0.120897000000    -3.202570000000     2.327133000000     1.007825032230
      Gh(H)          -0.132628000000    -1.880997000000     1.716211000000     1.007825032230
      Gh(O)          -3.000928000000    -1.352034000000     0.154153000000    15.994914619570
      Gh(H)          -2.071433000000    -1.106112000000     0.036891000000     1.007825032230
      Gh(H)          -3.306104000000    -0.958508000000     1.007444000000     1.007825032230
      Gh(O)           1.266958000000    -0.619388000000    -2.939972000000    15.994914619570
      Gh(H)           1.004602000000    -0.223763000000    -2.097255000000     1.007825032230
      Gh(H)           2.223231000000    -0.656263000000    -2.974201000000     1.007825032230
      Gh(O)           1.279146000000    -2.624031000000    -0.164319000000    15.994914619570
      Gh(H)           0.765925000000    -1.837237000000    -0.085508000000     1.007825032230
      Gh(H)           0.822661000000    -3.176240000000    -0.835511000000     1.007825032230
      Gh(O)           2.570326000000     0.754051000000     2.126946000000    15.994914619570
      Gh(H)           2.553981000000     1.080305000000     3.025190000000     1.007825032230
      Gh(H)           1.674012000000     0.429569000000     1.888366000000     1.007825032230

  Charge       = -1
  Multiplicity = 1
  Basis Set: AUG-CC-PVTZ
    Blend: AUG-CC-PVTZ
  Basis Set: (AUG-CC-PVTZ AUX)
    Blend: AUG-CC-PVTZ-JKFIT

    Orbital Energies [Eh]
    ---------------------

    Doubly Occupied:

       1A   -104.507346     2A    -10.230086     3A     -7.696155
       4A     -7.696145     5A     -7.696136     6A     -0.733470
       7A     -0.150313     8A     -0.150311     9A     -0.150305

  @DF-RHF Final Energy:  -459.57357763120365

   => Energetics <=

    Nuclear Repulsion Energy =              0.0000000000000000
    One-Electron Energy =                -641.1266331850614506
    Two-Electron Energy =                 181.5530555538578028
    Total Energy =                       -459.5735776312036478
 Dipole X            :          0.0000987            0.0000000            0.0000987
 Dipole Y            :         -0.0004881            0.0000000           -0.0004881
 Dipole Z            :         -0.0000077            0.0000000           -0.0000077
 Magnitude           :                                                    0.0004980
  Basis Set: (AUG-CC-PVTZ AUX)
    Blend: AUG-CC-PVTZ-RI
	 Reference Energy          =    -459.5735776312036478 [Eh]
	 Singles Energy            =      -0.0000000000000000 [Eh]
	 Same-Spin Energy          =      -0.0636312650772837 [Eh]
	 Opposite-Spin Energy      =      -0.1842465401699217 [Eh]
	 Correlation Energy        =      -0.2478778052472055 [Eh]
	 Total Energy              =    -459.8214554364508331 [Eh]

	 ================> DF-SCS-MP2 Energies <==================
	-----------------------------------------------------------
	 SCS Same-Spin Scale       =       0.3333333333333333 [-]
	 SCS Opposite-Spin Scale   =       1.2000000000000000 [-]
	 SCS Same-Spin Energy      =      -0.0212104216924279 [Eh]
	 SCS Opposite-Spin Energy  =      -0.2210958482039061 [Eh]
	 SCS Correlation Energy    =      -0.2423062698963340 [Eh]
	 SCS Total Energy          =    -459.8158839010999941 [Eh]
	-----------------------------------------------------------

*** Psi4 exiting successfully. Buy a developer a beer!
