                               Psi4 1.8.2 release

  ==> Input File <==

--------------------------------------------------------------------------
MEMORY 60 GB

molecule dimer {
0 1
Gh(Cl)     0.000000     0.000000     0.000000
Gh(O)     -1.646482     1.636033    -2.118452
Gh(H)     -1.306755     2.527241    -2.068860
Gh(H)     -1.347572     1.202892    -1.318347
Gh(O)      0.358450    -3.254429     0.454156
Gh(H)      0.170382    -2.323902     0.612073
Gh(H)     -0.522232    -3.667292     0.173894
Gh(O)     -1.946055    -0.590932     2.381757
Gh(H)     -1.388639    -0.387392     1.592721
Gh(H)     -2.499547     0.181910     2.276099
O          2.703315     1.660936     0.446614
H          1.911369     1.537530    -0.062756
H          3.335061     2.181112     0.003027

units ang
no_reorient
no_com
symmetry c1
}

set {
basis        aug-cc-pVTZ
scf_type     df
}

energy("mp2")
--------------------------------------------------------------------------

    Molecular point group: c1

    Geometry (in Angstrom), charge = 0, multiplicity = 1:

       Center              X                  Y                   Z               Mass
    ------------   -----------------  -----------------  -----------------  -----------------
      Gh(CL)          0.000000000000     0.000000000000     0.000000000000    34.968852682000
      Gh(O)          -1.646482000000     1.636033000000    -2.118452000000    15.994914619570
      Gh(H)          -1.306755000000     2.527241000000    -2.068860000000     1.007825032230
      Gh(H)          -1.347572000000     1.202892000000    -1.318347000000     1.007825032230
      Gh(O)           0.358450000000    -3.254429000000     0.454156000000    15.994914619570
      Gh(H)           0.170382000000    -2.323902000000     0.612073000000     1.007825032230
      Gh(H)          -0.522232000000    -3.667292000000     0.173894000000     1.007825032230
      Gh(O)          -1.946055000000    -0.590932000000     2.381757000000    15.994914619570
      Gh(H)          -1.388639000000    -0.387392000000     1.592721000000     1.007825032230
      Gh(H)          -2.499547000000     0.181910000000     2.276099000000     1.007825032230
         O            2.703315000000     1.660936000000     0.446614000000    15.994914619570
         H            1.911369000000     1.537530000000    -0.062756000000     1.007825032230
         H            3.335061000000     2.181112000000     0.003027000000     1.007825032230

  Charge       = 0
  Multiplicity = 1
  Basis Set: AUG-CC-PVTZ
    Blend: AUG-CC-PVTZ
  Basis Set: (AUG-CC-PVTZ AUX)
    Blend: AUG-CC-PVTZ-JKFIT

    Orbital Energies [Eh]
    ---------------------

    Doubly Occupied:

       1A    -20.560562     2A     -1.356919     3A     -0.742551
       4A     -0.572544     5A     -0.509496

  @DF-RHF Final Energy:   -76.06005489668853

   => Energetics <=

    Nuclear Repulsion Energy =              9.3441661421699997
    One-Electron Energy =                -123.3242965074545907
    Two-Electron Energy =                  37.9200754685960675
    Total Energy =                        -76.0600548966885270
 Dipole X            :        -50.8909614           50.7825157           -0.1084458
 Dipole Y            :        -31.8618843           32.1369282            0.2750438
 Dipole Z            :         -7.2970362            6.6389537           -0.6580825
 Magnitude           :                                                    0.7214445
  Basis Set: (AUG-CC-PVTZ AUX)
    Blend: AUG-CC-PVTZ-RI
	 Reference Energy          =     -76.0600548966885270 [Eh]
	 Singles Energy            =      -0.0000000000000000 [Eh]
	 Same-Spin Energy          =      -0.0679956858348423 [Eh]
	 Opposite-Spin Energy      =      -0.2142438996391701 [Eh]
	 Correlation Energy        =      -0.2822395854740125 [Eh]
	 Total Energy              =     -76.3422944821625435 [Eh]

	 ================> DF-SCS-MP2 Energies <==================
	-----------------------------------------------------------
	 SCS Same-Spin Scale       =       0.3333333333333333 [-]
	 SCS Opposite-Spin Scale   =       1.2000000000000000 [-]
	 SCS Same-Spin Energy      =      -0.0226652286116141 [Eh]
	 SCS Opposite-Spin Energy  =      -0.2570926795670042 [Eh]
	 SCS Correlation Energy    =      -0.2797579081786182 [Eh]
	 SCS Total Energy          =     -76.3398128048671509 [Eh]
	-----------------------------------------------------------

*** Psi4 exiting successfully. Buy a developer a beer!
