                               Psi4 1.8.2 release

  ==> Input File <==

--------------------------------------------------------------------------
MEMORY 60 GB

molecule dimer {
0 1
Gh(Cl)     0.000000     0.000000     0.000000
Gh(O)      3.272233    -0.339230     0.465325
Gh(H)      2.339576    -0.145698     0.219241
Gh(H)      3.571731     0.299655     1.166361
Gh(O)      0.347877     2.802529     1.428865
Gh(H)     -0.125574     3.335043     0.784056
Gh(H)      0.515121     1.891836     1.111430
Gh(O)      0.954444    -2.748896     1.108647
Gh(H)      1.725578    -3.078670     0.722052
Gh(H)      0.880431    -1.768924     0.971943
Gh(O)     -0.111136    -0.616714     3.117009
Gh(H)     -0.296790     0.160491     3.738680
Gh(H)     -0.092426    -0.202776     2.240970
O         -2.552283     1.901749     0.193843
H         -1.976931     1.085456    -0.094548
H         -2.580680     1.825291     1.177092

units ang
no_reorient
no_com
symmetry c1
}

set {
basis        aug-cc-pVTZ
scf_type     df
}

energy("mp2")
--------------------------------------------------------------------------

    Molecular point group: c1

    Geometry (in Angstrom), charge = 0, multiplicity = 1:

       Center              X                  Y                   Z               Mass
    ------------   -----------------  -----------------  -----------------  -----------------
      Gh(CL)          0.000000000000     0.000000000000     0.000000000000    34.968852682000
      Gh(O)           3.272233000000    -0.339230000000     0.465325000000    15.994914619570
      Gh(H)           2.339576000000    -0.145698000000     0.219241000000     1.007825032230
      Gh(H)           3.571731000000     0.299655000000     1.166361000000     1.007825032230
      Gh(O)           0.347877000000     2.802529000000     1.428865000000    15.994914619570
      Gh(H)          -0.125574000000     3.335043000000     0.784056000000     1.007825032230
      Gh(H)           0.515121000000     1.891836000000     1.111430000000     1.007825032230
      Gh(O)           0.954444000000    -2.748896000000     1.108647000000    15.994914619570
      Gh(H)           1.725578000000    -3.078670000000     0.722052000000     1.007825032230
      Gh(H)           0.880431000000    -1.768924000000     0.971943000000     1.007825032230
      Gh(O)          -0.111136000000    -0.616714000000     3.117009000000    15.994914619570
      Gh(H)          -0.296790000000     0.160491000000     3.738680000000     1.007825032230
      Gh(H)          -0.092426000000    -0.202776000000     2.240970000000     1.007825032230
         O           -2.552283000000     1.901749000000     0.193843000000    15.994914619570
         H           -1.976931000000     1.085456000000    -0.094548000000     1.007825032230
         H           -2.580680000000     1.825291000000     1.177092000000     1.007825032230

  Charge       = 0
  Multiplicity = 1
  Basis Set: AUG-CC-PVTZ
    Blend: AUG-CC-PVTZ
  Basis Set: (AUG-CC-PVTZ AUX)
    Blend: AUG-CC-PVTZ-JKFIT

    Orbital Energies [Eh]
    ---------------------

    Doubly Occupied:

       1A    -20.576950     2A     -1.327910     3A     -0.686656
       4A     -0.575964     5A     -0.506512

  @DF-RHF Final Energy:   -76.05064907225899

   => Energetics <=

    Nuclear Repulsion Energy =              8.6961659692452802
    One-Electron Energy =                -122.1456437229120979
    Two-Electron Energy =                  37.3988286814078279
    Total Energy =                        -76.0506490722589774
 Dipole X            :         47.5445487          -47.1975635            0.3469852
 Dipole Y            :        -34.8186256           34.2507928           -0.5678328
 Dipole Z            :         -4.5236767            4.9761931            0.4525164
 Magnitude           :                                                    0.8047384
  Basis Set: (AUG-CC-PVTZ AUX)
    Blend: AUG-CC-PVTZ-RI
	 Reference Energy          =     -76.0506490722589916 [Eh]
	 Singles Energy            =      -0.0000000000000000 [Eh]
	 Same-Spin Energy          =      -0.0693797822300762 [Eh]
	 Opposite-Spin Energy      =      -0.2188718933698611 [Eh]
	 Correlation Energy        =      -0.2882516755999373 [Eh]
	 Total Energy              =     -76.3389007478589292 [Eh]

	 ================> DF-SCS-MP2 Energies <==================
	-----------------------------------------------------------
	 SCS Same-Spin Scale       =       0.3333333333333333 [-]
	 SCS Opposite-Spin Scale   =       1.2000000000000000 [-]
	 SCS Same-Spin Energy      =      -0.0231265940766921 [Eh]
	 SCS Opposite-Spin Energy  =      -0.2626462720438333 [Eh]
	 SCS Correlation Energy    =      -0.2857728661205254 [Eh]
	 SCS Total Energy          =     -76.3364219383795160 [Eh]
	-----------------------------------------------------------

*** Psi4 exiting successfully. Buy a developer a beer!
