                               Psi4 1.8.2 release

  ==> Input File <==

--------------------------------------------------------------------------
MEMORY 60 GB

molecule dimer {
-1 1
Cl         0.000000     0.000000     0.000000
O         -2.143902     2.687894     0.369827
H         -1.751923     1.916157    -0.042508
H         -1.445437     3.008980     0.964821
O          1.417822     2.683757    -0.963726
H          1.031224     1.892839    -0.638075
H          2.176857     2.933195    -0.408350
O          2.157044    -1.948549     1.619987
H          1.520347    -1.260861     1.273406
H          3.039464    -1.804037     1.249342
O          0.806693     1.251237     2.760041
H          1.460046     1.848920     2.529623
H          0.603623     0.876975     1.911660
O         -0.281475     0.477673    -3.053473
H         -0.340130     0.334391    -2.127821
H          0.648817     0.768530    -3.252626
O          2.027069    -1.802246    -1.829283
H          1.495188    -2.466996    -2.164289
H          1.704265    -1.376629    -1.005788

units ang
no_reorient
no_com
symmetry c1
}

set {
basis        aug-cc-pVTZ
scf_type     df
}

energy("mp2")
--------------------------------------------------------------------------

    Molecular point group: c1

    Geometry (in Angstrom), charge = -1, multiplicity = 1:

       Center              X                  Y                   Z               Mass
    ------------   -----------------  -----------------  -----------------  -----------------
         CL           0.000000000000     0.000000000000     0.000000000000    34.968852682000
         O           -2.143902000000     2.687894000000     0.369827000000    15.994914619570
         H           -1.751923000000     1.916157000000    -0.042508000000     1.007825032230
         H           -1.445437000000     3.008980000000     0.964821000000     1.007825032230
         O            1.417822000000     2.683757000000    -0.963726000000    15.994914619570
         H            1.031224000000     1.892839000000    -0.638075000000     1.007825032230
         H            2.176857000000     2.933195000000    -0.408350000000     1.007825032230
         O            2.157044000000    -1.948549000000     1.619987000000    15.994914619570
         H            1.520347000000    -1.260861000000     1.273406000000     1.007825032230
         H            3.039464000000    -1.804037000000     1.249342000000     1.007825032230
         O            0.806693000000     1.251237000000     2.760041000000    15.994914619570
         H            1.460046000000     1.848920000000     2.529623000000     1.007825032230
         H            0.603623000000     0.876975000000     1.911660000000     1.007825032230
         O           -0.281475000000     0.477673000000    -3.053473000000    15.994914619570
         H           -0.340130000000     0.334391000000    -2.127821000000     1.007825032230
         H            0.648817000000     0.768530000000    -3.252626000000     1.007825032230
         O            2.027069000000    -1.802246000000    -1.829283000000    15.994914619570
         H            1.495188000000    -2.466996000000    -2.164289000000     1.007825032230
         H            1.704265000000    -1.376629000000    -1.005788000000     1.007825032230

  Charge       = -1
  Multiplicity = 1
  Basis Set: AUG-CC-PVTZ
    Blend: AUG-CC-PVTZ
  Basis Set: (AUG-CC-PVTZ AUX)
    Blend: AUG-CC-PVTZ-JKFIT

    Orbital Energies [Eh]
    ---------------------

    Doubly Occupied:

       1A   -104.616646     2A    -20.434790     3A    -20.433058
       4A    -20.426160     5A    -20.425868     6A    -20.421435
       7A    -20.406683     8A    -10.342837     9A     -7.808947
      10A     -7.808864    11A     -7.808839    12A     -1.236862
      13A     -1.224557    14A     -1.216638    15A     -1.209057
      16A     -1.204768    17A     -1.191268    18A     -0.868153
      19A     -0.609623    20A     -0.604007    21A     -0.593115
      22A     -0.581978    23A     -0.571698    24A     -0.564937
      25A     -0.469178    26A     -0.451307    27A     -0.449411
      28A     -0.441972    29A     -0.433471    30A     -0.427995
      31A     -0.383942    32A     -0.382760    33A     -0.377666
      34A     -0.369881    35A     -0.369040    36A     -0.351190
      37A     -0.277301    38A     -0.273960    39A     -0.271686

  @DF-RHF Final Energy:  -915.99308637566219

   => Energetics <=

    Nuclear Repulsion Energy =            408.4707026190684473
    One-Electron Energy =               -2092.2444780608670953
    Two-Electron Energy =                 767.7806890661363468
    Total Energy =                       -915.9930863756621875
 Dipole X            :        -78.5319845           79.3842746            0.8522901
 Dipole Y            :        -63.6775806           63.2483624           -0.4292181
 Dipole Z            :         20.2005206          -19.8111725            0.3893481
 Magnitude           :                                                    1.0306399
  Basis Set: (AUG-CC-PVTZ AUX)
    Blend: AUG-CC-PVTZ-RI
	 Reference Energy          =    -915.9930863756621875 [Eh]
	 Singles Energy            =      -0.0000000000000000 [Eh]
	 Same-Spin Energy          =      -0.4876136028408289 [Eh]
	 Opposite-Spin Energy      =      -1.4912274437640249 [Eh]
	 Correlation Energy        =      -1.9788410466048538 [Eh]
	 Total Energy              =    -917.9719274222670720 [Eh]

	 ================> DF-SCS-MP2 Energies <==================
	-----------------------------------------------------------
	 SCS Same-Spin Scale       =       0.3333333333333333 [-]
	 SCS Opposite-Spin Scale   =       1.2000000000000000 [-]
	 SCS Same-Spin Energy      =      -0.1625378676136096 [Eh]
	 SCS Opposite-Spin Energy  =      -1.7894729325168299 [Eh]
	 SCS Correlation Energy    =      -1.9520108001304395 [Eh]
	 SCS Total Energy          =    -917.9450971757926254 [Eh]
	-----------------------------------------------------------

*** Psi4 exiting successfully. Buy a developer a beer!
