                               Psi4 1.8.2 release

  ==> Input File <==

--------------------------------------------------------------------------
MEMORY 60 GB

molecule dimer {
0 1
Gh(Cl)     0.000000     0.000000     0.000000
Gh(O)      3.112411    -0.510579     1.136854
Gh(H)      2.370520    -0.257961     1.690682
Gh(H)      3.753338    -1.047204     1.647019
O         -2.960096    -1.202549     0.650023
H         -2.871814    -2.140675     0.467832
H         -2.150687    -0.805819     0.422640
Gh(O)     -2.286463     2.389191     0.707858
Gh(H)     -1.879680     1.516328     0.601139
Gh(H)     -3.105064     2.383095     0.187160
Gh(O)      0.222845     1.410868     2.777416
Gh(H)      0.764077     2.178359     2.611442
Gh(H)      0.077727     1.005070     1.910475

units ang
no_reorient
no_com
symmetry c1
}

set {
basis        aug-cc-pVTZ
scf_type     df
}

energy("mp2")
--------------------------------------------------------------------------

    Molecular point group: c1

    Geometry (in Angstrom), charge = 0, multiplicity = 1:

       Center              X                  Y                   Z               Mass
    ------------   -----------------  -----------------  -----------------  -----------------
      Gh(CL)          0.000000000000     0.000000000000     0.000000000000    34.968852682000
      Gh(O)           3.112411000000    -0.510579000000     1.136854000000    15.994914619570
      Gh(H)           2.370520000000    -0.257961000000     1.690682000000     1.007825032230
      Gh(H)           3.753338000000    -1.047204000000     1.647019000000     1.007825032230
         O           -2.960096000000    -1.202549000000     0.650023000000    15.994914619570
         H           -2.871814000000    -2.140675000000     0.467832000000     1.007825032230
         H           -2.150687000000    -0.805819000000     0.422640000000     1.007825032230
      Gh(O)          -2.286463000000     2.389191000000     0.707858000000    15.994914619570
      Gh(H)          -1.879680000000     1.516328000000     0.601139000000     1.007825032230
      Gh(H)          -3.105064000000     2.383095000000     0.187160000000     1.007825032230
      Gh(O)           0.222845000000     1.410868000000     2.777416000000    15.994914619570
      Gh(H)           0.764077000000     2.178359000000     2.611442000000     1.007825032230
      Gh(H)           0.077727000000     1.005070000000     1.910475000000     1.007825032230

  Charge       = 0
  Multiplicity = 1
  Basis Set: AUG-CC-PVTZ
    Blend: AUG-CC-PVTZ
  Basis Set: (AUG-CC-PVTZ AUX)
    Blend: AUG-CC-PVTZ-JKFIT

    Orbital Energies [Eh]
    ---------------------

    Doubly Occupied:

       1A    -20.563835     2A     -1.358658     3A     -0.729515
       4A     -0.582562     5A     -0.510747

  @DF-RHF Final Energy:   -76.06071851357885

   => Energetics <=

    Nuclear Repulsion Energy =              9.3135155085480772
    One-Electron Energy =                -123.2578294195570976
    Two-Electron Energy =                  37.8835953974301702
    Total Energy =                        -76.0607185135788484
 Dipole X            :         54.8505243          -54.2413173            0.6092070
 Dipole Y            :         23.3865495          -23.7479728           -0.3614233
 Dipole Z            :        -11.7867863           11.5096718           -0.2771146
 Magnitude           :                                                    0.7606264
  Basis Set: (AUG-CC-PVTZ AUX)
    Blend: AUG-CC-PVTZ-RI
	 Reference Energy          =     -76.0607185135788484 [Eh]
	 Singles Energy            =      -0.0000000000000000 [Eh]
	 Same-Spin Energy          =      -0.0681305207513112 [Eh]
	 Opposite-Spin Energy      =      -0.2151185346349577 [Eh]
	 Correlation Energy        =      -0.2832490553862689 [Eh]
	 Total Energy              =     -76.3439675689651125 [Eh]

	 ================> DF-SCS-MP2 Energies <==================
	-----------------------------------------------------------
	 SCS Same-Spin Scale       =       0.3333333333333333 [-]
	 SCS Opposite-Spin Scale   =       1.2000000000000000 [-]
	 SCS Same-Spin Energy      =      -0.0227101735837704 [Eh]
	 SCS Opposite-Spin Energy  =      -0.2581422415619492 [Eh]
	 SCS Correlation Energy    =      -0.2808524151457196 [Eh]
	 SCS Total Energy          =     -76.3415709287245647 [Eh]
	-----------------------------------------------------------

*** Psi4 exiting successfully. Buy a developer a beer!
