                               Psi4 1.8.2 release

  ==> Input File <==

--------------------------------------------------------------------------
MEMORY 60 GB

molecule dimer {
0 1
Gh(Cl)     0.000000     0.000000     0.000000
Gh(O)     -0.212648    -0.458124    -3.393214
Gh(H)     -0.448749    -1.349680    -3.579356
Gh(H)      0.402197    -0.522361    -2.656061
O          2.027595    -1.452571     2.158350
H          2.804391    -1.701626     1.514130
H          1.635052    -0.772877     1.583500
Gh(O)      0.444892    -2.976621    -0.997622
Gh(H)      0.671190    -2.173167    -0.459218
Gh(H)      1.108987    -3.642094    -0.739784
Gh(O)     -1.886927    -2.865595     0.501677
Gh(H)     -2.776314    -2.613300     0.315070
Gh(H)     -1.242520    -2.183692     0.152953
Gh(O)     -1.815396     0.378644     2.887949
Gh(H)     -1.393814     0.212010     2.034179
Gh(H)     -2.619610     0.917524     2.698395

units ang
no_reorient
no_com
symmetry c1
}

set {
basis        aug-cc-pVTZ
scf_type     df
}

energy("mp2")
--------------------------------------------------------------------------

    Molecular point group: c1

    Geometry (in Angstrom), charge = 0, multiplicity = 1:

       Center              X                  Y                   Z               Mass
    ------------   -----------------  -----------------  -----------------  -----------------
      Gh(CL)          0.000000000000     0.000000000000     0.000000000000    34.968852682000
      Gh(O)          -0.212648000000    -0.458124000000    -3.393214000000    15.994914619570
      Gh(H)          -0.448749000000    -1.349680000000    -3.579356000000     1.007825032230
      Gh(H)           0.402197000000    -0.522361000000    -2.656061000000     1.007825032230
         O            2.027595000000    -1.452571000000     2.158350000000    15.994914619570
         H            2.804391000000    -1.701626000000     1.514130000000     1.007825032230
         H            1.635052000000    -0.772877000000     1.583500000000     1.007825032230
      Gh(O)           0.444892000000    -2.976621000000    -0.997622000000    15.994914619570
      Gh(H)           0.671190000000    -2.173167000000    -0.459218000000     1.007825032230
      Gh(H)           1.108987000000    -3.642094000000    -0.739784000000     1.007825032230
      Gh(O)          -1.886927000000    -2.865595000000     0.501677000000    15.994914619570
      Gh(H)          -2.776314000000    -2.613300000000     0.315070000000     1.007825032230
      Gh(H)          -1.242520000000    -2.183692000000     0.152953000000     1.007825032230
      Gh(O)          -1.815396000000     0.378644000000     2.887949000000    15.994914619570
      Gh(H)          -1.393814000000     0.212010000000     2.034179000000     1.007825032230
      Gh(H)          -2.619610000000     0.917524000000     2.698395000000     1.007825032230

  Charge       = 0
  Multiplicity = 1
  Basis Set: AUG-CC-PVTZ
    Blend: AUG-CC-PVTZ
  Basis Set: (AUG-CC-PVTZ AUX)
    Blend: AUG-CC-PVTZ-JKFIT

    Orbital Energies [Eh]
    ---------------------

    Doubly Occupied:

       1A    -20.579057     2A     -1.336498     3A     -0.676526
       4A     -0.591377     5A     -0.509325

  @DF-RHF Final Energy:   -76.04987723134627

   => Energetics <=

    Nuclear Repulsion Energy =              8.7780855928526975
    One-Electron Energy =                -122.2703569052992236
    Two-Electron Energy =                  37.4423940811002538
    Total Energy =                        -76.0498772313462723
 Dipole X            :        -38.8106658           39.0421254            0.2314596
 Dipole Y            :         26.9171295          -26.6358239            0.2813056
 Dipole Z            :        -39.2519728           38.4831954           -0.7687774
 Magnitude           :                                                    0.8507203
  Basis Set: (AUG-CC-PVTZ AUX)
    Blend: AUG-CC-PVTZ-RI
	 Reference Energy          =     -76.0498772313462723 [Eh]
	 Singles Energy            =      -0.0000000000000000 [Eh]
	 Same-Spin Energy          =      -0.0695032398871219 [Eh]
	 Opposite-Spin Energy      =      -0.2190557173199765 [Eh]
	 Correlation Energy        =      -0.2885589572070984 [Eh]
	 Total Energy              =     -76.3384361885533735 [Eh]

	 ================> DF-SCS-MP2 Energies <==================
	-----------------------------------------------------------
	 SCS Same-Spin Scale       =       0.3333333333333333 [-]
	 SCS Opposite-Spin Scale   =       1.2000000000000000 [-]
	 SCS Same-Spin Energy      =      -0.0231677466290406 [Eh]
	 SCS Opposite-Spin Energy  =      -0.2628668607839718 [Eh]
	 SCS Correlation Energy    =      -0.2860346074130124 [Eh]
	 SCS Total Energy          =     -76.3359118387592872 [Eh]
	-----------------------------------------------------------

*** Psi4 exiting successfully. Buy a developer a beer!
