                               Psi4 1.9 release

  ==> Input File <==

--------------------------------------------------------------------------
MEMORY 60 GB

molecule dimer {
-1 1
Cl     0.000000     0.000000     0.000000
--
0 1
O     -0.939928     3.138189    -0.000936
H     -0.820702     2.238321     0.375766
H     -0.712248     3.077225    -0.943590
O      1.774428     1.345338    -2.573145
H      1.119620     1.302239    -1.824535
H      1.660456     2.173050    -2.996113
O     -2.265274    -2.324267     0.705293
H     -2.834139    -2.738348     0.091603
H     -1.824269    -1.638760     0.205252
O      0.930253    -0.455464     2.995589
H      0.429133     0.276974     3.481595
H      0.852726    -0.389826     2.071742

units ang
no_reorient
no_com
symmetry c1
}

set {
basis        aug-cc-pVTZ
scf_type     df
}

energy("mp2", bsse_type="cp")
--------------------------------------------------------------------------

                               Psi4 1.9 release
    Molecular point group: c1
  Charge       = 0
  Multiplicity = 1
  Basis Set: AUG-CC-PVTZ
    Blend: AUG-CC-PVTZ
  Basis Set: (AUG-CC-PVTZ AUX)
    Blend: AUG-CC-PVTZ-JKFIT
  @DF-RHF Final Energy:  -304.22697399413698
    Total Energy =                       -304.2269739941369835
 Dipole X            :         10.8391519          -11.5908072           -0.7516552
 Dipole Y            :        -33.2822379           33.8851384            0.6029005
 Dipole Z            :        -19.0974236           17.9072866           -1.1901370
 Magnitude           :                                                    1.5313068
  Basis Set: (AUG-CC-PVTZ AUX)
    Blend: AUG-CC-PVTZ-RI
	 Reference Energy          =    -304.2269739941369835 [Eh]
	 Singles Energy            =      -0.0000000000000000 [Eh]
	 Same-Spin Energy          =      -0.2742942956721916 [Eh]
	 Opposite-Spin Energy      =      -0.8642488285680229 [Eh]
	 Correlation Energy        =      -1.1385431242402144 [Eh]
	 Total Energy              =    -305.3655171183771699 [Eh]
	 SCS Total Energy          =    -305.3555040203093540 [Eh]
                               Psi4 1.9 release
    Molecular point group: c1
  Multiplicity = 1
  Basis Set: AUG-CC-PVTZ
    Blend: AUG-CC-PVTZ
  Basis Set: (AUG-CC-PVTZ AUX)
    Blend: AUG-CC-PVTZ-JKFIT
  @DF-RHF Final Energy:  -459.57355901389519
    Total Energy =                       -459.5735590138951920
  Basis Set: (AUG-CC-PVTZ AUX)
	 Singles Energy            =      -0.0000000000000000 [Eh]
	 Same-Spin Energy          =      -0.0632595412322495 [Eh]
	 Opposite-Spin Energy      =      -0.1826893466082772 [Eh]
	 Correlation Energy        =      -0.2459488878405268 [Eh]
	 Total Energy              =    -459.8195079017357330 [Eh]
	 SCS Total Energy          =    -459.8138727435692203 [Eh]
                               Psi4 1.9 release
    Molecular point group: c1

    Geometry (in Bohr), charge = -1, multiplicity = 1:

       Center              X                  Y                   Z               Mass
    ------------   -----------------  -----------------  -----------------  -----------------
         CL           0.000000000000     0.000000000000     0.000000000000    34.968852682000
         O           -1.776206497649     5.930317739924    -0.001768783653    15.994914619570
         H           -1.550902010615     4.229813670861     0.710094827259     1.007825032230
         H           -1.345953653405     5.815112476412    -1.783126674721     1.007825032230
         O            3.353182949344     2.542320366171    -4.862539331091    15.994914619570
         H            2.115775164585     2.460875059890    -3.447871456312     1.007825032230
         H            3.137807083373     4.106469356926    -5.661833010924     1.007825032230
         O           -4.280747459120    -4.392228072439     1.332810608203    15.994914619570
         H           -5.355746511479    -5.174727756195     0.173104582270     1.007825032230
         H           -3.447368789163    -3.096807585355     0.387870066702     1.007825032230
         O            1.757923397386    -0.860702220006     5.660842794434    15.994914619570
         H            0.810943841396     0.523405003873     6.579261029763     1.007825032230
         H            1.611418600057    -0.736664376583     3.915024982608     1.007825032230

  Charge       = -1
  Multiplicity = 1
  Basis Set: AUG-CC-PVTZ
    Blend: AUG-CC-PVTZ
  Basis Set: (AUG-CC-PVTZ AUX)
    Blend: AUG-CC-PVTZ-JKFIT

    Orbital Energies [Eh]
    ---------------------

    Doubly Occupied:

       1A   -104.573147     2A    -20.428817     3A    -20.420968
       4A    -20.416444     5A    -20.400557     6A    -10.298084
       7A     -7.764189     8A     -7.764173     9A     -7.764145
      10A     -1.213407    11A     -1.211840    12A     -1.196656
      13A     -1.180400    14A     -0.814015    15A     -0.581677
      16A     -0.578015    17A     -0.566791    18A     -0.564489
      19A     -0.444765    20A     -0.442241    21A     -0.436188
      22A     -0.409808    23A     -0.372798    24A     -0.365359
      25A     -0.363843    26A     -0.346012    27A     -0.228322
      28A     -0.226771    29A     -0.224779

  @DF-RHF Final Energy:  -763.85623468094786

   => Energetics <=

    Nuclear Repulsion Energy =            212.1648747217355719
    One-Electron Energy =               -1488.8448146336177160
    Two-Electron Energy =                 512.8237052309343653
    Total Energy =                       -763.8562346809478640
 Dipole X            :         10.9514107          -11.5908072           -0.6393965
 Dipole Y            :        -33.6069539           33.8851384            0.2781844
 Dipole Z            :        -19.1942721           17.9072866           -1.2869855
 Magnitude           :                                                    1.4637438
  Basis Set: (AUG-CC-PVTZ AUX)
    Blend: AUG-CC-PVTZ-RI
	 Reference Energy          =    -763.8562346809478640 [Eh]
	 Singles Energy            =      -0.0000000000000000 [Eh]
	 Same-Spin Energy          =      -0.3443071113478722 [Eh]
	 Opposite-Spin Energy      =      -1.0517256095012724 [Eh]
	 Correlation Energy        =      -1.3960327208491445 [Eh]
	 Total Energy              =    -765.2522674017969848 [Eh]

	 ================> DF-SCS-MP2 Energies <==================
	-----------------------------------------------------------
	 SCS Same-Spin Scale       =       0.3333333333333333 [-]
	 SCS Opposite-Spin Scale   =       1.2000000000000000 [-]
	 SCS Same-Spin Energy      =      -0.1147690371159574 [Eh]
	 SCS Opposite-Spin Energy  =      -1.2620707314015267 [Eh]
	 SCS Correlation Energy    =      -1.3768397685174840 [Eh]
	 SCS Total Energy          =    -765.2330744494653345 [Eh]
	-----------------------------------------------------------

*** Psi4 exiting successfully. Buy a developer a beer!
