                               Psi4 1.8.2 release

  ==> Input File <==

--------------------------------------------------------------------------
MEMORY 60 GB

molecule dimer {
0 1
Gh(Cl)     0.000000     0.000000     0.000000
Gh(O)     -2.709595    -0.564414     1.986950
Gh(H)     -2.012609    -0.356588     1.361955
Gh(H)     -3.524735    -0.339512     1.483111
Gh(O)      0.458298    -0.295669     3.415454
Gh(H)      0.366928     0.233955     2.580124
Gh(H)      1.441111    -0.213655     3.579034
O          0.964782     1.256879    -2.914500
H          0.751989     0.912790    -2.038240
H          0.228306     1.846266    -3.151398
Gh(O)     -0.817501    -3.251590     0.551563
Gh(H)     -1.223410    -3.568100    -0.255690
Gh(H)     -1.014239    -2.333206     0.731087
Gh(O)      1.264464     2.704809     0.729411
Gh(H)      0.706287     1.905591     0.552777
Gh(H)      1.975961     2.355386     1.286056

units ang
no_reorient
no_com
symmetry c1
}

set {
basis        aug-cc-pVTZ
scf_type     df
}

energy("mp2")
--------------------------------------------------------------------------

    Molecular point group: c1

    Geometry (in Angstrom), charge = 0, multiplicity = 1:

       Center              X                  Y                   Z               Mass
    ------------   -----------------  -----------------  -----------------  -----------------
      Gh(CL)          0.000000000000     0.000000000000     0.000000000000    34.968852682000
      Gh(O)          -2.709595000000    -0.564414000000     1.986950000000    15.994914619570
      Gh(H)          -2.012609000000    -0.356588000000     1.361955000000     1.007825032230
      Gh(H)          -3.524735000000    -0.339512000000     1.483111000000     1.007825032230
      Gh(O)           0.458298000000    -0.295669000000     3.415454000000    15.994914619570
      Gh(H)           0.366928000000     0.233955000000     2.580124000000     1.007825032230
      Gh(H)           1.441111000000    -0.213655000000     3.579034000000     1.007825032230
         O            0.964782000000     1.256879000000    -2.914500000000    15.994914619570
         H            0.751989000000     0.912790000000    -2.038240000000     1.007825032230
         H            0.228306000000     1.846266000000    -3.151398000000     1.007825032230
      Gh(O)          -0.817501000000    -3.251590000000     0.551563000000    15.994914619570
      Gh(H)          -1.223410000000    -3.568100000000    -0.255690000000     1.007825032230
      Gh(H)          -1.014239000000    -2.333206000000     0.731087000000     1.007825032230
      Gh(O)           1.264464000000     2.704809000000     0.729411000000    15.994914619570
      Gh(H)           0.706287000000     1.905591000000     0.552777000000     1.007825032230
      Gh(H)           1.975961000000     2.355386000000     1.286056000000     1.007825032230

  Charge       = 0
  Multiplicity = 1
  Basis Set: AUG-CC-PVTZ
    Blend: AUG-CC-PVTZ
  Basis Set: (AUG-CC-PVTZ AUX)
    Blend: AUG-CC-PVTZ-JKFIT

    Orbital Energies [Eh]
    ---------------------

    Doubly Occupied:

       1A    -20.568685     2A     -1.346828     3A     -0.713670
       4A     -0.580406     5A     -0.509046

  @DF-RHF Final Energy:   -76.05962782942179

   => Energetics <=

    Nuclear Repulsion Energy =              9.0817747035163503
    One-Electron Energy =                -122.8455324307040541
    Two-Electron Energy =                  37.7041298977659238
    Total Energy =                        -76.0596278294217853
 Dipole X            :        -17.0667485           16.4378791           -0.6288695
 Dipole Y            :        -24.0535032           24.2151169            0.1616137
 Dipole Z            :         54.2928341          -53.8678489            0.4249853
 Magnitude           :                                                    0.7760208
  Basis Set: (AUG-CC-PVTZ AUX)
    Blend: AUG-CC-PVTZ-RI
	 Reference Energy          =     -76.0596278294217853 [Eh]
	 Singles Energy            =      -0.0000000000000000 [Eh]
	 Same-Spin Energy          =      -0.0685627720558740 [Eh]
	 Opposite-Spin Energy      =      -0.2163785012178799 [Eh]
	 Correlation Energy        =      -0.2849412732737540 [Eh]
	 Total Energy              =     -76.3445691026955444 [Eh]

	 ================> DF-SCS-MP2 Energies <==================
	-----------------------------------------------------------
	 SCS Same-Spin Scale       =       0.3333333333333333 [-]
	 SCS Opposite-Spin Scale   =       1.2000000000000000 [-]
	 SCS Same-Spin Energy      =      -0.0228542573519580 [Eh]
	 SCS Opposite-Spin Energy  =      -0.2596542014614559 [Eh]
	 SCS Correlation Energy    =      -0.2825084588134139 [Eh]
	 SCS Total Energy          =     -76.3421362882351957 [Eh]
	-----------------------------------------------------------

*** Psi4 exiting successfully. Buy a developer a beer!
