                               Psi4 1.8.2 release

  ==> Input File <==

--------------------------------------------------------------------------
MEMORY 60 GB

molecule dimer {
-1 1
Cl         0.000000     0.000000     0.000000
O          2.766194    -0.990872     1.334512
H          3.039003    -1.669598     0.704789
H          1.972907    -0.601045     0.984498
O          1.954164    -2.033443    -1.248793
H          2.754129    -1.997806    -1.786639
H          1.469395    -1.174972    -1.109340
O          0.724065     0.495149     3.233155
H          0.262707     0.210693     2.462424
H          1.506162    -0.008643     3.265816
O         -2.376968     0.795770    -2.094079
H         -2.494931     0.396759    -1.199738
H         -2.033227     1.702484    -1.954161
O         -1.121666    -3.050928     0.529231
H         -0.453203    -2.425550     0.260200
H         -1.712015    -3.186147    -0.206178

units ang
no_reorient
no_com
symmetry c1
}

set {
basis        aug-cc-pVTZ
scf_type     df
}

energy("mp2")
--------------------------------------------------------------------------

    Molecular point group: c1

    Geometry (in Angstrom), charge = -1, multiplicity = 1:

       Center              X                  Y                   Z               Mass
    ------------   -----------------  -----------------  -----------------  -----------------
         CL           0.000000000000     0.000000000000     0.000000000000    34.968852682000
         O            2.766194000000    -0.990872000000     1.334512000000    15.994914619570
         H            3.039003000000    -1.669598000000     0.704789000000     1.007825032230
         H            1.972907000000    -0.601045000000     0.984498000000     1.007825032230
         O            1.954164000000    -2.033443000000    -1.248793000000    15.994914619570
         H            2.754129000000    -1.997806000000    -1.786639000000     1.007825032230
         H            1.469395000000    -1.174972000000    -1.109340000000     1.007825032230
         O            0.724065000000     0.495149000000     3.233155000000    15.994914619570
         H            0.262707000000     0.210693000000     2.462424000000     1.007825032230
         H            1.506162000000    -0.008643000000     3.265816000000     1.007825032230
         O           -2.376968000000     0.795770000000    -2.094079000000    15.994914619570
         H           -2.494931000000     0.396759000000    -1.199738000000     1.007825032230
         H           -2.033227000000     1.702484000000    -1.954161000000     1.007825032230
         O           -1.121666000000    -3.050928000000     0.529231000000    15.994914619570
         H           -0.453203000000    -2.425550000000     0.260200000000     1.007825032230
         H           -1.712015000000    -3.186147000000    -0.206178000000     1.007825032230

  Charge       = -1
  Multiplicity = 1
  Basis Set: AUG-CC-PVTZ
    Blend: AUG-CC-PVTZ
  Basis Set: (AUG-CC-PVTZ AUX)
    Blend: AUG-CC-PVTZ-JKFIT

    Orbital Energies [Eh]
    ---------------------

    Doubly Occupied:

       1A   -104.580878     2A    -20.434036     3A    -20.425199
       4A    -20.411109     5A    -20.402599     6A    -20.398861
       7A    -10.306310     8A     -7.772447     9A     -7.772357
      10A     -7.772334    11A     -1.205149    12A     -1.204113
      13A     -1.202359    14A     -1.201250    15A     -1.190966
      16A     -0.826215    17A     -0.594151    18A     -0.575615
      19A     -0.573772    20A     -0.573003    21A     -0.565677
      22A     -0.444430    23A     -0.439449    24A     -0.432153
      25A     -0.429235    26A     -0.425202    27A     -0.374674
      28A     -0.365354    29A     -0.359681    30A     -0.353284
      31A     -0.351313    32A     -0.240043    33A     -0.234950
      34A     -0.233561

  @DF-RHF Final Energy:  -839.92379955281831

   => Energetics <=

    Nuclear Repulsion Energy =            310.1392545455019558
    One-Electron Energy =               -1790.7826462079526664
    Two-Electron Energy =                 640.7195921096324582
    Total Energy =                       -839.9237995528183092
 Dipole X            :        -37.6552850           37.5625378           -0.0927471
 Dipole Y            :         89.8629687          -88.8708282            0.9921404
 Dipole Z            :        -30.8707495           29.2035989           -1.6671507
 Magnitude           :                                                    1.9422502
  Basis Set: (AUG-CC-PVTZ AUX)
    Blend: AUG-CC-PVTZ-RI
	 Reference Energy          =    -839.9237995528183092 [Eh]
	 Singles Energy            =      -0.0000000000000000 [Eh]
	 Same-Spin Energy          =      -0.4166014018432941 [Eh]
	 Opposite-Spin Energy      =      -1.2711529735226699 [Eh]
	 Correlation Energy        =      -1.6877543753659641 [Eh]
	 Total Energy              =    -841.6115539281843212 [Eh]

	 ================> DF-SCS-MP2 Energies <==================
	-----------------------------------------------------------
	 SCS Same-Spin Scale       =       0.3333333333333333 [-]
	 SCS Opposite-Spin Scale   =       1.2000000000000000 [-]
	 SCS Same-Spin Energy      =      -0.1388671339477647 [Eh]
	 SCS Opposite-Spin Energy  =      -1.5253835682272039 [Eh]
	 SCS Correlation Energy    =      -1.6642507021749686 [Eh]
	 SCS Total Energy          =    -841.5880502549932771 [Eh]
	-----------------------------------------------------------

*** Psi4 exiting successfully. Buy a developer a beer!
