                               Psi4 1.8.2 release

  ==> Input File <==

--------------------------------------------------------------------------
MEMORY 60 GB

molecule dimer {
0 1
Gh(Cl)     0.000000     0.000000     0.000000
Gh(O)     -1.229184    -2.993822     0.453137
Gh(H)     -0.418614    -3.395812     0.092820
Gh(H)     -1.013280    -2.074811     0.585463
Gh(O)     -1.235222    -1.766810    -2.572586
Gh(H)     -2.178163    -1.662201    -2.417220
Gh(H)     -0.769873    -1.718371    -1.664414
Gh(O)     -1.384432    -0.260144     2.883153
Gh(H)     -0.766609    -0.589156     3.510778
Gh(H)     -0.859119    -0.152996     2.083720
Gh(O)      1.607896     0.813395    -2.710175
Gh(H)      2.315273     1.449805    -2.414289
Gh(H)      1.015105     0.595265    -1.995542
Gh(O)      1.117807     2.673918     1.419992
Gh(H)      1.158491     1.823418     1.031762
Gh(H)      0.169419     2.693657     1.399060
O         -2.874762     0.414810    -1.653760
H         -2.035974     0.467676    -1.186949
H         -3.362591    -0.291211    -1.125177

units ang
no_reorient
no_com
symmetry c1
}

set {
basis        aug-cc-pVTZ
scf_type     df
}

energy("mp2")
--------------------------------------------------------------------------

    Molecular point group: c1

    Geometry (in Angstrom), charge = 0, multiplicity = 1:

       Center              X                  Y                   Z               Mass
    ------------   -----------------  -----------------  -----------------  -----------------
      Gh(CL)          0.000000000000     0.000000000000     0.000000000000    34.968852682000
      Gh(O)          -1.229184000000    -2.993822000000     0.453137000000    15.994914619570
      Gh(H)          -0.418614000000    -3.395812000000     0.092820000000     1.007825032230
      Gh(H)          -1.013280000000    -2.074811000000     0.585463000000     1.007825032230
      Gh(O)          -1.235222000000    -1.766810000000    -2.572586000000    15.994914619570
      Gh(H)          -2.178163000000    -1.662201000000    -2.417220000000     1.007825032230
      Gh(H)          -0.769873000000    -1.718371000000    -1.664414000000     1.007825032230
      Gh(O)          -1.384432000000    -0.260144000000     2.883153000000    15.994914619570
      Gh(H)          -0.766609000000    -0.589156000000     3.510778000000     1.007825032230
      Gh(H)          -0.859119000000    -0.152996000000     2.083720000000     1.007825032230
      Gh(O)           1.607896000000     0.813395000000    -2.710175000000    15.994914619570
      Gh(H)           2.315273000000     1.449805000000    -2.414289000000     1.007825032230
      Gh(H)           1.015105000000     0.595265000000    -1.995542000000     1.007825032230
      Gh(O)           1.117807000000     2.673918000000     1.419992000000    15.994914619570
      Gh(H)           1.158491000000     1.823418000000     1.031762000000     1.007825032230
      Gh(H)           0.169419000000     2.693657000000     1.399060000000     1.007825032230
         O           -2.874762000000     0.414810000000    -1.653760000000    15.994914619570
         H           -2.035974000000     0.467676000000    -1.186949000000     1.007825032230
         H           -3.362591000000    -0.291211000000    -1.125177000000     1.007825032230

  Charge       = 0
  Multiplicity = 1
  Basis Set: AUG-CC-PVTZ
    Blend: AUG-CC-PVTZ
  Basis Set: (AUG-CC-PVTZ AUX)
    Blend: AUG-CC-PVTZ-JKFIT

    Orbital Energies [Eh]
    ---------------------

    Doubly Occupied:

       1A    -20.572872     2A     -1.342075     3A     -0.698313
       4A     -0.584420     5A     -0.508991

  @DF-RHF Final Energy:   -76.05643611445306

   => Energetics <=

    Nuclear Repulsion Energy =              8.9496669050527036
    One-Electron Energy =                -122.5988628894253338
    Two-Electron Energy =                  37.5927598699195613
    Total Energy =                        -76.0564361144530636
 Dipole X            :         53.8974590          -53.6619122            0.2355469
 Dipole Y            :         -7.0240414            6.6044889           -0.4195526
 Dipole Z            :         30.0164486          -29.3705127            0.6459359
 Magnitude           :                                                    0.8054438
  Basis Set: (AUG-CC-PVTZ AUX)
    Blend: AUG-CC-PVTZ-RI
	 Reference Energy          =     -76.0564361144530636 [Eh]
	 Singles Energy            =      -0.0000000000000000 [Eh]
	 Same-Spin Energy          =      -0.0689547588407030 [Eh]
	 Opposite-Spin Energy      =      -0.2177785453500992 [Eh]
	 Correlation Energy        =      -0.2867333041908022 [Eh]
	 Total Energy              =     -76.3431694186438676 [Eh]

	 ================> DF-SCS-MP2 Energies <==================
	-----------------------------------------------------------
	 SCS Same-Spin Scale       =       0.3333333333333333 [-]
	 SCS Opposite-Spin Scale   =       1.2000000000000000 [-]
	 SCS Same-Spin Energy      =      -0.0229849196135677 [Eh]
	 SCS Opposite-Spin Energy  =      -0.2613342544201191 [Eh]
	 SCS Correlation Energy    =      -0.2843191740336868 [Eh]
	 SCS Total Energy          =     -76.3407552884867471 [Eh]
	-----------------------------------------------------------

*** Psi4 exiting successfully. Buy a developer a beer!
