                               Psi4 1.8.2 release

  ==> Input File <==

--------------------------------------------------------------------------
MEMORY 60 GB

molecule dimer {
-1 1
Cl         0.000000     0.000000     0.000000
Gh(O)      0.309276     2.230580     2.384255
Gh(H)      0.172358     1.780632     1.568707
Gh(H)      0.070820     1.580932     3.070981
Gh(O)     -3.106756    -1.201459     0.184859
Gh(H)     -3.615730    -1.153433    -0.609588
Gh(H)     -2.337299    -0.547263     0.106862
Gh(O)      2.375058     0.829933    -1.953883
Gh(H)      2.611264     1.792549    -2.051113
Gh(H)      1.790705     0.628269    -1.215983
Gh(O)     -0.849852     2.660511    -1.102632
Gh(H)     -0.932491     2.833868    -2.029998
Gh(H)     -0.711092     1.689129    -1.111696

units ang
no_reorient
no_com
symmetry c1
}

set {
basis        aug-cc-pVTZ
scf_type     df
}

energy("mp2")
--------------------------------------------------------------------------

    Molecular point group: c1

    Geometry (in Angstrom), charge = -1, multiplicity = 1:

       Center              X                  Y                   Z               Mass
    ------------   -----------------  -----------------  -----------------  -----------------
         CL           0.000000000000     0.000000000000     0.000000000000    34.968852682000
      Gh(O)           0.309276000000     2.230580000000     2.384255000000    15.994914619570
      Gh(H)           0.172358000000     1.780632000000     1.568707000000     1.007825032230
      Gh(H)           0.070820000000     1.580932000000     3.070981000000     1.007825032230
      Gh(O)          -3.106756000000    -1.201459000000     0.184859000000    15.994914619570
      Gh(H)          -3.615730000000    -1.153433000000    -0.609588000000     1.007825032230
      Gh(H)          -2.337299000000    -0.547263000000     0.106862000000     1.007825032230
      Gh(O)           2.375058000000     0.829933000000    -1.953883000000    15.994914619570
      Gh(H)           2.611264000000     1.792549000000    -2.051113000000     1.007825032230
      Gh(H)           1.790705000000     0.628269000000    -1.215983000000     1.007825032230
      Gh(O)          -0.849852000000     2.660511000000    -1.102632000000    15.994914619570
      Gh(H)          -0.932491000000     2.833868000000    -2.029998000000     1.007825032230
      Gh(H)          -0.711092000000     1.689129000000    -1.111696000000     1.007825032230

  Charge       = -1
  Multiplicity = 1
  Basis Set: AUG-CC-PVTZ
    Blend: AUG-CC-PVTZ
  Basis Set: (AUG-CC-PVTZ AUX)
    Blend: AUG-CC-PVTZ-JKFIT

    Orbital Energies [Eh]
    ---------------------

    Doubly Occupied:

       1A   -104.507089     2A    -10.230016     3A     -7.696081
       4A     -7.696072     5A     -7.696061     6A     -0.733473
       7A     -0.150315     8A     -0.150310     9A     -0.150308

  @DF-RHF Final Energy:  -459.57356604435893

   => Energetics <=

    Nuclear Repulsion Energy =              0.0000000000000000
    One-Electron Energy =                -641.1276976376119592
    Two-Electron Energy =                 181.5541315932530892
    Total Energy =                       -459.5735660443588699
 Dipole X            :         -0.0001811            0.0000000           -0.0001811
 Dipole Y            :          0.0005641            0.0000000            0.0005641
 Dipole Z            :         -0.0002911            0.0000000           -0.0002911
 Magnitude           :                                                    0.0006601
  Basis Set: (AUG-CC-PVTZ AUX)
    Blend: AUG-CC-PVTZ-RI
	 Reference Energy          =    -459.5735660443589268 [Eh]
	 Singles Energy            =      -0.0000000000000000 [Eh]
	 Same-Spin Energy          =      -0.0633827839061861 [Eh]
	 Opposite-Spin Energy      =      -0.1832690402726226 [Eh]
	 Correlation Energy        =      -0.2466518241788087 [Eh]
	 Total Energy              =    -459.8202178685377248 [Eh]

	 ================> DF-SCS-MP2 Energies <==================
	-----------------------------------------------------------
	 SCS Same-Spin Scale       =       0.3333333333333333 [-]
	 SCS Opposite-Spin Scale   =       1.2000000000000000 [-]
	 SCS Same-Spin Energy      =      -0.0211275946353954 [Eh]
	 SCS Opposite-Spin Energy  =      -0.2199228483271472 [Eh]
	 SCS Correlation Energy    =      -0.2410504429625425 [Eh]
	 SCS Total Energy          =    -459.8146164873214730 [Eh]
	-----------------------------------------------------------

*** Psi4 exiting successfully. Buy a developer a beer!
