                               Psi4 1.8.2 release

  ==> Input File <==

--------------------------------------------------------------------------
MEMORY 60 GB

molecule dimer {
-1 1
Cl         0.000000     0.000000     0.000000
O         -1.550121    -2.503736     1.521143
H         -1.089309    -1.869996     0.932707
H         -1.319323    -2.335642     2.424472
O          0.184732    -2.287568    -2.409063
H          1.112085    -2.569768    -2.573994
H          0.198435    -2.075550    -1.478929
O         -1.452646     2.875747     0.283089
H         -1.016356     3.736085    -0.020414
H         -0.912142     2.095615    -0.030166
O          0.817085     2.063335     2.435791
H          0.226373     1.845365     3.163772
H          0.605925     1.633571     1.595503
O         -2.797363     0.160881    -1.865404
H         -2.079019    -0.043372    -1.312063
H         -2.486557     0.239144    -2.809480

units ang
no_reorient
no_com
symmetry c1
}

set {
basis        aug-cc-pVTZ
scf_type     df
}

energy("mp2")
--------------------------------------------------------------------------

    Molecular point group: c1

    Geometry (in Angstrom), charge = -1, multiplicity = 1:

       Center              X                  Y                   Z               Mass
    ------------   -----------------  -----------------  -----------------  -----------------
         CL           0.000000000000     0.000000000000     0.000000000000    34.968852682000
         O           -1.550121000000    -2.503736000000     1.521143000000    15.994914619570
         H           -1.089309000000    -1.869996000000     0.932707000000     1.007825032230
         H           -1.319323000000    -2.335642000000     2.424472000000     1.007825032230
         O            0.184732000000    -2.287568000000    -2.409063000000    15.994914619570
         H            1.112085000000    -2.569768000000    -2.573994000000     1.007825032230
         H            0.198435000000    -2.075550000000    -1.478929000000     1.007825032230
         O           -1.452646000000     2.875747000000     0.283089000000    15.994914619570
         H           -1.016356000000     3.736085000000    -0.020414000000     1.007825032230
         H           -0.912142000000     2.095615000000    -0.030166000000     1.007825032230
         O            0.817085000000     2.063335000000     2.435791000000    15.994914619570
         H            0.226373000000     1.845365000000     3.163772000000     1.007825032230
         H            0.605925000000     1.633571000000     1.595503000000     1.007825032230
         O           -2.797363000000     0.160881000000    -1.865404000000    15.994914619570
         H           -2.079019000000    -0.043372000000    -1.312063000000     1.007825032230
         H           -2.486557000000     0.239144000000    -2.809480000000     1.007825032230

  Charge       = -1
  Multiplicity = 1
  Basis Set: AUG-CC-PVTZ
    Blend: AUG-CC-PVTZ
  Basis Set: (AUG-CC-PVTZ AUX)
    Blend: AUG-CC-PVTZ-JKFIT

    Orbital Energies [Eh]
    ---------------------

    Doubly Occupied:

       1A   -104.589742     2A    -20.434532     3A    -20.416310
       4A    -20.414599     5A    -20.408674     6A    -20.408167
       7A    -10.314977     8A     -7.781143     9A     -7.781038
      10A     -7.781011    11A     -1.215373    12A     -1.200570
      13A     -1.191981    14A     -1.191108    15A     -1.172477
      16A     -0.833407    17A     -0.583258    18A     -0.579501
      19A     -0.573856    20A     -0.570353    21A     -0.548120
      22A     -0.455654    23A     -0.431340    24A     -0.421334
      25A     -0.417140    26A     -0.414549    27A     -0.377266
      28A     -0.363997    29A     -0.362766    30A     -0.354084
      31A     -0.342332    32A     -0.249192    33A     -0.243359
      34A     -0.240604

  @DF-RHF Final Energy:  -839.91701465301412

   => Energetics <=

    Nuclear Repulsion Energy =            299.9885824566055703
    One-Electron Energy =               -1770.4835621707131850
    Two-Electron Energy =                 630.5779650610934368
    Total Energy =                       -839.9170146530141210
 Dipole X            :         87.5052119          -85.3143164            2.1908955
 Dipole Y            :         -5.9696466            5.9048726           -0.0647740
 Dipole Z            :          0.6098752           -0.7259270           -0.1160518
 Magnitude           :                                                    2.1949229
  Basis Set: (AUG-CC-PVTZ AUX)
    Blend: AUG-CC-PVTZ-RI
	 Reference Energy          =    -839.9170146530141210 [Eh]
	 Singles Energy            =      -0.0000000000000000 [Eh]
	 Same-Spin Energy          =      -0.4159605282811380 [Eh]
	 Opposite-Spin Energy      =      -1.2729977013995679 [Eh]
	 Correlation Energy        =      -1.6889582296807060 [Eh]
	 Total Energy              =    -841.6059728826948003 [Eh]

	 ================> DF-SCS-MP2 Energies <==================
	-----------------------------------------------------------
	 SCS Same-Spin Scale       =       0.3333333333333333 [-]
	 SCS Opposite-Spin Scale   =       1.2000000000000000 [-]
	 SCS Same-Spin Energy      =      -0.1386535094270460 [Eh]
	 SCS Opposite-Spin Energy  =      -1.5275972416794814 [Eh]
	 SCS Correlation Energy    =      -1.6662507511065274 [Eh]
	 SCS Total Energy          =    -841.5832654041206524 [Eh]
	-----------------------------------------------------------

*** Psi4 exiting successfully. Buy a developer a beer!
