                               Psi4 1.8.2 release

  ==> Input File <==

--------------------------------------------------------------------------
MEMORY 60 GB

molecule dimer {
-1 1
Cl         0.000000     0.000000     0.000000
O         -0.492503    -3.205237    -1.072721
H         -0.160426    -3.707051    -0.306645
H         -0.669682    -2.344857    -0.639707
O          1.175860     2.754777    -0.846269
H          0.509189     2.080200    -0.680117
H          0.850151     3.534482    -0.372311
O          1.094463     2.253006     1.985402
H          0.167817     2.461694     2.105720
H          1.107492     1.486664     1.400269
O         -2.181360    -0.134466     2.316522
H         -2.488476    -0.815776     1.739941
H         -1.316019     0.166729     1.976239
O          2.825452    -0.879212     0.944999
H          1.891967    -0.727444     0.892758
H          3.307089    -0.017689     1.010326

units ang
no_reorient
no_com
symmetry c1
}

set {
basis        aug-cc-pVTZ
scf_type     df
}

energy("mp2")
--------------------------------------------------------------------------

    Molecular point group: c1

    Geometry (in Angstrom), charge = -1, multiplicity = 1:

       Center              X                  Y                   Z               Mass
    ------------   -----------------  -----------------  -----------------  -----------------
         CL           0.000000000000     0.000000000000     0.000000000000    34.968852682000
         O           -0.492503000000    -3.205237000000    -1.072721000000    15.994914619570
         H           -0.160426000000    -3.707051000000    -0.306645000000     1.007825032230
         H           -0.669682000000    -2.344857000000    -0.639707000000     1.007825032230
         O            1.175860000000     2.754777000000    -0.846269000000    15.994914619570
         H            0.509189000000     2.080200000000    -0.680117000000     1.007825032230
         H            0.850151000000     3.534482000000    -0.372311000000     1.007825032230
         O            1.094463000000     2.253006000000     1.985402000000    15.994914619570
         H            0.167817000000     2.461694000000     2.105720000000     1.007825032230
         H            1.107492000000     1.486664000000     1.400269000000     1.007825032230
         O           -2.181360000000    -0.134466000000     2.316522000000    15.994914619570
         H           -2.488476000000    -0.815776000000     1.739941000000     1.007825032230
         H           -1.316019000000     0.166729000000     1.976239000000     1.007825032230
         O            2.825452000000    -0.879212000000     0.944999000000    15.994914619570
         H            1.891967000000    -0.727444000000     0.892758000000     1.007825032230
         H            3.307089000000    -0.017689000000     1.010326000000     1.007825032230

  Charge       = -1
  Multiplicity = 1
  Basis Set: AUG-CC-PVTZ
    Blend: AUG-CC-PVTZ
  Basis Set: (AUG-CC-PVTZ AUX)
    Blend: AUG-CC-PVTZ-JKFIT

    Orbital Energies [Eh]
    ---------------------

    Doubly Occupied:

       1A   -104.595101     2A    -20.434723     3A    -20.422863
       4A    -20.421292     5A    -20.411979     6A    -20.408995
       7A    -10.321051     8A     -7.787148     9A     -7.787110
      10A     -7.787047    11A     -1.212203    12A     -1.211350
      13A     -1.209976    14A     -1.196374    15A     -1.191250
      16A     -0.843493    17A     -0.583263    18A     -0.578891
      19A     -0.571154    20A     -0.563425    21A     -0.560892
      22A     -0.458715    23A     -0.449860    24A     -0.445446
      25A     -0.435727    26A     -0.424067    27A     -0.381867
      28A     -0.375404    29A     -0.370528    30A     -0.355391
      31A     -0.345814    32A     -0.254210    33A     -0.252443
      34A     -0.247870

  @DF-RHF Final Energy:  -839.92494797835116

   => Energetics <=

    Nuclear Repulsion Energy =            310.3557215570788230
    One-Electron Energy =               -1790.7674931518536141
    Two-Electron Energy =                 640.4868236164236350
    Total Energy =                       -839.9249479783511561
 Dipole X            :        -43.8748388           42.6594297           -1.2154091
 Dipole Y            :        -15.7236623           15.9264153            0.2027530
 Dipole Z            :        -63.9798156           63.7781377           -0.2016779
 Magnitude           :                                                    1.2486000
  Basis Set: (AUG-CC-PVTZ AUX)
    Blend: AUG-CC-PVTZ-RI
	 Reference Energy          =    -839.9249479783511561 [Eh]
	 Singles Energy            =      -0.0000000000000000 [Eh]
	 Same-Spin Energy          =      -0.4176051699113018 [Eh]
	 Opposite-Spin Energy      =      -1.2739249904346175 [Eh]
	 Correlation Energy        =      -1.6915301603459192 [Eh]
	 Total Energy              =    -841.6164781386970617 [Eh]

	 ================> DF-SCS-MP2 Energies <==================
	-----------------------------------------------------------
	 SCS Same-Spin Scale       =       0.3333333333333333 [-]
	 SCS Opposite-Spin Scale   =       1.2000000000000000 [-]
	 SCS Same-Spin Energy      =      -0.1392017233037672 [Eh]
	 SCS Opposite-Spin Energy  =      -1.5287099885215409 [Eh]
	 SCS Correlation Energy    =      -1.6679117118253082 [Eh]
	 SCS Total Energy          =    -841.5928596901765104 [Eh]
	-----------------------------------------------------------

*** Psi4 exiting successfully. Buy a developer a beer!
