                               Psi4 1.9 release

  ==> Input File <==

--------------------------------------------------------------------------
MEMORY 60 GB

molecule dimer {
-1 1
Cl     0.000000     0.000000     0.000000
--
0 1
O      3.272233    -0.339230     0.465325
H      2.339576    -0.145698     0.219241
H      3.571731     0.299655     1.166361
O      0.347877     2.802529     1.428865
H     -0.125574     3.335043     0.784056
H      0.515121     1.891836     1.111430
O      0.954444    -2.748896     1.108647
H      1.725578    -3.078670     0.722052
H      0.880431    -1.768924     0.971943
O     -0.111136    -0.616714     3.117009
H     -0.296790     0.160491     3.738680
H     -0.092426    -0.202776     2.240970
O     -2.552283     1.901749     0.193843
H     -1.976931     1.085456    -0.094548
H     -2.580680     1.825291     1.177092

units ang
no_reorient
no_com
symmetry c1
}

set {
basis        aug-cc-pVTZ
scf_type     df
}

energy("mp2", bsse_type="cp")
--------------------------------------------------------------------------

                               Psi4 1.9 release
    Molecular point group: c1
  Charge       = 0
  Multiplicity = 1
  Basis Set: AUG-CC-PVTZ
    Blend: AUG-CC-PVTZ
  Basis Set: (AUG-CC-PVTZ AUX)
    Blend: AUG-CC-PVTZ-JKFIT
  @DF-RHF Final Energy:  -380.26642255771333
    Total Energy =                       -380.2664225577133266
 Dipole X            :        -36.2565496           36.3755574            0.1190078
 Dipole Y            :        -20.5857441           21.5376017            0.9518576
 Dipole Z            :       -118.4831437          118.1963012           -0.2868425
 Magnitude           :                                                    1.0012365
  Basis Set: (AUG-CC-PVTZ AUX)
    Blend: AUG-CC-PVTZ-RI
	 Reference Energy          =    -380.2664225577133266 [Eh]
	 Singles Energy            =      -0.0000000000000000 [Eh]
	 Same-Spin Energy          =      -0.3465101190408968 [Eh]
	 Opposite-Spin Energy      =      -1.0889237718458991 [Eh]
	 Correlation Energy        =      -1.4354338908867958 [Eh]
	 Total Energy              =    -381.7018564486000969 [Eh]
	 SCS Total Energy          =    -381.6886344569420544 [Eh]
                               Psi4 1.9 release
    Molecular point group: c1
  Multiplicity = 1
  Basis Set: AUG-CC-PVTZ
    Blend: AUG-CC-PVTZ
  Basis Set: (AUG-CC-PVTZ AUX)
    Blend: AUG-CC-PVTZ-JKFIT
  @DF-RHF Final Energy:  -459.57358413848965
    Total Energy =                       -459.5735841384896503
  Basis Set: (AUG-CC-PVTZ AUX)
	 Singles Energy            =      -0.0000000000000000 [Eh]
	 Same-Spin Energy          =      -0.0636314382415689 [Eh]
	 Opposite-Spin Energy      =      -0.1843100888393799 [Eh]
	 Correlation Energy        =      -0.2479415270809488 [Eh]
	 Total Energy              =    -459.8215256655706185 [Eh]
	 SCS Total Energy          =    -459.8159667245107585 [Eh]
                               Psi4 1.9 release
    Molecular point group: c1

    Geometry (in Bohr), charge = -1, multiplicity = 1:

       Center              X                  Y                   Z               Mass
    ------------   -----------------  -----------------  -----------------  -----------------
         CL           0.000000000000     0.000000000000     0.000000000000    34.968852682000
         O            6.183624188685    -0.641051793539     0.879336809329    15.994914619570
         H            4.421157889694    -0.275329317027     0.414305445471     1.007825032230
         H            6.749593383808     0.566265882124     2.204102853415     1.007825032230
         O            0.657392255346     5.296012268653     2.700163520252    15.994914619570
         H           -0.237300468478     6.302317886625     1.481651107022     1.007825032230
         H            0.973437611472     3.575051914282     2.100298307618     1.007825032230
         O            1.803637762086    -5.194660587367     2.095039199810    15.994914619570
         H            3.260869828115    -5.817843130663     1.364480528339     1.007825032230
         H            1.663773462363    -3.342781896749     1.836706079556     1.007825032230
         O           -0.210016602679    -1.165420557736     5.890293340587    15.994914619570
         H           -0.560851816775     0.303284035601     7.065081270727     1.007825032230
         H           -0.174659826872    -0.383191104816     4.234819555367     1.007825032230
         O           -4.823115864662     3.593784769363     0.366310181337    15.994914619570
         H           -3.735858158927     2.051214561235    -0.178669825710     1.007825032230
         H           -4.876778417447     3.449300089263     2.224381504467     1.007825032230

  Charge       = -1
  Multiplicity = 1
  Basis Set: AUG-CC-PVTZ
    Blend: AUG-CC-PVTZ
  Basis Set: (AUG-CC-PVTZ AUX)
    Blend: AUG-CC-PVTZ-JKFIT

    Orbital Energies [Eh]
    ---------------------

    Doubly Occupied:

       1A   -104.600659     2A    -20.429639     3A    -20.424779
       4A    -20.420685     5A    -20.416026     6A    -20.389855
       7A    -10.326655     8A     -7.792762     9A     -7.792676
      10A     -7.792628    11A     -1.197626    12A     -1.197176
      13A     -1.189600    14A     -1.181485    15A     -1.180347
      16A     -0.850548    17A     -0.582779    18A     -0.574799
      19A     -0.566796    20A     -0.547314    21A     -0.541973
      22A     -0.438399    23A     -0.435442    24A     -0.433873
      25A     -0.429511    26A     -0.408358    27A     -0.370393
      28A     -0.368886    29A     -0.359494    30A     -0.353789
      31A     -0.338906    32A     -0.260311    33A     -0.256350
      34A     -0.252547

  @DF-RHF Final Energy:  -839.91083478888686

   => Energetics <=

    Nuclear Repulsion Energy =            317.8227374726071162
    One-Electron Energy =               -1806.0610065807375122
    Two-Electron Energy =                 648.3274343192435936
    Total Energy =                       -839.9108347888868593
 Dipole X            :        -36.4929903           36.3755574           -0.1174329
 Dipole Y            :        -20.8527628           21.5376017            0.6848389
 Dipole Z            :       -119.3363983          118.1963012           -1.1400971
 Magnitude           :                                                    1.3351465
  Basis Set: (AUG-CC-PVTZ AUX)
    Blend: AUG-CC-PVTZ-RI
	 Reference Energy          =    -839.9108347888868593 [Eh]
	 Singles Energy            =      -0.0000000000000000 [Eh]
	 Same-Spin Energy          =      -0.4206844932790253 [Eh]
	 Opposite-Spin Energy      =      -1.2803123588905931 [Eh]
	 Correlation Energy        =      -1.7009968521696184 [Eh]
	 Total Energy              =    -841.6118316410564830 [Eh]

	 ================> DF-SCS-MP2 Energies <==================
	-----------------------------------------------------------
	 SCS Same-Spin Scale       =       0.3333333333333333 [-]
	 SCS Opposite-Spin Scale   =       1.2000000000000000 [-]
	 SCS Same-Spin Energy      =      -0.1402281644263418 [Eh]
	 SCS Opposite-Spin Energy  =      -1.5363748306687117 [Eh]
	 SCS Correlation Energy    =      -1.6766029950950534 [Eh]
	 SCS Total Energy          =    -841.5874377839819545 [Eh]
	-----------------------------------------------------------

*** Psi4 exiting successfully. Buy a developer a beer!
