                               Psi4 1.8.2 release

  ==> Input File <==

--------------------------------------------------------------------------
MEMORY 60 GB

molecule dimer {
0 1
Gh(Cl)     0.000000     0.000000     0.000000
Gh(O)      2.004466    -0.496177     2.546536
Gh(H)      2.585244    -1.154785     2.189831
Gh(H)      1.363421    -0.266412     1.830507
Gh(O)      2.479580    -1.598125    -1.227379
Gh(H)      1.827334    -1.093465    -0.781736
Gh(H)      2.036467    -2.371329    -1.587810
Gh(O)     -2.771537     0.837457     1.822875
Gh(H)     -3.237440     0.820329     0.989508
Gh(H)     -2.323566     0.003383     1.867055
O         -0.416174    -1.379225    -3.003309
H         -0.168991    -0.896023    -2.169454
H          0.155754    -2.140456    -3.062651

units ang
no_reorient
no_com
symmetry c1
}

set {
basis        aug-cc-pVTZ
scf_type     df
}

energy("mp2")
--------------------------------------------------------------------------

    Molecular point group: c1

    Geometry (in Angstrom), charge = 0, multiplicity = 1:

       Center              X                  Y                   Z               Mass
    ------------   -----------------  -----------------  -----------------  -----------------
      Gh(CL)          0.000000000000     0.000000000000     0.000000000000    34.968852682000
      Gh(O)           2.004466000000    -0.496177000000     2.546536000000    15.994914619570
      Gh(H)           2.585244000000    -1.154785000000     2.189831000000     1.007825032230
      Gh(H)           1.363421000000    -0.266412000000     1.830507000000     1.007825032230
      Gh(O)           2.479580000000    -1.598125000000    -1.227379000000    15.994914619570
      Gh(H)           1.827334000000    -1.093465000000    -0.781736000000     1.007825032230
      Gh(H)           2.036467000000    -2.371329000000    -1.587810000000     1.007825032230
      Gh(O)          -2.771537000000     0.837457000000     1.822875000000    15.994914619570
      Gh(H)          -3.237440000000     0.820329000000     0.989508000000     1.007825032230
      Gh(H)          -2.323566000000     0.003383000000     1.867055000000     1.007825032230
         O           -0.416174000000    -1.379225000000    -3.003309000000    15.994914619570
         H           -0.168991000000    -0.896023000000    -2.169454000000     1.007825032230
         H            0.155754000000    -2.140456000000    -3.062651000000     1.007825032230

  Charge       = 0
  Multiplicity = 1
  Basis Set: AUG-CC-PVTZ
    Blend: AUG-CC-PVTZ
  Basis Set: (AUG-CC-PVTZ AUX)
    Blend: AUG-CC-PVTZ-JKFIT

    Orbital Energies [Eh]
    ---------------------

    Doubly Occupied:

       1A    -20.568992     2A     -1.343581     3A     -0.712996
       4A     -0.576846     5A     -0.508247

  @DF-RHF Final Energy:   -76.05814862582773

   => Energetics <=

    Nuclear Repulsion Energy =              9.0305083973111735
    One-Electron Energy =                -122.7559869279889853
    Two-Electron Energy =                  37.6673299048500780
    Total Energy =                        -76.0581486258277266
 Dipole X            :          6.8613206           -6.3166533            0.5446673
 Dipole Y            :         26.3995645          -26.5889738           -0.1894094
 Dipole Z            :         55.8007227          -55.2906974            0.5100254
 Magnitude           :                                                    0.7698469
  Basis Set: (AUG-CC-PVTZ AUX)
    Blend: AUG-CC-PVTZ-RI
	 Reference Energy          =     -76.0581486258277266 [Eh]
	 Singles Energy            =      -0.0000000000000000 [Eh]
	 Same-Spin Energy          =      -0.0686365868987158 [Eh]
	 Opposite-Spin Energy      =      -0.2165514223036003 [Eh]
	 Correlation Energy        =      -0.2851880092023161 [Eh]
	 Total Energy              =     -76.3433366350300417 [Eh]

	 ================> DF-SCS-MP2 Energies <==================
	-----------------------------------------------------------
	 SCS Same-Spin Scale       =       0.3333333333333333 [-]
	 SCS Opposite-Spin Scale   =       1.2000000000000000 [-]
	 SCS Same-Spin Energy      =      -0.0228788622995719 [Eh]
	 SCS Opposite-Spin Energy  =      -0.2598617067643203 [Eh]
	 SCS Correlation Energy    =      -0.2827405690638922 [Eh]
	 SCS Total Energy          =     -76.3408891948916164 [Eh]
	-----------------------------------------------------------

*** Psi4 exiting successfully. Buy a developer a beer!
