                               Psi4 1.8.2 release

  ==> Input File <==

--------------------------------------------------------------------------
MEMORY 60 GB

molecule dimer {
0 1
Gh(Cl)     0.000000     0.000000     0.000000
Gh(O)      2.580413    -0.085154    -1.557658
Gh(H)      1.740288    -0.171482    -1.041132
Gh(H)      2.991017    -0.923894    -1.427814
Gh(O)     -2.460905    -2.327479    -0.521416
Gh(H)     -1.544293    -2.447915    -0.236860
Gh(H)     -2.917761    -3.166475    -0.428069
O          0.510044     1.531334     2.976305
H          0.808066     1.990027     2.164238
H          0.061676     0.714654     2.566184
Gh(O)     -3.154292     0.989802    -0.487484
Gh(H)     -3.631637     0.174371    -0.654459
Gh(H)     -2.267810     0.655784    -0.465304
Gh(O)     -0.248988    -1.979578    -2.367955
Gh(H)      0.454594    -1.824462    -2.932228
Gh(H)     -0.066118    -1.448601    -1.593092

units ang
no_reorient
no_com
symmetry c1
}

set {
basis        aug-cc-pVTZ
scf_type     df
}

energy("mp2")
--------------------------------------------------------------------------

    Molecular point group: c1

    Geometry (in Angstrom), charge = 0, multiplicity = 1:

       Center              X                  Y                   Z               Mass
    ------------   -----------------  -----------------  -----------------  -----------------
      Gh(CL)          0.000000000000     0.000000000000     0.000000000000    34.968852682000
      Gh(O)           2.580413000000    -0.085154000000    -1.557658000000    15.994914619570
      Gh(H)           1.740288000000    -0.171482000000    -1.041132000000     1.007825032230
      Gh(H)           2.991017000000    -0.923894000000    -1.427814000000     1.007825032230
      Gh(O)          -2.460905000000    -2.327479000000    -0.521416000000    15.994914619570
      Gh(H)          -1.544293000000    -2.447915000000    -0.236860000000     1.007825032230
      Gh(H)          -2.917761000000    -3.166475000000    -0.428069000000     1.007825032230
         O            0.510044000000     1.531334000000     2.976305000000    15.994914619570
         H            0.808066000000     1.990027000000     2.164238000000     1.007825032230
         H            0.061676000000     0.714654000000     2.566184000000     1.007825032230
      Gh(O)          -3.154292000000     0.989802000000    -0.487484000000    15.994914619570
      Gh(H)          -3.631637000000     0.174371000000    -0.654459000000     1.007825032230
      Gh(H)          -2.267810000000     0.655784000000    -0.465304000000     1.007825032230
      Gh(O)          -0.248988000000    -1.979578000000    -2.367955000000    15.994914619570
      Gh(H)           0.454594000000    -1.824462000000    -2.932228000000     1.007825032230
      Gh(H)          -0.066118000000    -1.448601000000    -1.593092000000     1.007825032230

  Charge       = 0
  Multiplicity = 1
  Basis Set: AUG-CC-PVTZ
    Blend: AUG-CC-PVTZ
  Basis Set: (AUG-CC-PVTZ AUX)
    Blend: AUG-CC-PVTZ-JKFIT

    Orbital Energies [Eh]
    ---------------------

    Doubly Occupied:

       1A    -20.576198     2A     -1.336587     3A     -0.687918
       4A     -0.585263     5A     -0.508525

  @DF-RHF Final Energy:   -76.05383354838982

   => Energetics <=

    Nuclear Repulsion Energy =              8.8280731420195746
    One-Electron Energy =                -122.3748300076209148
    Two-Electron Energy =                  37.4929233172115204
    Total Energy =                        -76.0538335483898180
 Dipole X            :         -9.4470158            9.3543220           -0.0926938
 Dipole Y            :        -28.4847643           28.2615213           -0.2232430
 Dipole Z            :        -54.7199048           53.9344126           -0.7854922
 Magnitude           :                                                    0.8218440
  Basis Set: (AUG-CC-PVTZ AUX)
    Blend: AUG-CC-PVTZ-RI
	 Reference Energy          =     -76.0538335483898180 [Eh]
	 Singles Energy            =      -0.0000000000000000 [Eh]
	 Same-Spin Energy          =      -0.0691905871529737 [Eh]
	 Opposite-Spin Energy      =      -0.2179294249124716 [Eh]
	 Correlation Energy        =      -0.2871200120654454 [Eh]
	 Total Energy              =     -76.3409535604552616 [Eh]

	 ================> DF-SCS-MP2 Energies <==================
	-----------------------------------------------------------
	 SCS Same-Spin Scale       =       0.3333333333333333 [-]
	 SCS Opposite-Spin Scale   =       1.2000000000000000 [-]
	 SCS Same-Spin Energy      =      -0.0230635290509912 [Eh]
	 SCS Opposite-Spin Energy  =      -0.2615153098949659 [Eh]
	 SCS Correlation Energy    =      -0.2845788389459571 [Eh]
	 SCS Total Energy          =     -76.3384123873357794 [Eh]
	-----------------------------------------------------------

*** Psi4 exiting successfully. Buy a developer a beer!
