                               Psi4 1.8.2 release

  ==> Input File <==

--------------------------------------------------------------------------
MEMORY 60 GB

molecule dimer {
0 1
Gh(Cl)     0.000000     0.000000     0.000000
O         -3.038300     0.134622    -1.043661
H         -3.193085    -0.817042    -1.081050
H         -2.168895     0.204810    -0.622911
Gh(O)      0.823564     1.469194    -2.905263
Gh(H)      0.448094     2.356201    -2.904934
Gh(H)      0.575772     1.029626    -2.123683
Gh(O)      0.828626     1.168457     2.974264
Gh(H)      0.970257     2.138629     3.098186
Gh(H)      0.641650     1.018427     2.076444
Gh(O)     -0.318478    -2.578120     1.970563
Gh(H)     -0.430935    -1.762301     1.500686
Gh(H)      0.695700    -2.767996     1.959541
Gh(O)     -0.851147     3.093003    -0.308058
Gh(H)     -0.095872     3.522305     0.160168
Gh(H)     -0.635313     2.177807    -0.311008

units ang
no_reorient
no_com
symmetry c1
}

set {
basis        aug-cc-pVTZ
scf_type     df
}

energy("mp2")
--------------------------------------------------------------------------

    Molecular point group: c1

    Geometry (in Angstrom), charge = 0, multiplicity = 1:

       Center              X                  Y                   Z               Mass
    ------------   -----------------  -----------------  -----------------  -----------------
      Gh(CL)          0.000000000000     0.000000000000     0.000000000000    34.968852682000
         O           -3.038300000000     0.134622000000    -1.043661000000    15.994914619570
         H           -3.193085000000    -0.817042000000    -1.081050000000     1.007825032230
         H           -2.168895000000     0.204810000000    -0.622911000000     1.007825032230
      Gh(O)           0.823564000000     1.469194000000    -2.905263000000    15.994914619570
      Gh(H)           0.448094000000     2.356201000000    -2.904934000000     1.007825032230
      Gh(H)           0.575772000000     1.029626000000    -2.123683000000     1.007825032230
      Gh(O)           0.828626000000     1.168457000000     2.974264000000    15.994914619570
      Gh(H)           0.970257000000     2.138629000000     3.098186000000     1.007825032230
      Gh(H)           0.641650000000     1.018427000000     2.076444000000     1.007825032230
      Gh(O)          -0.318478000000    -2.578120000000     1.970563000000    15.994914619570
      Gh(H)          -0.430935000000    -1.762301000000     1.500686000000     1.007825032230
      Gh(H)           0.695700000000    -2.767996000000     1.959541000000     1.007825032230
      Gh(O)          -0.851147000000     3.093003000000    -0.308058000000    15.994914619570
      Gh(H)          -0.095872000000     3.522305000000     0.160168000000     1.007825032230
      Gh(H)          -0.635313000000     2.177807000000    -0.311008000000     1.007825032230

  Charge       = 0
  Multiplicity = 1
  Basis Set: AUG-CC-PVTZ
    Blend: AUG-CC-PVTZ
  Basis Set: (AUG-CC-PVTZ AUX)
    Blend: AUG-CC-PVTZ-JKFIT

    Orbital Energies [Eh]
    ---------------------

    Doubly Occupied:

       1A    -20.569275     2A     -1.349499     3A     -0.710578
       4A     -0.585190     5A     -0.509891

  @DF-RHF Final Energy:   -76.05979917848568

   => Energetics <=

    Nuclear Repulsion Energy =              9.1076459136026315
    One-Electron Energy =                -122.8860199958523367
    Two-Electron Energy =                  37.7185749037640363
    Total Energy =                        -76.0597991784856760
 Dipole X            :         56.5362674          -56.0651128            0.4711546
 Dipole Y            :         -1.4599528            0.8782389           -0.5817139
 Dipole Z            :         19.2507243          -18.9978873            0.2528370
 Magnitude           :                                                    0.7901292
  Basis Set: (AUG-CC-PVTZ AUX)
    Blend: AUG-CC-PVTZ-RI
	 Reference Energy          =     -76.0597991784856760 [Eh]
	 Singles Energy            =      -0.0000000000000000 [Eh]
	 Same-Spin Energy          =      -0.0685779238041482 [Eh]
	 Opposite-Spin Energy      =      -0.2164248276065189 [Eh]
	 Correlation Energy        =      -0.2850027514106671 [Eh]
	 Total Energy              =     -76.3448019298963487 [Eh]

	 ================> DF-SCS-MP2 Energies <==================
	-----------------------------------------------------------
	 SCS Same-Spin Scale       =       0.3333333333333333 [-]
	 SCS Opposite-Spin Scale   =       1.2000000000000000 [-]
	 SCS Same-Spin Energy      =      -0.0228593079347161 [Eh]
	 SCS Opposite-Spin Energy  =      -0.2597097931278227 [Eh]
	 SCS Correlation Energy    =      -0.2825691010625387 [Eh]
	 SCS Total Energy          =     -76.3423682795482108 [Eh]
	-----------------------------------------------------------

*** Psi4 exiting successfully. Buy a developer a beer!
