                               Psi4 1.8.2 release

  ==> Input File <==

--------------------------------------------------------------------------
MEMORY 60 GB

molecule dimer {
-1 1
Cl         0.000000     0.000000     0.000000
O          0.923800     0.408945    -3.194493
H          0.272905    -0.114701    -3.625352
H          0.832172     0.185801    -2.298947
O         -2.149744     2.054070     0.217609
H         -1.403826     1.455993     0.053234
H         -2.334377     1.897274     1.183531
O         -0.300157    -2.869195     1.420956
H         -0.867771    -3.254414     0.744974
H          0.097773    -2.075737     1.017545
O          1.448917     0.712721     2.656163
H          1.296456     0.906343     1.730539
H          0.664996     0.886631     3.121181
O         -2.509108    -1.248524    -1.805840
H         -1.802638    -0.777252    -1.256016
H         -2.458071    -2.098524    -1.337245

units ang
no_reorient
no_com
symmetry c1
}

set {
basis        aug-cc-pVTZ
scf_type     df
}

energy("mp2")
--------------------------------------------------------------------------

    Molecular point group: c1

    Geometry (in Angstrom), charge = -1, multiplicity = 1:

       Center              X                  Y                   Z               Mass
    ------------   -----------------  -----------------  -----------------  -----------------
         CL           0.000000000000     0.000000000000     0.000000000000    34.968852682000
         O            0.923800000000     0.408945000000    -3.194493000000    15.994914619570
         H            0.272905000000    -0.114701000000    -3.625352000000     1.007825032230
         H            0.832172000000     0.185801000000    -2.298947000000     1.007825032230
         O           -2.149744000000     2.054070000000     0.217609000000    15.994914619570
         H           -1.403826000000     1.455993000000     0.053234000000     1.007825032230
         H           -2.334377000000     1.897274000000     1.183531000000     1.007825032230
         O           -0.300157000000    -2.869195000000     1.420956000000    15.994914619570
         H           -0.867771000000    -3.254414000000     0.744974000000     1.007825032230
         H            0.097773000000    -2.075737000000     1.017545000000     1.007825032230
         O            1.448917000000     0.712721000000     2.656163000000    15.994914619570
         H            1.296456000000     0.906343000000     1.730539000000     1.007825032230
         H            0.664996000000     0.886631000000     3.121181000000     1.007825032230
         O           -2.509108000000    -1.248524000000    -1.805840000000    15.994914619570
         H           -1.802638000000    -0.777252000000    -1.256016000000     1.007825032230
         H           -2.458071000000    -2.098524000000    -1.337245000000     1.007825032230

  Charge       = -1
  Multiplicity = 1
  Basis Set: AUG-CC-PVTZ
    Blend: AUG-CC-PVTZ
  Basis Set: (AUG-CC-PVTZ AUX)
    Blend: AUG-CC-PVTZ-JKFIT

    Orbital Energies [Eh]
    ---------------------

    Doubly Occupied:

       1A   -104.602859     2A    -20.435267     3A    -20.427086
       4A    -20.419093     5A    -20.417544     6A    -20.408074
       7A    -10.329159     8A     -7.795245     9A     -7.795218
      10A     -7.795137    11A     -1.224485    12A     -1.216641
      13A     -1.208493    14A     -1.205248    15A     -1.184700
      16A     -0.853783    17A     -0.592241    18A     -0.588441
      19A     -0.577299    20A     -0.548866    21A     -0.544803
      22A     -0.462412    23A     -0.453176    24A     -0.446473
      25A     -0.443097    26A     -0.434006    27A     -0.373924
      28A     -0.372073    29A     -0.371750    30A     -0.370117
      31A     -0.351369    32A     -0.260982    33A     -0.259776
      34A     -0.258307

  @DF-RHF Final Energy:  -839.92799222059421

   => Energetics <=

    Nuclear Repulsion Energy =            305.0760351669184729
    One-Electron Energy =               -1779.9537653259092167
    Two-Electron Energy =                 634.9497379383965381
    Total Energy =                       -839.9279922205942057
 Dipole X            :         49.9050144          -49.8750068            0.0300076
 Dipole Y            :         19.2764990          -19.8883281           -0.6118291
 Dipole Z            :         12.4485870          -11.9268099            0.5217771
 Magnitude           :                                                    0.8046656
  Basis Set: (AUG-CC-PVTZ AUX)
    Blend: AUG-CC-PVTZ-RI
	 Reference Energy          =    -839.9279922205942057 [Eh]
	 Singles Energy            =      -0.0000000000000000 [Eh]
	 Same-Spin Energy          =      -0.4173919511385129 [Eh]
	 Opposite-Spin Energy      =      -1.2736247154057652 [Eh]
	 Correlation Energy        =      -1.6910166665442781 [Eh]
	 Total Energy              =    -841.6190088871385342 [Eh]

	 ================> DF-SCS-MP2 Energies <==================
	-----------------------------------------------------------
	 SCS Same-Spin Scale       =       0.3333333333333333 [-]
	 SCS Opposite-Spin Scale   =       1.2000000000000000 [-]
	 SCS Same-Spin Energy      =      -0.1391306503795043 [Eh]
	 SCS Opposite-Spin Energy  =      -1.5283496584869181 [Eh]
	 SCS Correlation Energy    =      -1.6674803088664223 [Eh]
	 SCS Total Energy          =    -841.5954725294606078 [Eh]
	-----------------------------------------------------------

*** Psi4 exiting successfully. Buy a developer a beer!
