                               Psi4 1.8.2 release

  ==> Input File <==

--------------------------------------------------------------------------
MEMORY 60 GB

molecule dimer {
-1 1
Cl         0.000000     0.000000     0.000000
O          2.217451     0.173132    -2.196728
H          1.450489     0.085813    -1.601960
H          2.136415     1.036921    -2.632012
O         -3.104951     1.312552    -0.666533
H         -2.224123     0.928576    -0.487843
H         -3.617532     0.562843    -0.908656
O          1.272227     2.966293     0.141325
H          0.856129     3.522110     0.878231
H          0.642780     2.184762     0.155358
O          0.216100     0.918779     3.064477
H          0.501188     0.528894     2.252647
H         -0.506248     0.390525     3.374447
O          1.294073    -2.891435     1.095122
H          1.863156    -3.654697     1.184616
H          1.395565    -2.604001     0.149232
O         -1.460884    -1.361846    -2.351721
H         -0.940849    -0.704004    -1.930802
H         -1.693945    -0.968444    -3.207386

units ang
no_reorient
no_com
symmetry c1
}

set {
basis        aug-cc-pVTZ
scf_type     df
}

energy("mp2")
--------------------------------------------------------------------------

    Molecular point group: c1

    Geometry (in Angstrom), charge = -1, multiplicity = 1:

       Center              X                  Y                   Z               Mass
    ------------   -----------------  -----------------  -----------------  -----------------
         CL           0.000000000000     0.000000000000     0.000000000000    34.968852682000
         O            2.217451000000     0.173132000000    -2.196728000000    15.994914619570
         H            1.450489000000     0.085813000000    -1.601960000000     1.007825032230
         H            2.136415000000     1.036921000000    -2.632012000000     1.007825032230
         O           -3.104951000000     1.312552000000    -0.666533000000    15.994914619570
         H           -2.224123000000     0.928576000000    -0.487843000000     1.007825032230
         H           -3.617532000000     0.562843000000    -0.908656000000     1.007825032230
         O            1.272227000000     2.966293000000     0.141325000000    15.994914619570
         H            0.856129000000     3.522110000000     0.878231000000     1.007825032230
         H            0.642780000000     2.184762000000     0.155358000000     1.007825032230
         O            0.216100000000     0.918779000000     3.064477000000    15.994914619570
         H            0.501188000000     0.528894000000     2.252647000000     1.007825032230
         H           -0.506248000000     0.390525000000     3.374447000000     1.007825032230
         O            1.294073000000    -2.891435000000     1.095122000000    15.994914619570
         H            1.863156000000    -3.654697000000     1.184616000000     1.007825032230
         H            1.395565000000    -2.604001000000     0.149232000000     1.007825032230
         O           -1.460884000000    -1.361846000000    -2.351721000000    15.994914619570
         H           -0.940849000000    -0.704004000000    -1.930802000000     1.007825032230
         H           -1.693945000000    -0.968444000000    -3.207386000000     1.007825032230

  Charge       = -1
  Multiplicity = 1
  Basis Set: AUG-CC-PVTZ
    Blend: AUG-CC-PVTZ
  Basis Set: (AUG-CC-PVTZ AUX)
    Blend: AUG-CC-PVTZ-JKFIT

    Orbital Energies [Eh]
    ---------------------

    Doubly Occupied:

       1A   -104.592493     2A    -20.443642     3A    -20.425660
       4A    -20.425091     5A    -20.420100     6A    -20.412661
       7A    -20.409106     8A    -10.318470     9A     -7.784587
      10A     -7.784502    11A     -7.784485    12A     -1.218444
      13A     -1.217758    14A     -1.213932    15A     -1.209190
      16A     -1.189528    17A     -1.178436    18A     -0.842136
      19A     -0.583693    20A     -0.582295    21A     -0.578881
      22A     -0.574747    23A     -0.561067    24A     -0.529658
      25A     -0.454213    26A     -0.452763    27A     -0.450088
      28A     -0.439877    29A     -0.435992    30A     -0.428228
      31A     -0.382593    32A     -0.376292    33A     -0.368991
      34A     -0.363991    35A     -0.355217    36A     -0.353376
      37A     -0.252426    38A     -0.250132    39A     -0.247380

  @DF-RHF Final Energy:  -915.98577956471649

   => Energetics <=

    Nuclear Repulsion Energy =            394.5332123845936394
    One-Electron Energy =               -2065.2537351751016104
    Two-Electron Energy =                 754.7347432257913624
    Total Energy =                       -915.9857795647164949
 Dipole X            :         -6.9289064            6.3025258           -0.6263807
 Dipole Y            :        -20.3827085           19.3679883           -1.0147202
 Dipole Z            :         18.7806168          -19.0608964           -0.2802796
 Magnitude           :                                                    1.2249761
  Basis Set: (AUG-CC-PVTZ AUX)
    Blend: AUG-CC-PVTZ-RI
	 Reference Energy          =    -915.9857795647164949 [Eh]
	 Singles Energy            =      -0.0000000000000000 [Eh]
	 Same-Spin Energy          =      -0.4877701758045681 [Eh]
	 Opposite-Spin Energy      =      -1.4930788275034119 [Eh]
	 Correlation Energy        =      -1.9808490033079800 [Eh]
	 Total Energy              =    -917.9666285680244755 [Eh]

	 ================> DF-SCS-MP2 Energies <==================
	-----------------------------------------------------------
	 SCS Same-Spin Scale       =       0.3333333333333333 [-]
	 SCS Opposite-Spin Scale   =       1.2000000000000000 [-]
	 SCS Same-Spin Energy      =      -0.1625900586015227 [Eh]
	 SCS Opposite-Spin Energy  =      -1.7916945930040942 [Eh]
	 SCS Correlation Energy    =      -1.9542846516056169 [Eh]
	 SCS Total Energy          =    -917.9400642163220709 [Eh]
	-----------------------------------------------------------

*** Psi4 exiting successfully. Buy a developer a beer!
