                               Psi4 1.8.2 release

  ==> Input File <==

--------------------------------------------------------------------------
MEMORY 60 GB

molecule dimer {
-1 1
Cl         0.000000     0.000000     0.000000
Gh(O)      1.572535     2.984313     0.080535
Gh(H)      2.483152     2.774963     0.044021
Gh(H)      1.091164     2.083829     0.086158
Gh(O)     -2.519770     0.473353     1.764939
Gh(H)     -1.730664     0.352182     1.242951
Gh(H)     -2.351355     1.328225     2.177357
Gh(O)      1.097544    -1.383699     2.955254
Gh(H)      0.572761    -1.058492     3.732723
Gh(H)      0.582499    -1.021529     2.224847
Gh(O)     -2.152007     2.124199    -0.978722
Gh(H)     -1.802804     1.460648    -0.427201
Gh(H)     -1.664805     1.959459    -1.761428
Gh(O)      2.011060     0.105217    -2.783367
Gh(H)      1.274497     0.182662    -2.166724
Gh(H)      2.754003    -0.550445    -2.510663

units ang
no_reorient
no_com
symmetry c1
}

set {
basis        aug-cc-pVTZ
scf_type     df
}

energy("mp2")
--------------------------------------------------------------------------

    Molecular point group: c1

    Geometry (in Angstrom), charge = -1, multiplicity = 1:

       Center              X                  Y                   Z               Mass
    ------------   -----------------  -----------------  -----------------  -----------------
         CL           0.000000000000     0.000000000000     0.000000000000    34.968852682000
      Gh(O)           1.572535000000     2.984313000000     0.080535000000    15.994914619570
      Gh(H)           2.483152000000     2.774963000000     0.044021000000     1.007825032230
      Gh(H)           1.091164000000     2.083829000000     0.086158000000     1.007825032230
      Gh(O)          -2.519770000000     0.473353000000     1.764939000000    15.994914619570
      Gh(H)          -1.730664000000     0.352182000000     1.242951000000     1.007825032230
      Gh(H)          -2.351355000000     1.328225000000     2.177357000000     1.007825032230
      Gh(O)           1.097544000000    -1.383699000000     2.955254000000    15.994914619570
      Gh(H)           0.572761000000    -1.058492000000     3.732723000000     1.007825032230
      Gh(H)           0.582499000000    -1.021529000000     2.224847000000     1.007825032230
      Gh(O)          -2.152007000000     2.124199000000    -0.978722000000    15.994914619570
      Gh(H)          -1.802804000000     1.460648000000    -0.427201000000     1.007825032230
      Gh(H)          -1.664805000000     1.959459000000    -1.761428000000     1.007825032230
      Gh(O)           2.011060000000     0.105217000000    -2.783367000000    15.994914619570
      Gh(H)           1.274497000000     0.182662000000    -2.166724000000     1.007825032230
      Gh(H)           2.754003000000    -0.550445000000    -2.510663000000     1.007825032230

  Charge       = -1
  Multiplicity = 1
  Basis Set: AUG-CC-PVTZ
    Blend: AUG-CC-PVTZ
  Basis Set: (AUG-CC-PVTZ AUX)
    Blend: AUG-CC-PVTZ-JKFIT

    Orbital Energies [Eh]
    ---------------------

    Doubly Occupied:

       1A   -104.507220     2A    -10.230048     3A     -7.696123
       4A     -7.696103     5A     -7.696086     6A     -0.733465
       7A     -0.150309     8A     -0.150305     9A     -0.150301

  @DF-RHF Final Energy:  -459.57357646756446

   => Energetics <=

    Nuclear Repulsion Energy =              0.0000000000000000
    One-Electron Energy =                -641.1272462488536803
    Two-Electron Energy =                 181.5536697812892157
    Total Energy =                       -459.5735764675644646
 Dipole X            :         -0.0000445            0.0000000           -0.0000445
 Dipole Y            :          0.0004027            0.0000000            0.0004027
 Dipole Z            :          0.0001759            0.0000000            0.0001759
 Magnitude           :                                                    0.0004417
  Basis Set: (AUG-CC-PVTZ AUX)
    Blend: AUG-CC-PVTZ-RI
	 Reference Energy          =    -459.5735764675644646 [Eh]
	 Singles Energy            =      -0.0000000000000000 [Eh]
	 Same-Spin Energy          =      -0.0635094970557977 [Eh]
	 Opposite-Spin Energy      =      -0.1837419124677399 [Eh]
	 Correlation Energy        =      -0.2472514095235376 [Eh]
	 Total Energy              =    -459.8208278770879929 [Eh]

	 ================> DF-SCS-MP2 Energies <==================
	-----------------------------------------------------------
	 SCS Same-Spin Scale       =       0.3333333333333333 [-]
	 SCS Opposite-Spin Scale   =       1.2000000000000000 [-]
	 SCS Same-Spin Energy      =      -0.0211698323519326 [Eh]
	 SCS Opposite-Spin Energy  =      -0.2204902949612878 [Eh]
	 SCS Correlation Energy    =      -0.2416601273132204 [Eh]
	 SCS Total Energy          =    -459.8152365948776605 [Eh]
	-----------------------------------------------------------

*** Psi4 exiting successfully. Buy a developer a beer!
