                               Psi4 1.8.2 release

  ==> Input File <==

--------------------------------------------------------------------------
MEMORY 60 GB

molecule dimer {
-1 1
Cl         0.000000     0.000000     0.000000
O          2.463279    -1.637242     1.524697
H          2.153801    -1.174206     0.704797
H          3.424703    -1.765351     1.439217
O         -3.116776     0.013193     0.922660
H         -3.430576    -0.157029     0.005481
H         -2.173003    -0.131358     0.884899
O         -0.255395    -0.965558     3.259253
H          0.115940    -0.895008     2.380767
H         -0.515949    -0.061156     3.400927
O          0.593896     2.305977    -1.825798
H          1.456929     2.664655    -1.817872
H          0.413740     1.886953    -0.968415
O         -0.301908    -2.719564    -1.155955
H         -0.223765    -1.800429    -0.769036
H          0.140094    -2.598246    -2.035538
O         -2.739786     0.110883    -1.903292
H         -3.291889     0.616513    -2.564165
H         -1.849346     0.283247    -1.934967

units ang
no_reorient
no_com
symmetry c1
}

set {
basis        aug-cc-pVTZ
scf_type     df
}

energy("mp2")
--------------------------------------------------------------------------

    Molecular point group: c1

    Geometry (in Angstrom), charge = -1, multiplicity = 1:

       Center              X                  Y                   Z               Mass
    ------------   -----------------  -----------------  -----------------  -----------------
         CL           0.000000000000     0.000000000000     0.000000000000    34.968852682000
         O            2.463279000000    -1.637242000000     1.524697000000    15.994914619570
         H            2.153801000000    -1.174206000000     0.704797000000     1.007825032230
         H            3.424703000000    -1.765351000000     1.439217000000     1.007825032230
         O           -3.116776000000     0.013193000000     0.922660000000    15.994914619570
         H           -3.430576000000    -0.157029000000     0.005481000000     1.007825032230
         H           -2.173003000000    -0.131358000000     0.884899000000     1.007825032230
         O           -0.255395000000    -0.965558000000     3.259253000000    15.994914619570
         H            0.115940000000    -0.895008000000     2.380767000000     1.007825032230
         H           -0.515949000000    -0.061156000000     3.400927000000     1.007825032230
         O            0.593896000000     2.305977000000    -1.825798000000    15.994914619570
         H            1.456929000000     2.664655000000    -1.817872000000     1.007825032230
         H            0.413740000000     1.886953000000    -0.968415000000     1.007825032230
         O           -0.301908000000    -2.719564000000    -1.155955000000    15.994914619570
         H           -0.223765000000    -1.800429000000    -0.769036000000     1.007825032230
         H            0.140094000000    -2.598246000000    -2.035538000000     1.007825032230
         O           -2.739786000000     0.110883000000    -1.903292000000    15.994914619570
         H           -3.291889000000     0.616513000000    -2.564165000000     1.007825032230
         H           -1.849346000000     0.283247000000    -1.934967000000     1.007825032230

  Charge       = -1
  Multiplicity = 1
  Basis Set: AUG-CC-PVTZ
    Blend: AUG-CC-PVTZ
  Basis Set: (AUG-CC-PVTZ AUX)
    Blend: AUG-CC-PVTZ-JKFIT

    Orbital Energies [Eh]
    ---------------------

    Doubly Occupied:

       1A   -104.597328     2A    -20.440546     3A    -20.436522
       4A    -20.421720     5A    -20.405572     6A    -20.398679
       7A    -20.383600     8A    -10.323850     9A     -7.789978
      10A     -7.789852    11A     -7.789835    12A     -1.232534
      13A     -1.215398    14A     -1.207620    15A     -1.197734
      16A     -1.168294    17A     -1.167212    18A     -0.850571
      19A     -0.620840    20A     -0.593762    21A     -0.578439
      22A     -0.550135    23A     -0.537971    24A     -0.527784
      25A     -0.457709    26A     -0.444036    27A     -0.443655
      28A     -0.437991    29A     -0.422876    30A     -0.408394
      31A     -0.383268    32A     -0.375989    33A     -0.373276
      34A     -0.352013    35A     -0.339394    36A     -0.329559
      37A     -0.256857    38A     -0.255174    39A     -0.253115

  @DF-RHF Final Energy:  -915.97554271694025

   => Energetics <=

    Nuclear Repulsion Energy =            405.8548322898760148
    One-Electron Energy =               -2088.1425820095469135
    Two-Electron Energy =                 766.3122070027307018
    Total Energy =                       -915.9755427169402537
 Dipole X            :         59.9920862          -57.8876799            2.1044063
 Dipole Y            :         51.6182001          -49.6429220            1.9752780
 Dipole Z            :        -11.9095080           10.0129312           -1.8965769
 Magnitude           :                                                    3.4535855
  Basis Set: (AUG-CC-PVTZ AUX)
    Blend: AUG-CC-PVTZ-RI
	 Reference Energy          =    -915.9755427169402537 [Eh]
	 Singles Energy            =      -0.0000000000000000 [Eh]
	 Same-Spin Energy          =      -0.4896018207253416 [Eh]
	 Opposite-Spin Energy      =      -1.4944945367682037 [Eh]
	 Correlation Energy        =      -1.9840963574935453 [Eh]
	 Total Energy              =    -917.9596390744337668 [Eh]

	 ================> DF-SCS-MP2 Energies <==================
	-----------------------------------------------------------
	 SCS Same-Spin Scale       =       0.3333333333333333 [-]
	 SCS Opposite-Spin Scale   =       1.2000000000000000 [-]
	 SCS Same-Spin Energy      =      -0.1632006069084472 [Eh]
	 SCS Opposite-Spin Energy  =      -1.7933934441218444 [Eh]
	 SCS Correlation Energy    =      -1.9565940510302915 [Eh]
	 SCS Total Energy          =    -917.9321367679705190 [Eh]
	-----------------------------------------------------------

*** Psi4 exiting successfully. Buy a developer a beer!
