                               Psi4 1.8.2 release

  ==> Input File <==

--------------------------------------------------------------------------
MEMORY 60 GB

molecule dimer {
0 1
Gh(Cl)     0.000000     0.000000     0.000000
O         -2.041021    -2.196464    -1.333745
H         -1.300794    -2.029781    -0.728894
H         -2.698392    -2.708355    -0.840419
Gh(O)      0.419223     0.084825    -3.085711
Gh(H)     -0.280779     0.277678    -3.790691
Gh(H)      0.077234     0.159042    -2.208543
Gh(O)      3.090762    -0.717603    -0.627277
Gh(H)      3.080613    -1.289849    -1.410804
Gh(H)      2.118014    -0.454394    -0.575587
Gh(O)      0.777671     3.142833     0.471574
Gh(H)      1.633570     3.312266     0.051366
Gh(H)      0.542632     2.198669     0.371825

units ang
no_reorient
no_com
symmetry c1
}

set {
basis        aug-cc-pVTZ
scf_type     df
}

energy("mp2")
--------------------------------------------------------------------------

    Molecular point group: c1

    Geometry (in Angstrom), charge = 0, multiplicity = 1:

       Center              X                  Y                   Z               Mass
    ------------   -----------------  -----------------  -----------------  -----------------
      Gh(CL)          0.000000000000     0.000000000000     0.000000000000    34.968852682000
         O           -2.041021000000    -2.196464000000    -1.333745000000    15.994914619570
         H           -1.300794000000    -2.029781000000    -0.728894000000     1.007825032230
         H           -2.698392000000    -2.708355000000    -0.840419000000     1.007825032230
      Gh(O)           0.419223000000     0.084825000000    -3.085711000000    15.994914619570
      Gh(H)          -0.280779000000     0.277678000000    -3.790691000000     1.007825032230
      Gh(H)           0.077234000000     0.159042000000    -2.208543000000     1.007825032230
      Gh(O)           3.090762000000    -0.717603000000    -0.627277000000    15.994914619570
      Gh(H)           3.080613000000    -1.289849000000    -1.410804000000     1.007825032230
      Gh(H)           2.118014000000    -0.454394000000    -0.575587000000     1.007825032230
      Gh(O)           0.777671000000     3.142833000000     0.471574000000    15.994914619570
      Gh(H)           1.633570000000     3.312266000000     0.051366000000     1.007825032230
      Gh(H)           0.542632000000     2.198669000000     0.371825000000     1.007825032230

  Charge       = 0
  Multiplicity = 1
  Basis Set: AUG-CC-PVTZ
    Blend: AUG-CC-PVTZ
  Basis Set: (AUG-CC-PVTZ AUX)
    Blend: AUG-CC-PVTZ-JKFIT

    Orbital Energies [Eh]
    ---------------------

    Doubly Occupied:

       1A    -20.568173     2A     -1.345741     3A     -0.715744
       4A     -0.577916     5A     -0.508633

  @DF-RHF Final Energy:   -76.05952812287073

   => Energetics <=

    Nuclear Repulsion Energy =              9.0747061932632782
    One-Electron Energy =                -122.8360506484404766
    Two-Electron Energy =                  37.7018163323064641
    Total Energy =                        -76.0595281228707307
 Dipole X            :         38.4682189          -38.4131319            0.0550870
 Dipole Y            :         41.9294711          -42.1595026           -0.2300315
 Dipole Z            :         23.8598865          -23.1288739            0.7310126
 Magnitude           :                                                    0.7683284
  Basis Set: (AUG-CC-PVTZ AUX)
    Blend: AUG-CC-PVTZ-RI
	 Reference Energy          =     -76.0595281228707307 [Eh]
	 Singles Energy            =      -0.0000000000000000 [Eh]
	 Same-Spin Energy          =      -0.0685392887671105 [Eh]
	 Opposite-Spin Energy      =      -0.2159707505284100 [Eh]
	 Correlation Energy        =      -0.2845100392955204 [Eh]
	 Total Energy              =     -76.3440381621662567 [Eh]

	 ================> DF-SCS-MP2 Energies <==================
	-----------------------------------------------------------
	 SCS Same-Spin Scale       =       0.3333333333333333 [-]
	 SCS Opposite-Spin Scale   =       1.2000000000000000 [-]
	 SCS Same-Spin Energy      =      -0.0228464295890368 [Eh]
	 SCS Opposite-Spin Energy  =      -0.2591649006340920 [Eh]
	 SCS Correlation Energy    =      -0.2820113302231288 [Eh]
	 SCS Total Energy          =     -76.3415394530938585 [Eh]
	-----------------------------------------------------------

*** Psi4 exiting successfully. Buy a developer a beer!
