                               Psi4 1.8.2 release

  ==> Input File <==

--------------------------------------------------------------------------
MEMORY 60 GB

molecule dimer {
-1 1
Cl         0.000000     0.000000     0.000000
Gh(O)      2.577144     1.301097    -1.507566
Gh(H)      1.636751     1.082512    -1.310522
Gh(H)      2.493026     1.546902    -2.431710
Gh(O)     -0.803884    -0.114309     3.230273
Gh(H)     -1.032596    -0.160666     2.314983
Gh(H)     -1.231357    -0.797408     3.797174
Gh(O)      0.843661    -2.286358    -2.084704
Gh(H)      0.687224    -1.478250    -1.561391
Gh(H)      0.748808    -1.967004    -2.989697
Gh(O)     -3.119480    -1.368652    -0.412857
Gh(H)     -2.259889    -0.968028    -0.211314
Gh(H)     -2.868990    -2.275884    -0.520071

units ang
no_reorient
no_com
symmetry c1
}

set {
basis        aug-cc-pVTZ
scf_type     df
}

energy("mp2")
--------------------------------------------------------------------------

    Molecular point group: c1

    Geometry (in Angstrom), charge = -1, multiplicity = 1:

       Center              X                  Y                   Z               Mass
    ------------   -----------------  -----------------  -----------------  -----------------
         CL           0.000000000000     0.000000000000     0.000000000000    34.968852682000
      Gh(O)           2.577144000000     1.301097000000    -1.507566000000    15.994914619570
      Gh(H)           1.636751000000     1.082512000000    -1.310522000000     1.007825032230
      Gh(H)           2.493026000000     1.546902000000    -2.431710000000     1.007825032230
      Gh(O)          -0.803884000000    -0.114309000000     3.230273000000    15.994914619570
      Gh(H)          -1.032596000000    -0.160666000000     2.314983000000     1.007825032230
      Gh(H)          -1.231357000000    -0.797408000000     3.797174000000     1.007825032230
      Gh(O)           0.843661000000    -2.286358000000    -2.084704000000    15.994914619570
      Gh(H)           0.687224000000    -1.478250000000    -1.561391000000     1.007825032230
      Gh(H)           0.748808000000    -1.967004000000    -2.989697000000     1.007825032230
      Gh(O)          -3.119480000000    -1.368652000000    -0.412857000000    15.994914619570
      Gh(H)          -2.259889000000    -0.968028000000    -0.211314000000     1.007825032230
      Gh(H)          -2.868990000000    -2.275884000000    -0.520071000000     1.007825032230

  Charge       = -1
  Multiplicity = 1
  Basis Set: AUG-CC-PVTZ
    Blend: AUG-CC-PVTZ
  Basis Set: (AUG-CC-PVTZ AUX)
    Blend: AUG-CC-PVTZ-JKFIT

    Orbital Energies [Eh]
    ---------------------

    Doubly Occupied:

       1A   -104.506925     2A    -10.229971     3A     -7.696054
       4A     -7.696019     5A     -7.696003     6A     -0.733472
       7A     -0.150317     8A     -0.150309     9A     -0.150302

  @DF-RHF Final Energy:  -459.57355612690776

   => Energetics <=

    Nuclear Repulsion Energy =              0.0000000000000000
    One-Electron Energy =                -641.1283787322852277
    Two-Electron Energy =                 181.5548226053774385
    Total Energy =                       -459.5735561269077607
 Dipole X            :         -0.0000027            0.0000000           -0.0000027
 Dipole Y            :         -0.0002730            0.0000000           -0.0002730
 Dipole Z            :         -0.0001375            0.0000000           -0.0001375
 Magnitude           :                                                    0.0003056
  Basis Set: (AUG-CC-PVTZ AUX)
    Blend: AUG-CC-PVTZ-RI
	 Reference Energy          =    -459.5735561269077607 [Eh]
	 Singles Energy            =      -0.0000000000000000 [Eh]
	 Same-Spin Energy          =      -0.0632282477385721 [Eh]
	 Opposite-Spin Energy      =      -0.1826352672098648 [Eh]
	 Correlation Energy        =      -0.2458635149484369 [Eh]
	 Total Energy              =    -459.8194196418562001 [Eh]

	 ================> DF-SCS-MP2 Energies <==================
	-----------------------------------------------------------
	 SCS Same-Spin Scale       =       0.3333333333333333 [-]
	 SCS Opposite-Spin Scale   =       1.2000000000000000 [-]
	 SCS Same-Spin Energy      =      -0.0210760825795240 [Eh]
	 SCS Opposite-Spin Energy  =      -0.2191623206518378 [Eh]
	 SCS Correlation Energy    =      -0.2402384032313618 [Eh]
	 SCS Total Energy          =    -459.8137945301391483 [Eh]
	-----------------------------------------------------------

*** Psi4 exiting successfully. Buy a developer a beer!
