                               Psi4 1.8.2 release

  ==> Input File <==

--------------------------------------------------------------------------
MEMORY 60 GB

molecule dimer {
0 1
Gh(Cl)     0.000000     0.000000     0.000000
O         -2.071837    -1.566407    -2.094834
H         -2.804132    -1.909173    -1.581457
H         -1.575661    -1.017210    -1.506295
Gh(O)     -2.835162    -1.380871     1.365181
Gh(H)     -2.100127    -0.901437     0.939824
Gh(H)     -3.623037    -0.817636     1.359899
Gh(O)     -0.436252     1.643652    -2.926169
Gh(H)     -0.441176     1.305425    -2.001804
Gh(H)     -0.243187     0.850829    -3.475916
Gh(O)      2.956243     0.741991     0.983113
Gh(H)      2.865237     1.197444     0.143693
Gh(H)      2.115532     0.354191     1.203109

units ang
no_reorient
no_com
symmetry c1
}

set {
basis        aug-cc-pVTZ
scf_type     df
}

energy("mp2")
--------------------------------------------------------------------------

    Molecular point group: c1

    Geometry (in Angstrom), charge = 0, multiplicity = 1:

       Center              X                  Y                   Z               Mass
    ------------   -----------------  -----------------  -----------------  -----------------
      Gh(CL)          0.000000000000     0.000000000000     0.000000000000    34.968852682000
         O           -2.071837000000    -1.566407000000    -2.094834000000    15.994914619570
         H           -2.804132000000    -1.909173000000    -1.581457000000     1.007825032230
         H           -1.575661000000    -1.017210000000    -1.506295000000     1.007825032230
      Gh(O)          -2.835162000000    -1.380871000000     1.365181000000    15.994914619570
      Gh(H)          -2.100127000000    -0.901437000000     0.939824000000     1.007825032230
      Gh(H)          -3.623037000000    -0.817636000000     1.359899000000     1.007825032230
      Gh(O)          -0.436252000000     1.643652000000    -2.926169000000    15.994914619570
      Gh(H)          -0.441176000000     1.305425000000    -2.001804000000     1.007825032230
      Gh(H)          -0.243187000000     0.850829000000    -3.475916000000     1.007825032230
      Gh(O)           2.956243000000     0.741991000000     0.983113000000    15.994914619570
      Gh(H)           2.865237000000     1.197444000000     0.143693000000     1.007825032230
      Gh(H)           2.115532000000     0.354191000000     1.203109000000     1.007825032230

  Charge       = 0
  Multiplicity = 1
  Basis Set: AUG-CC-PVTZ
    Blend: AUG-CC-PVTZ
  Basis Set: (AUG-CC-PVTZ AUX)
    Blend: AUG-CC-PVTZ-JKFIT

    Orbital Energies [Eh]
    ---------------------

    Doubly Occupied:

       1A    -20.565528     2A     -1.355431     3A     -0.723756
       4A     -0.583068     5A     -0.510388

  @DF-RHF Final Energy:   -76.06093747866976

   => Energetics <=

    Nuclear Repulsion Energy =              9.2451741503767568
    One-Electron Energy =                -123.1358775693574330
    Two-Electron Energy =                  37.8297659403109066
    Total Energy =                        -76.0609374786697714
 Dipole X            :         39.4416340          -39.5982453           -0.1566113
 Dipole Y            :         29.3505547          -29.2107043            0.1398505
 Dipole Z            :         38.2438881          -37.5043059            0.7395822
 Magnitude           :                                                    0.7688089
  Basis Set: (AUG-CC-PVTZ AUX)
    Blend: AUG-CC-PVTZ-RI
	 Reference Energy          =     -76.0609374786697572 [Eh]
	 Singles Energy            =      -0.0000000000000000 [Eh]
	 Same-Spin Energy          =      -0.0682647874924444 [Eh]
	 Opposite-Spin Energy      =      -0.2154418830151182 [Eh]
	 Correlation Energy        =      -0.2837066705075627 [Eh]
	 Total Energy              =     -76.3446441491773129 [Eh]

	 ================> DF-SCS-MP2 Energies <==================
	-----------------------------------------------------------
	 SCS Same-Spin Scale       =       0.3333333333333333 [-]
	 SCS Opposite-Spin Scale   =       1.2000000000000000 [-]
	 SCS Same-Spin Energy      =      -0.0227549291641481 [Eh]
	 SCS Opposite-Spin Energy  =      -0.2585302596181419 [Eh]
	 SCS Correlation Energy    =      -0.2812851887822900 [Eh]
	 SCS Total Energy          =     -76.3422226674520488 [Eh]
	-----------------------------------------------------------

*** Psi4 exiting successfully. Buy a developer a beer!
