                               Psi4 1.8.2 release

  ==> Input File <==

--------------------------------------------------------------------------
MEMORY 60 GB

molecule dimer {
-1 1
Cl         0.000000     0.000000     0.000000
Gh(O)      0.823380    -1.352973    -3.021871
Gh(H)      1.752854    -1.586619    -2.681171
Gh(H)      0.487876    -0.873730    -2.261775
Gh(O)      2.523281     0.075105     2.141624
Gh(H)      2.081558    -0.483417     2.754013
Gh(H)      1.877416     0.285763     1.482632
Gh(O)      2.650784     1.254153    -1.136163
Gh(H)      2.401662     1.605478    -1.971241
Gh(H)      1.924731     0.699704    -0.891412
Gh(O)     -0.306264     2.928050     0.541310
Gh(H)      0.380642     3.308514     1.104799
Gh(H)      0.073139     2.191299     0.141775
Gh(O)     -1.011167     1.396698    -2.618018
Gh(H)     -0.727764     2.280068    -2.348939
Gh(H)     -0.878256     0.893634    -1.790117

units ang
no_reorient
no_com
symmetry c1
}

set {
basis        aug-cc-pVTZ
scf_type     df
}

energy("mp2")
--------------------------------------------------------------------------

    Molecular point group: c1

    Geometry (in Angstrom), charge = -1, multiplicity = 1:

       Center              X                  Y                   Z               Mass
    ------------   -----------------  -----------------  -----------------  -----------------
         CL           0.000000000000     0.000000000000     0.000000000000    34.968852682000
      Gh(O)           0.823380000000    -1.352973000000    -3.021871000000    15.994914619570
      Gh(H)           1.752854000000    -1.586619000000    -2.681171000000     1.007825032230
      Gh(H)           0.487876000000    -0.873730000000    -2.261775000000     1.007825032230
      Gh(O)           2.523281000000     0.075105000000     2.141624000000    15.994914619570
      Gh(H)           2.081558000000    -0.483417000000     2.754013000000     1.007825032230
      Gh(H)           1.877416000000     0.285763000000     1.482632000000     1.007825032230
      Gh(O)           2.650784000000     1.254153000000    -1.136163000000    15.994914619570
      Gh(H)           2.401662000000     1.605478000000    -1.971241000000     1.007825032230
      Gh(H)           1.924731000000     0.699704000000    -0.891412000000     1.007825032230
      Gh(O)          -0.306264000000     2.928050000000     0.541310000000    15.994914619570
      Gh(H)           0.380642000000     3.308514000000     1.104799000000     1.007825032230
      Gh(H)           0.073139000000     2.191299000000     0.141775000000     1.007825032230
      Gh(O)          -1.011167000000     1.396698000000    -2.618018000000    15.994914619570
      Gh(H)          -0.727764000000     2.280068000000    -2.348939000000     1.007825032230
      Gh(H)          -0.878256000000     0.893634000000    -1.790117000000     1.007825032230

  Charge       = -1
  Multiplicity = 1
  Basis Set: AUG-CC-PVTZ
    Blend: AUG-CC-PVTZ
  Basis Set: (AUG-CC-PVTZ AUX)
    Blend: AUG-CC-PVTZ-JKFIT

    Orbital Energies [Eh]
    ---------------------

    Doubly Occupied:

       1A   -104.507361     2A    -10.230091     3A     -7.696163
       4A     -7.696155     5A     -7.696136     6A     -0.733471
       7A     -0.150312     8A     -0.150310     9A     -0.150308

  @DF-RHF Final Energy:  -459.57358115776930

   => Energetics <=

    Nuclear Repulsion Energy =              0.0000000000000000
    One-Electron Energy =                -641.1265632097819207
    Two-Electron Energy =                 181.5529820520126520
    Total Energy =                       -459.5735811577692402
 Dipole X            :          0.0001772            0.0000000            0.0001772
 Dipole Y            :          0.0003523            0.0000000            0.0003523
 Dipole Z            :         -0.0003264            0.0000000           -0.0003264
 Magnitude           :                                                    0.0005119
  Basis Set: (AUG-CC-PVTZ AUX)
    Blend: AUG-CC-PVTZ-RI
	 Reference Energy          =    -459.5735811577692971 [Eh]
	 Singles Energy            =      -0.0000000000000000 [Eh]
	 Same-Spin Energy          =      -0.0636453688402217 [Eh]
	 Opposite-Spin Energy      =      -0.1843123227661662 [Eh]
	 Correlation Energy        =      -0.2479576916063879 [Eh]
	 Total Energy              =    -459.8215388493757132 [Eh]

	 ================> DF-SCS-MP2 Energies <==================
	-----------------------------------------------------------
	 SCS Same-Spin Scale       =       0.3333333333333333 [-]
	 SCS Opposite-Spin Scale   =       1.2000000000000000 [-]
	 SCS Same-Spin Energy      =      -0.0212151229467406 [Eh]
	 SCS Opposite-Spin Energy  =      -0.2211747873193994 [Eh]
	 SCS Correlation Energy    =      -0.2423899102661400 [Eh]
	 SCS Total Energy          =    -459.8159710680354237 [Eh]
	-----------------------------------------------------------

*** Psi4 exiting successfully. Buy a developer a beer!
