                               Psi4 1.8.2 release

  ==> Input File <==

--------------------------------------------------------------------------
MEMORY 60 GB

molecule dimer {
0 1
Gh(Cl)     0.000000     0.000000     0.000000
Gh(O)      1.422099    -1.987304     2.148825
Gh(H)      1.064340    -1.506450     1.399804
Gh(H)      2.368545    -1.867599     2.083815
Gh(O)     -2.865467    -0.850270     1.171661
Gh(H)     -2.084324    -0.528310     0.724260
Gh(H)     -3.378232    -0.065480     1.313502
Gh(O)     -2.426888     2.264567     1.019413
Gh(H)     -1.479134     2.101066     1.074612
Gh(H)     -2.670735     1.963972     0.116288
O          0.376785     2.007354     2.598138
H          1.072877     2.112276     3.311169
H          0.426693     1.248381     2.049427

units ang
no_reorient
no_com
symmetry c1
}

set {
basis        aug-cc-pVTZ
scf_type     df
}

energy("mp2")
--------------------------------------------------------------------------

    Molecular point group: c1

    Geometry (in Angstrom), charge = 0, multiplicity = 1:

       Center              X                  Y                   Z               Mass
    ------------   -----------------  -----------------  -----------------  -----------------
      Gh(CL)          0.000000000000     0.000000000000     0.000000000000    34.968852682000
      Gh(O)           1.422099000000    -1.987304000000     2.148825000000    15.994914619570
      Gh(H)           1.064340000000    -1.506450000000     1.399804000000     1.007825032230
      Gh(H)           2.368545000000    -1.867599000000     2.083815000000     1.007825032230
      Gh(O)          -2.865467000000    -0.850270000000     1.171661000000    15.994914619570
      Gh(H)          -2.084324000000    -0.528310000000     0.724260000000     1.007825032230
      Gh(H)          -3.378232000000    -0.065480000000     1.313502000000     1.007825032230
      Gh(O)          -2.426888000000     2.264567000000     1.019413000000    15.994914619570
      Gh(H)          -1.479134000000     2.101066000000     1.074612000000     1.007825032230
      Gh(H)          -2.670735000000     1.963972000000     0.116288000000     1.007825032230
         O            0.376785000000     2.007354000000     2.598138000000    15.994914619570
         H            1.072877000000     2.112276000000     3.311169000000     1.007825032230
         H            0.426693000000     1.248381000000     2.049427000000     1.007825032230

  Charge       = 0
  Multiplicity = 1
  Basis Set: AUG-CC-PVTZ
    Blend: AUG-CC-PVTZ
  Basis Set: (AUG-CC-PVTZ AUX)
    Blend: AUG-CC-PVTZ-JKFIT

    Orbital Energies [Eh]
    ---------------------

    Doubly Occupied:

       1A    -20.562675     2A     -1.339311     3A     -0.733621
       4A     -0.557273     5A     -0.505148

  @DF-RHF Final Energy:   -76.05393300884852

   => Energetics <=

    Nuclear Repulsion Energy =              9.0576412383430931
    One-Electron Energy =                -122.8270883735164034
    Two-Electron Energy =                  37.7155141263247913
    Total Energy =                        -76.0539330088485173
 Dipole X            :         -8.0181272            8.5299403            0.5118131
 Dipole Y            :        -37.1516700           36.6975157           -0.4541543
 Dipole Z            :        -49.2998562           49.4082124            0.1083562
 Magnitude           :                                                    0.6927841
  Basis Set: (AUG-CC-PVTZ AUX)
    Blend: AUG-CC-PVTZ-RI
	 Reference Energy          =     -76.0539330088485173 [Eh]
	 Singles Energy            =      -0.0000000000000000 [Eh]
	 Same-Spin Energy          =      -0.0685467259376916 [Eh]
	 Opposite-Spin Energy      =      -0.2160346063790060 [Eh]
	 Correlation Energy        =      -0.2845813323166977 [Eh]
	 Total Energy              =     -76.3385143411652081 [Eh]

	 ================> DF-SCS-MP2 Energies <==================
	-----------------------------------------------------------
	 SCS Same-Spin Scale       =       0.3333333333333333 [-]
	 SCS Opposite-Spin Scale   =       1.2000000000000000 [-]
	 SCS Same-Spin Energy      =      -0.0228489086458972 [Eh]
	 SCS Opposite-Spin Energy  =      -0.2592415276548072 [Eh]
	 SCS Correlation Energy    =      -0.2820904363007045 [Eh]
	 SCS Total Energy          =     -76.3360234451492232 [Eh]
	-----------------------------------------------------------

*** Psi4 exiting successfully. Buy a developer a beer!
