                               Psi4 1.8.2 release

  ==> Input File <==

--------------------------------------------------------------------------
MEMORY 60 GB

molecule dimer {
-1 1
Cl         0.000000     0.000000     0.000000
Gh(O)     -3.345480    -0.015182     0.788190
Gh(H)     -3.632837    -0.005960    -0.124407
Gh(H)     -2.407724    -0.067282     0.760475
Gh(O)      0.909665    -3.050980    -1.330231
Gh(H)      0.510666    -2.302691    -0.878649
Gh(H)      1.796129    -2.796512    -1.580084
Gh(O)      0.623160    -1.959905     2.371318
Gh(H)      1.061949    -2.773718     2.071950
Gh(H)      0.542996    -1.324600     1.640391

units ang
no_reorient
no_com
symmetry c1
}

set {
basis        aug-cc-pVTZ
scf_type     df
}

energy("mp2")
--------------------------------------------------------------------------

    Molecular point group: c1

    Geometry (in Angstrom), charge = -1, multiplicity = 1:

       Center              X                  Y                   Z               Mass
    ------------   -----------------  -----------------  -----------------  -----------------
         CL           0.000000000000     0.000000000000     0.000000000000    34.968852682000
      Gh(O)          -3.345480000000    -0.015182000000     0.788190000000    15.994914619570
      Gh(H)          -3.632837000000    -0.005960000000    -0.124407000000     1.007825032230
      Gh(H)          -2.407724000000    -0.067282000000     0.760475000000     1.007825032230
      Gh(O)           0.909665000000    -3.050980000000    -1.330231000000    15.994914619570
      Gh(H)           0.510666000000    -2.302691000000    -0.878649000000     1.007825032230
      Gh(H)           1.796129000000    -2.796512000000    -1.580084000000     1.007825032230
      Gh(O)           0.623160000000    -1.959905000000     2.371318000000    15.994914619570
      Gh(H)           1.061949000000    -2.773718000000     2.071950000000     1.007825032230
      Gh(H)           0.542996000000    -1.324600000000     1.640391000000     1.007825032230

  Charge       = -1
  Multiplicity = 1
  Basis Set: AUG-CC-PVTZ
    Blend: AUG-CC-PVTZ
  Basis Set: (AUG-CC-PVTZ AUX)
    Blend: AUG-CC-PVTZ-JKFIT

    Orbital Energies [Eh]
    ---------------------

    Doubly Occupied:

       1A   -104.506859     2A    -10.229966     3A     -7.696032
       4A     -7.696016     5A     -7.696000     6A     -0.733486
       7A     -0.150323     8A     -0.150319     9A     -0.150317

  @DF-RHF Final Energy:  -459.57354246280534

   => Energetics <=

    Nuclear Repulsion Energy =              0.0000000000000000
    One-Electron Energy =                -641.1284652722633837
    Two-Electron Energy =                 181.5549228094580485
    Total Energy =                       -459.5735424628053352
 Dipole X            :         -0.0002928            0.0000000           -0.0002928
 Dipole Y            :         -0.0006482            0.0000000           -0.0006482
 Dipole Z            :          0.0004675            0.0000000            0.0004675
 Magnitude           :                                                    0.0008512
  Basis Set: (AUG-CC-PVTZ AUX)
    Blend: AUG-CC-PVTZ-RI
	 Reference Energy          =    -459.5735424628053352 [Eh]
	 Singles Energy            =      -0.0000000000000000 [Eh]
	 Same-Spin Energy          =      -0.0630831201200462 [Eh]
	 Opposite-Spin Energy      =      -0.1819311248589534 [Eh]
	 Correlation Energy        =      -0.2450142449789996 [Eh]
	 Total Energy              =    -459.8185567077843530 [Eh]

	 ================> DF-SCS-MP2 Energies <==================
	-----------------------------------------------------------
	 SCS Same-Spin Scale       =       0.3333333333333333 [-]
	 SCS Opposite-Spin Scale   =       1.2000000000000000 [-]
	 SCS Same-Spin Energy      =      -0.0210277067066821 [Eh]
	 SCS Opposite-Spin Energy  =      -0.2183173498307441 [Eh]
	 SCS Correlation Energy    =      -0.2393450565374261 [Eh]
	 SCS Total Energy          =    -459.8128875193427803 [Eh]
	-----------------------------------------------------------

*** Psi4 exiting successfully. Buy a developer a beer!
