                               Psi4 1.9 release

  ==> Input File <==

--------------------------------------------------------------------------
MEMORY 60 GB

molecule dimer {
-1 1
Cl     0.000000     0.000000     0.000000
--
0 1
O     -1.308514    -3.021033     0.224570
H     -0.936905    -2.106332     0.230301
H     -1.583115    -3.224008    -0.634500
O      2.034987    -2.736438     0.261525
H      1.926419    -3.209727     1.152196
H      1.340897    -2.074538     0.255592
O      2.614152     1.974738    -1.057657
H      2.604676     1.369411    -0.325218
H      3.499309     2.340070    -1.031330
O     -0.443471     1.169568    -3.144304
H     -0.589228     0.505431    -2.398513
H     -0.814852     0.803347    -3.980457
O      3.188344    -0.067036     1.347838
H      3.603647     0.506360     1.946832
H      2.585837    -0.642943     1.833742
O      0.074816    -0.986092     3.001192
H     -0.185721    -0.495387     2.211357
H     -0.346700    -0.687598     3.778177
O     -3.028136    -0.051263     0.795317
H     -3.215716     0.852168     1.057333
H     -2.058031    -0.146230     0.730970

units ang
no_reorient
no_com
symmetry c1
}

set {
basis        aug-cc-pVTZ
scf_type     df
}

energy("mp2", bsse_type="cp")
--------------------------------------------------------------------------

                               Psi4 1.9 release
    Molecular point group: c1
  Charge       = 0
  Multiplicity = 1
  Basis Set: AUG-CC-PVTZ
    Blend: AUG-CC-PVTZ
  Basis Set: (AUG-CC-PVTZ AUX)
    Blend: AUG-CC-PVTZ-JKFIT
  @DF-RHF Final Energy:  -532.39840896146291
    Total Energy =                       -532.3984089614629056
 Dipole X            :        -58.7520511           58.3697491           -0.3823021
 Dipole Y            :         68.5470143          -67.9364555            0.6105588
 Dipole Z            :        -29.2830008           30.7162321            1.4332313
 Magnitude           :                                                    1.6040851
  Basis Set: (AUG-CC-PVTZ AUX)
    Blend: AUG-CC-PVTZ-RI
	 Reference Energy          =    -532.3984089614629056 [Eh]
	 Singles Energy            =      -0.0000000000000000 [Eh]
	 Same-Spin Energy          =      -0.4831658196826835 [Eh]
	 Opposite-Spin Energy      =      -1.5173925583582262 [Eh]
	 Correlation Energy        =      -2.0005583780409095 [Eh]
	 Total Energy              =    -534.3989673395037698 [Eh]
	 SCS Total Energy          =    -534.3803353047203473 [Eh]
                               Psi4 1.9 release
    Molecular point group: c1
  Multiplicity = 1
  Basis Set: AUG-CC-PVTZ
    Blend: AUG-CC-PVTZ
  Basis Set: (AUG-CC-PVTZ AUX)
    Blend: AUG-CC-PVTZ-JKFIT
  @DF-RHF Final Energy:  -459.57359436532158
    Total Energy =                       -459.5735943653215827
  Basis Set: (AUG-CC-PVTZ AUX)
	 Singles Energy            =      -0.0000000000000000 [Eh]
	 Same-Spin Energy          =      -0.0637368735112309 [Eh]
	 Opposite-Spin Energy      =      -0.1845677950124797 [Eh]
	 Correlation Energy        =      -0.2483046685237106 [Eh]
	 Total Energy              =    -459.8218990338452841 [Eh]
	 SCS Total Energy          =    -459.8163213438402863 [Eh]
                               Psi4 1.9 release
    Molecular point group: c1

    Geometry (in Bohr), charge = -1, multiplicity = 1:

       Center              X                  Y                   Z               Mass
    ------------   -----------------  -----------------  -----------------  -----------------
         CL           0.000000000000     0.000000000000     0.000000000000    34.968852682000
         O           -2.472733091327    -5.708924985970     0.424375795994    15.994914619570
         H           -1.770493855572    -3.980390609288     0.435205816419     1.007825032230
         H           -2.991653775104    -6.092492146285    -1.199031226603     1.007825032230
         O            3.845568098867    -5.171118379296     0.494210624960    15.994914619570
         H            3.640404312878    -6.065504967487     2.177334882848     1.007825032230
         H            2.533928092448    -3.920308656855     0.482998879858     1.007825032230
         O            4.940031330318     3.731713989534    -1.998682064673    15.994914619570
         H            4.922124285553     2.587811743189    -0.614572951069     1.007825032230
         H            6.612735638350     4.422091414400    -1.948931244968     1.007825032230
         O           -0.838038734583     2.210163205099    -5.941873415182    15.994914619570
         H           -1.113479545451     0.955126165316    -4.532532678350     1.007825032230
         H           -1.539847112782     1.518105813708    -7.521973584161     1.007825032230
         O            6.025096953747    -0.126679680546     2.547044681485    15.994914619570
         H            6.809905882828     0.956881720887     3.678979292277     1.007825032230
         H            4.886523735075    -1.214986184280     3.465270164749     1.007825032230
         O            0.141381749802    -1.863443814505     5.671430929915    15.994914619570
         H           -0.350961825746    -0.936145756112     4.178859095614     1.007825032230
         H           -0.655168047696    -1.299371904413     7.139719783504     1.007825032230
         O           -5.722347710639    -0.096873030369     1.502931312921    15.994914619570
         H           -6.076822537253     1.610364132879     1.998069793409     1.007825032230
         H           -3.889114947702    -0.276334651326     1.381333105926     1.007825032230

  Charge       = -1
  Multiplicity = 1
  Basis Set: AUG-CC-PVTZ
    Blend: AUG-CC-PVTZ
  Basis Set: (AUG-CC-PVTZ AUX)
    Blend: AUG-CC-PVTZ-JKFIT

    Orbital Energies [Eh]
    ---------------------

    Doubly Occupied:

       1A   -104.589377     2A    -20.440503     3A    -20.428017
       4A    -20.422958     5A    -20.417228     6A    -20.415182
       7A    -20.411139     8A    -20.406684     9A    -10.314856
      10A     -7.780956    11A     -7.780886    12A     -7.780864
      13A     -1.236178    14A     -1.221920    15A     -1.204889
      16A     -1.199133    17A     -1.194245    18A     -1.187299
      19A     -1.183581    20A     -0.836590    21A     -0.612844
      22A     -0.608139    23A     -0.577316    24A     -0.567624
      25A     -0.566368    26A     -0.556850    27A     -0.550548
      28A     -0.462540    29A     -0.444351    30A     -0.434700
      31A     -0.429902    32A     -0.429392    33A     -0.427531
      34A     -0.421675    35A     -0.390073    36A     -0.378693
      37A     -0.363233    38A     -0.360450    39A     -0.358125
      40A     -0.357019    41A     -0.348790    42A     -0.248549
      43A     -0.244333    44A     -0.243224

  @DF-RHF Final Energy:  -992.03646044811057

   => Energetics <=

    Nuclear Repulsion Energy =            503.8641418107774257
    One-Electron Energy =               -2390.1316923000140378
    Two-Electron Energy =                 894.2310900411259809
    Total Energy =                       -992.0364604481105744
 Dipole X            :        -58.4203998           58.3697491           -0.0506507
 Dipole Y            :         69.1742659          -67.9364555            1.2378105
 Dipole Z            :        -29.6711402           30.7162321            1.0450919
 Magnitude           :                                                    1.6207891
  Basis Set: (AUG-CC-PVTZ AUX)
    Blend: AUG-CC-PVTZ-RI
	 Reference Energy          =    -992.0364604481105744 [Eh]
	 Singles Energy            =      -0.0000000000000000 [Eh]
	 Same-Spin Energy          =      -0.5579702819227857 [Eh]
	 Opposite-Spin Energy      =      -1.7106881051289333 [Eh]
	 Correlation Energy        =      -2.2686583870517190 [Eh]
	 Total Energy              =    -994.3051188351622613 [Eh]

	 ================> DF-SCS-MP2 Energies <==================
	-----------------------------------------------------------
	 SCS Same-Spin Scale       =       0.3333333333333333 [-]
	 SCS Opposite-Spin Scale   =       1.2000000000000000 [-]
	 SCS Same-Spin Energy      =      -0.1859900939742619 [Eh]
	 SCS Opposite-Spin Energy  =      -2.0528257261547198 [Eh]
	 SCS Correlation Energy    =      -2.2388158201289818 [Eh]
	 SCS Total Energy          =    -994.2752762682395087 [Eh]
	-----------------------------------------------------------

*** Psi4 exiting successfully. Buy a developer a beer!
