                               Psi4 1.9 release

  ==> Input File <==

--------------------------------------------------------------------------
MEMORY 60 GB

molecule dimer {
-1 1
Cl     0.000000     0.000000     0.000000
--
0 1
O      1.771129     2.489187     0.169336
H      1.379107     1.608893     0.191284
H      1.074826     3.009005    -0.305359
O     -0.595761    -2.485321     1.681379
H     -0.839779    -2.280443     2.596276
H     -0.383113    -1.560361     1.328127
O     -3.305344     0.023545    -0.246950
H     -3.552244    -0.023220    -1.134455
H     -2.322919     0.116370    -0.213788

units ang
no_reorient
no_com
symmetry c1
}

set {
basis        aug-cc-pVTZ
scf_type     df
}

energy("mp2", bsse_type="cp")
--------------------------------------------------------------------------

                               Psi4 1.9 release
    Molecular point group: c1
  Charge       = 0
  Multiplicity = 1
  Basis Set: AUG-CC-PVTZ
    Blend: AUG-CC-PVTZ
  Basis Set: (AUG-CC-PVTZ AUX)
    Blend: AUG-CC-PVTZ-JKFIT
  @DF-RHF Final Energy:  -228.16898001100915
    Total Energy =                       -228.1689800110091539
 Dipole X            :         40.7060848          -40.9766890           -0.2706042
 Dipole Y            :         -1.5642042            2.0589171            0.4947128
 Dipole Z            :        -29.3925099           28.8980793           -0.4944306
 Magnitude           :                                                    0.7499527
  Basis Set: (AUG-CC-PVTZ AUX)
    Blend: AUG-CC-PVTZ-RI
	 Reference Energy          =    -228.1689800110091539 [Eh]
	 Singles Energy            =      -0.0000000000000000 [Eh]
	 Same-Spin Energy          =      -0.2062720671606987 [Eh]
	 Opposite-Spin Energy      =      -0.6504230899804277 [Eh]
	 Correlation Energy        =      -0.8566951571411265 [Eh]
	 Total Energy              =    -229.0256751681502863 [Eh]
	 SCS Total Energy          =    -229.0182450747059022 [Eh]
                               Psi4 1.9 release
    Molecular point group: c1
  Multiplicity = 1
  Basis Set: AUG-CC-PVTZ
    Blend: AUG-CC-PVTZ
  Basis Set: (AUG-CC-PVTZ AUX)
    Blend: AUG-CC-PVTZ-JKFIT
  @DF-RHF Final Energy:  -459.57355262484157
    Total Energy =                       -459.5735526248415681
  Basis Set: (AUG-CC-PVTZ AUX)
	 Singles Energy            =      -0.0000000000000000 [Eh]
	 Same-Spin Energy          =      -0.0632890456846061 [Eh]
	 Opposite-Spin Energy      =      -0.1829283846074338 [Eh]
	 Correlation Energy        =      -0.2462174302920399 [Eh]
	 Total Energy              =    -459.8197700551336311 [Eh]
	 SCS Total Energy          =    -459.8141630349320508 [Eh]
                               Psi4 1.9 release
    Molecular point group: c1

    Geometry (in Bohr), charge = -1, multiplicity = 1:

       Center              X                  Y                   Z               Mass
    ------------   -----------------  -----------------  -----------------  -----------------
         CL           0.000000000000     0.000000000000     0.000000000000    34.968852682000
         O            3.346948742856     4.703881705050     0.319998663181    15.994914619570
         H            2.606134527702     3.040367135166     0.361474372182     1.007825032230
         H            2.031126772521     5.686195360133    -0.577044879944     1.007825032230
         O           -1.125825126229    -4.696576023849     3.177345823096    15.994914619570
         H           -1.586952315911    -4.309412714717     4.906250586099     1.007825032230
         H           -0.723978645103    -2.948654946846     2.509796289826     1.007825032230
         O           -6.246194910425     0.044493601624    -0.466667866682    15.994914619570
         H           -6.712768290801    -0.043879440633    -2.143809251656     1.007825032230
         H           -4.389680721622     0.219907429220    -0.404000768909     1.007825032230

  Charge       = -1
  Multiplicity = 1
  Basis Set: AUG-CC-PVTZ
    Blend: AUG-CC-PVTZ
  Basis Set: (AUG-CC-PVTZ AUX)
    Blend: AUG-CC-PVTZ-JKFIT

    Orbital Energies [Eh]
    ---------------------

    Doubly Occupied:

       1A   -104.571311     2A    -20.407150     3A    -20.399073
       4A    -20.395644     5A    -10.296871     6A     -7.762986
       7A     -7.762921     8A     -7.762865     9A     -1.199304
      10A     -1.178114    11A     -1.167511    12A     -0.816680
      13A     -0.571463    14A     -0.537805    15A     -0.523176
      16A     -0.429378    17A     -0.426669    18A     -0.418051
      19A     -0.356046    20A     -0.343433    21A     -0.336368
      22A     -0.228183    23A     -0.226003    24A     -0.222573

  @DF-RHF Final Energy:  -687.79128971517582

   => Energetics <=

    Nuclear Repulsion Energy =            148.0759226320045912
    One-Electron Energy =               -1255.0552662204609078
    Two-Electron Energy =                 419.1880538732803529
    Total Energy =                       -687.7912897151759353
 Dipole X            :         40.9887639          -40.9766890            0.0120749
 Dipole Y            :         -1.6031267            2.0589171            0.4557904
 Dipole Z            :        -29.6788831           28.8980793           -0.7808038
 Magnitude           :                                                    0.9041821
  Basis Set: (AUG-CC-PVTZ AUX)
    Blend: AUG-CC-PVTZ-RI
	 Reference Energy          =    -687.7912897151758216 [Eh]
	 Singles Energy            =      -0.0000000000000000 [Eh]
	 Same-Spin Energy          =      -0.2769958171590123 [Eh]
	 Opposite-Spin Energy      =      -0.8383344884076012 [Eh]
	 Correlation Energy        =      -1.1153303055666135 [Eh]
	 Total Energy              =    -688.9066200207424799 [Eh]

	 ================> DF-SCS-MP2 Energies <==================
	-----------------------------------------------------------
	 SCS Same-Spin Scale       =       0.3333333333333333 [-]
	 SCS Opposite-Spin Scale   =       1.2000000000000000 [-]
	 SCS Same-Spin Energy      =      -0.0923319390530041 [Eh]
	 SCS Opposite-Spin Energy  =      -1.0060013860891213 [Eh]
	 SCS Correlation Energy    =      -1.0983333251421254 [Eh]
	 SCS Total Energy          =    -688.8896230403179288 [Eh]
	-----------------------------------------------------------

*** Psi4 exiting successfully. Buy a developer a beer!
