                               Psi4 1.9 release

  ==> Input File <==

--------------------------------------------------------------------------
MEMORY 60 GB

molecule dimer {
-1 1
Cl     0.000000     0.000000     0.000000
--
0 1
O     -0.530148    -2.541396     2.339857
H      0.120897    -3.202570     2.327133
H     -0.132628    -1.880997     1.716211
O     -3.000928    -1.352034     0.154153
H     -2.071433    -1.106112     0.036891
H     -3.306104    -0.958508     1.007444
O      1.266958    -0.619388    -2.939972
H      1.004602    -0.223763    -2.097255
H      2.223231    -0.656263    -2.974201
O      1.279146    -2.624031    -0.164319
H      0.765925    -1.837237    -0.085508
H      0.822661    -3.176240    -0.835511
O      2.570326     0.754051     2.126946
H      2.553981     1.080305     3.025190
H      1.674012     0.429569     1.888366

units ang
no_reorient
no_com
symmetry c1
}

set {
basis        aug-cc-pVTZ
scf_type     df
}

energy("mp2", bsse_type="cp")
--------------------------------------------------------------------------

                               Psi4 1.9 release
    Molecular point group: c1
  Charge       = 0
  Multiplicity = 1
  Basis Set: AUG-CC-PVTZ
    Blend: AUG-CC-PVTZ
  Basis Set: (AUG-CC-PVTZ AUX)
    Blend: AUG-CC-PVTZ-JKFIT
  @DF-RHF Final Energy:  -380.28560481901224
    Total Energy =                       -380.2856048190122351
 Dipole X            :        -30.4795803           30.8743001            0.3947198
 Dipole Y            :        118.9419473         -118.2858950            0.6560522
 Dipole Z            :        -29.8799254           30.5041103            0.6241849
 Magnitude           :                                                    0.9878335
  Basis Set: (AUG-CC-PVTZ AUX)
    Blend: AUG-CC-PVTZ-RI
	 Reference Energy          =    -380.2856048190122351 [Eh]
	 Singles Energy            =      -0.0000000000000000 [Eh]
	 Same-Spin Energy          =      -0.3444209423831323 [Eh]
	 Opposite-Spin Energy      =      -1.0832393081197393 [Eh]
	 Correlation Energy        =      -1.4276602505028717 [Eh]
	 Total Energy              =    -381.7132650695151028 [Eh]
	 SCS Total Energy          =    -381.7002989695503175 [Eh]
                               Psi4 1.9 release
    Molecular point group: c1
  Multiplicity = 1
  Basis Set: AUG-CC-PVTZ
    Blend: AUG-CC-PVTZ
  Basis Set: (AUG-CC-PVTZ AUX)
    Blend: AUG-CC-PVTZ-JKFIT
  @DF-RHF Final Energy:  -459.57357763119023
    Total Energy =                       -459.5735776311901759
  Basis Set: (AUG-CC-PVTZ AUX)
	 Singles Energy            =      -0.0000000000000000 [Eh]
	 Same-Spin Energy          =      -0.0636312650772799 [Eh]
	 Opposite-Spin Energy      =      -0.1842465401699276 [Eh]
	 Correlation Energy        =      -0.2478778052472075 [Eh]
	 Total Energy              =    -459.8214554364374180 [Eh]
	 SCS Total Energy          =    -459.8158839010865790 [Eh]
                               Psi4 1.9 release
    Molecular point group: c1

    Geometry (in Bohr), charge = -1, multiplicity = 1:

       Center              X                  Y                   Z               Mass
    ------------   -----------------  -----------------  -----------------  -----------------
         CL           0.000000000000     0.000000000000     0.000000000000    34.968852682000
         O           -1.001834525959    -4.802542416334     4.421688902735    15.994914619570
         H            0.228462219389    -6.051980197607     4.397644027515     1.007825032230
         H           -0.250630596567    -3.554569172808     3.243168763498     1.007825032230
         O           -5.670932042218    -2.554973972307     0.291306951418    15.994914619570
         H           -3.914441057235    -2.090248744082     0.069713886494     1.007825032230
         H           -6.247631102281    -1.811317609060     1.903793246736     1.007825032230
         O            2.394203632458    -1.170473685395    -5.555741896515    15.994914619570
         H            1.898422645087    -0.422850787011    -3.963237565247     1.007825032230
         H            4.201297703628    -1.240157336271    -5.620425332063     1.007825032230
         O            2.417235614475    -4.958699934711    -0.310517907209    15.994914619570
         H            1.447388482641    -3.471874757558    -0.161586701536     1.007825032230
         H            1.554603984095    -6.002223708724    -1.578886964807     1.007825032230
         O            4.857212193144     1.424949874628     4.019345423638    15.994914619570
         H            4.826324619623     2.041480581963     5.716780577474     1.007825032230
         H            3.163424210730     0.811767761987     3.568494564626     1.007825032230

  Charge       = -1
  Multiplicity = 1
  Basis Set: AUG-CC-PVTZ
    Blend: AUG-CC-PVTZ
  Basis Set: (AUG-CC-PVTZ AUX)
    Blend: AUG-CC-PVTZ-JKFIT

    Orbital Energies [Eh]
    ---------------------

    Doubly Occupied:

       1A   -104.591327     2A    -20.431671     3A    -20.418012
       4A    -20.414012     5A    -20.410515     6A    -20.400990
       7A    -10.317061     8A     -7.783172     9A     -7.783102
      10A     -7.783071    11A     -1.210652    12A     -1.209083
      13A     -1.199093    14A     -1.191714    15A     -1.185176
      16A     -0.839800    17A     -0.585433    18A     -0.574385
      19A     -0.569899    20A     -0.559094    21A     -0.555963
      22A     -0.449630    23A     -0.441838    24A     -0.431157
      25A     -0.429407    26A     -0.424603    27A     -0.374596
      28A     -0.369368    29A     -0.362659    30A     -0.351613
      31A     -0.344976    32A     -0.249802    33A     -0.247423
      34A     -0.245476

  @DF-RHF Final Energy:  -839.92445099319059

   => Energetics <=

    Nuclear Repulsion Energy =            309.8110292099140679
    One-Electron Energy =               -1789.9994115586796397
    Two-Electron Energy =                 640.2639313555749823
    Total Energy =                       -839.9244509931905895
 Dipole X            :        -30.6641019           30.8743001            0.2101981
 Dipole Y            :        119.7883104         -118.2858950            1.5024153
 Dipole Z            :        -30.0126992           30.5041103            0.4914111
 Magnitude           :                                                    1.5946536
  Basis Set: (AUG-CC-PVTZ AUX)
    Blend: AUG-CC-PVTZ-RI
	 Reference Energy          =    -839.9244509931905895 [Eh]
	 Singles Energy            =      -0.0000000000000000 [Eh]
	 Same-Spin Energy          =      -0.4175261161862727 [Eh]
	 Opposite-Spin Energy      =      -1.2742842631864029 [Eh]
	 Correlation Energy        =      -1.6918103793726755 [Eh]
	 Total Energy              =    -841.6162613725632582 [Eh]

	 ================> DF-SCS-MP2 Energies <==================
	-----------------------------------------------------------
	 SCS Same-Spin Scale       =       0.3333333333333333 [-]
	 SCS Opposite-Spin Scale   =       1.2000000000000000 [-]
	 SCS Same-Spin Energy      =      -0.1391753720620909 [Eh]
	 SCS Opposite-Spin Energy  =      -1.5291411158236834 [Eh]
	 SCS Correlation Energy    =      -1.6683164878857744 [Eh]
	 SCS Total Energy          =    -841.5927674810764074 [Eh]
	-----------------------------------------------------------

*** Psi4 exiting successfully. Buy a developer a beer!
