                               Psi4 1.8.2 release

  ==> Input File <==

--------------------------------------------------------------------------
MEMORY 60 GB

molecule dimer {
0 1
Gh(Cl)     0.000000     0.000000     0.000000
Gh(O)      0.024502     3.145214    -1.100846
Gh(H)     -0.079884     2.231023    -0.803905
Gh(H)     -0.839084     3.515903    -1.288931
Gh(O)     -3.198150     0.573138    -0.927404
Gh(H)     -2.286936     0.664904    -0.721780
Gh(H)     -3.628705     0.671446    -0.059234
Gh(O)     -0.392662    -2.420613    -2.381684
Gh(H)     -0.078206    -1.721059    -1.745198
Gh(H)      0.148491    -2.349436    -3.168547
O         -0.516218     0.741767    -3.194309
H          0.316690     0.901052    -3.635347
H         -0.443624     0.828168    -2.261763
Gh(O)     -1.018909     1.789826     2.097121
Gh(H)     -0.949530     2.709738     1.735634
Gh(H)     -0.639964     1.169711     1.486154
Gh(O)      2.936787     0.437537     1.380431
Gh(H)      2.845975    -0.128141     2.146149
Gh(H)      2.378137     0.108698     0.647245

units ang
no_reorient
no_com
symmetry c1
}

set {
basis        aug-cc-pVTZ
scf_type     df
}

energy("mp2")
--------------------------------------------------------------------------

    Molecular point group: c1

    Geometry (in Angstrom), charge = 0, multiplicity = 1:

       Center              X                  Y                   Z               Mass
    ------------   -----------------  -----------------  -----------------  -----------------
      Gh(CL)          0.000000000000     0.000000000000     0.000000000000    34.968852682000
      Gh(O)           0.024502000000     3.145214000000    -1.100846000000    15.994914619570
      Gh(H)          -0.079884000000     2.231023000000    -0.803905000000     1.007825032230
      Gh(H)          -0.839084000000     3.515903000000    -1.288931000000     1.007825032230
      Gh(O)          -3.198150000000     0.573138000000    -0.927404000000    15.994914619570
      Gh(H)          -2.286936000000     0.664904000000    -0.721780000000     1.007825032230
      Gh(H)          -3.628705000000     0.671446000000    -0.059234000000     1.007825032230
      Gh(O)          -0.392662000000    -2.420613000000    -2.381684000000    15.994914619570
      Gh(H)          -0.078206000000    -1.721059000000    -1.745198000000     1.007825032230
      Gh(H)           0.148491000000    -2.349436000000    -3.168547000000     1.007825032230
         O           -0.516218000000     0.741767000000    -3.194309000000    15.994914619570
         H            0.316690000000     0.901052000000    -3.635347000000     1.007825032230
         H           -0.443624000000     0.828168000000    -2.261763000000     1.007825032230
      Gh(O)          -1.018909000000     1.789826000000     2.097121000000    15.994914619570
      Gh(H)          -0.949530000000     2.709738000000     1.735634000000     1.007825032230
      Gh(H)          -0.639964000000     1.169711000000     1.486154000000     1.007825032230
      Gh(O)           2.936787000000     0.437537000000     1.380431000000    15.994914619570
      Gh(H)           2.845975000000    -0.128141000000     2.146149000000     1.007825032230
      Gh(H)           2.378137000000     0.108698000000     0.647245000000     1.007825032230

  Charge       = 0
  Multiplicity = 1
  Basis Set: AUG-CC-PVTZ
    Blend: AUG-CC-PVTZ
  Basis Set: (AUG-CC-PVTZ AUX)
    Blend: AUG-CC-PVTZ-JKFIT

    Orbital Energies [Eh]
    ---------------------

    Doubly Occupied:

       1A    -20.561910     2A     -1.353275     3A     -0.737278
       4A     -0.572023     5A     -0.508922

  @DF-RHF Final Energy:   -76.06017713557469

   => Energetics <=

    Nuclear Repulsion Energy =              9.2724768902876846
    One-Electron Energy =                -123.1984902086655325
    Two-Electron Energy =                  37.8658361828031431
    Total Energy =                        -76.0601771355746905
 Dipole X            :          8.6633162           -8.0439556            0.6193606
 Dipole Y            :        -14.3132627           14.4816440            0.1683813
 Dipole Z            :         59.7740223          -59.4348762            0.3391461
 Magnitude           :                                                    0.7259338
  Basis Set: (AUG-CC-PVTZ AUX)
    Blend: AUG-CC-PVTZ-RI
	 Reference Energy          =     -76.0601771355746905 [Eh]
	 Singles Energy            =      -0.0000000000000000 [Eh]
	 Same-Spin Energy          =      -0.0681817846335212 [Eh]
	 Opposite-Spin Energy      =      -0.2153554961010829 [Eh]
	 Correlation Energy        =      -0.2835372807346042 [Eh]
	 Total Energy              =     -76.3437144163092967 [Eh]

	 ================> DF-SCS-MP2 Energies <==================
	-----------------------------------------------------------
	 SCS Same-Spin Scale       =       0.3333333333333333 [-]
	 SCS Opposite-Spin Scale   =       1.2000000000000000 [-]
	 SCS Same-Spin Energy      =      -0.0227272615445071 [Eh]
	 SCS Opposite-Spin Energy  =      -0.2584265953212995 [Eh]
	 SCS Correlation Energy    =      -0.2811538568658065 [Eh]
	 SCS Total Energy          =     -76.3413309924405041 [Eh]
	-----------------------------------------------------------

*** Psi4 exiting successfully. Buy a developer a beer!
