                               Psi4 1.8.2 release

  ==> Input File <==

--------------------------------------------------------------------------
MEMORY 60 GB

molecule dimer {
0 1
Gh(Cl)     0.000000     0.000000     0.000000
Gh(O)      0.523611    -3.326317    -0.270829
Gh(H)      1.371760    -3.541864    -0.752050
Gh(H)      0.520142    -2.413760    -0.485172
Gh(O)     -0.566034    -1.015128    -2.856991
Gh(H)     -1.423681    -1.463563    -2.743114
Gh(H)     -0.308453    -0.737514    -1.960884
O          1.763372     1.458735    -2.322450
H          1.440294     0.911291    -1.581146
H          2.304948     0.879717    -2.772692
Gh(O)     -2.397826    -1.807276     1.763323
Gh(H)     -1.510550    -2.113811     1.658959
Gh(H)     -2.434657    -1.289060     0.981632

units ang
no_reorient
no_com
symmetry c1
}

set {
basis        aug-cc-pVTZ
scf_type     df
}

energy("mp2")
--------------------------------------------------------------------------

    Molecular point group: c1

    Geometry (in Angstrom), charge = 0, multiplicity = 1:

       Center              X                  Y                   Z               Mass
    ------------   -----------------  -----------------  -----------------  -----------------
      Gh(CL)          0.000000000000     0.000000000000     0.000000000000    34.968852682000
      Gh(O)           0.523611000000    -3.326317000000    -0.270829000000    15.994914619570
      Gh(H)           1.371760000000    -3.541864000000    -0.752050000000     1.007825032230
      Gh(H)           0.520142000000    -2.413760000000    -0.485172000000     1.007825032230
      Gh(O)          -0.566034000000    -1.015128000000    -2.856991000000    15.994914619570
      Gh(H)          -1.423681000000    -1.463563000000    -2.743114000000     1.007825032230
      Gh(H)          -0.308453000000    -0.737514000000    -1.960884000000     1.007825032230
         O            1.763372000000     1.458735000000    -2.322450000000    15.994914619570
         H            1.440294000000     0.911291000000    -1.581146000000     1.007825032230
         H            2.304948000000     0.879717000000    -2.772692000000     1.007825032230
      Gh(O)          -2.397826000000    -1.807276000000     1.763323000000    15.994914619570
      Gh(H)          -1.510550000000    -2.113811000000     1.658959000000     1.007825032230
      Gh(H)          -2.434657000000    -1.289060000000     0.981632000000     1.007825032230

  Charge       = 0
  Multiplicity = 1
  Basis Set: AUG-CC-PVTZ
    Blend: AUG-CC-PVTZ
  Basis Set: (AUG-CC-PVTZ AUX)
    Blend: AUG-CC-PVTZ-JKFIT

    Orbital Energies [Eh]
    ---------------------

    Doubly Occupied:

       1A    -20.565429     2A     -1.363079     3A     -0.721203
       4A     -0.591140     5A     -0.512141

  @DF-RHF Final Energy:   -76.05854210298614

   => Energetics <=

    Nuclear Repulsion Energy =              9.3377248296267172
    One-Electron Energy =                -123.2865483823486414
    Two-Electron Energy =                  37.8902814497357809
    Total Energy =                        -76.0585421029861379
 Dipole X            :        -33.5827608           33.7358028            0.1530419
 Dipole Y            :        -26.1893024           25.4373917           -0.7519107
 Dipole Z            :         43.5230318          -43.3379169            0.1851149
 Magnitude           :                                                    0.7893409
  Basis Set: (AUG-CC-PVTZ AUX)
    Blend: AUG-CC-PVTZ-RI
	 Reference Energy          =     -76.0585421029861379 [Eh]
	 Singles Energy            =      -0.0000000000000000 [Eh]
	 Same-Spin Energy          =      -0.0681853834609620 [Eh]
	 Opposite-Spin Energy      =      -0.2151387632335484 [Eh]
	 Correlation Energy        =      -0.2833241466945104 [Eh]
	 Total Energy              =     -76.3418662496806490 [Eh]

	 ================> DF-SCS-MP2 Energies <==================
	-----------------------------------------------------------
	 SCS Same-Spin Scale       =       0.3333333333333333 [-]
	 SCS Opposite-Spin Scale   =       1.2000000000000000 [-]
	 SCS Same-Spin Energy      =      -0.0227284611536540 [Eh]
	 SCS Opposite-Spin Energy  =      -0.2581665158802581 [Eh]
	 SCS Correlation Energy    =      -0.2808949770339121 [Eh]
	 SCS Total Energy          =     -76.3394370800200477 [Eh]
	-----------------------------------------------------------

*** Psi4 exiting successfully. Buy a developer a beer!
