                               Psi4 1.8.2 release

  ==> Input File <==

--------------------------------------------------------------------------
MEMORY 60 GB

molecule dimer {
0 1
Gh(Cl)     0.000000     0.000000     0.000000
Gh(O)      1.242748     0.373838    -2.862966
Gh(H)      1.138454     0.351436    -1.908457
Gh(H)      2.040450     0.897382    -2.964663
Gh(O)      0.276420     3.153674    -0.747807
Gh(H)      0.355701     2.306751    -0.429567
Gh(H)     -0.187972     3.065629    -1.574720
Gh(O)      0.006494     0.560028     2.997778
Gh(H)      0.008803     0.499540     2.013278
Gh(H)      0.769493     0.188003     3.383861
O          3.047364     0.861757     0.211652
H          2.118883     0.732903     0.199202
H          3.204150     1.194867    -0.687368
Gh(O)      2.269934    -2.438292    -1.028284
Gh(H)      2.047839    -1.483943    -0.900356
Gh(H)      1.445497    -2.891753    -0.787702

units ang
no_reorient
no_com
symmetry c1
}

set {
basis        aug-cc-pVTZ
scf_type     df
}

energy("mp2")
--------------------------------------------------------------------------

    Molecular point group: c1

    Geometry (in Angstrom), charge = 0, multiplicity = 1:

       Center              X                  Y                   Z               Mass
    ------------   -----------------  -----------------  -----------------  -----------------
      Gh(CL)          0.000000000000     0.000000000000     0.000000000000    34.968852682000
      Gh(O)           1.242748000000     0.373838000000    -2.862966000000    15.994914619570
      Gh(H)           1.138454000000     0.351436000000    -1.908457000000     1.007825032230
      Gh(H)           2.040450000000     0.897382000000    -2.964663000000     1.007825032230
      Gh(O)           0.276420000000     3.153674000000    -0.747807000000    15.994914619570
      Gh(H)           0.355701000000     2.306751000000    -0.429567000000     1.007825032230
      Gh(H)          -0.187972000000     3.065629000000    -1.574720000000     1.007825032230
      Gh(O)           0.006494000000     0.560028000000     2.997778000000    15.994914619570
      Gh(H)           0.008803000000     0.499540000000     2.013278000000     1.007825032230
      Gh(H)           0.769493000000     0.188003000000     3.383861000000     1.007825032230
         O            3.047364000000     0.861757000000     0.211652000000    15.994914619570
         H            2.118883000000     0.732903000000     0.199202000000     1.007825032230
         H            3.204150000000     1.194867000000    -0.687368000000     1.007825032230
      Gh(O)           2.269934000000    -2.438292000000    -1.028284000000    15.994914619570
      Gh(H)           2.047839000000    -1.483943000000    -0.900356000000     1.007825032230
      Gh(H)           1.445497000000    -2.891753000000    -0.787702000000     1.007825032230

  Charge       = 0
  Multiplicity = 1
  Basis Set: AUG-CC-PVTZ
    Blend: AUG-CC-PVTZ
  Basis Set: (AUG-CC-PVTZ AUX)
    Blend: AUG-CC-PVTZ-JKFIT

    Orbital Energies [Eh]
    ---------------------

    Doubly Occupied:

       1A    -20.567919     2A     -1.357664     3A     -0.712805
       4A     -0.591772     5A     -0.511522

  @DF-RHF Final Energy:   -76.05978111451775

   => Energetics <=

    Nuclear Repulsion Energy =              9.2321419017194426
    One-Electron Energy =                -123.1004793657479581
    Two-Electron Energy =                  37.8085563495107735
    Total Energy =                        -76.0597811145177332
 Dipole X            :        -56.6429628           56.1285414           -0.5144213
 Dipole Y            :        -16.5380606           16.6708351            0.1327744
 Dipole Z            :         -2.8748054            2.2772145           -0.5975909
 Magnitude           :                                                    0.7996082
  Basis Set: (AUG-CC-PVTZ AUX)
    Blend: AUG-CC-PVTZ-RI
	 Reference Energy          =     -76.0597811145177474 [Eh]
	 Singles Energy            =      -0.0000000000000000 [Eh]
	 Same-Spin Energy          =      -0.0684451541426335 [Eh]
	 Opposite-Spin Energy      =      -0.2163046729402170 [Eh]
	 Correlation Energy        =      -0.2847498270828505 [Eh]
	 Total Energy              =     -76.3445309416005955 [Eh]

	 ================> DF-SCS-MP2 Energies <==================
	-----------------------------------------------------------
	 SCS Same-Spin Scale       =       0.3333333333333333 [-]
	 SCS Opposite-Spin Scale   =       1.2000000000000000 [-]
	 SCS Same-Spin Energy      =      -0.0228150513808778 [Eh]
	 SCS Opposite-Spin Energy  =      -0.2595656075282604 [Eh]
	 SCS Correlation Energy    =      -0.2823806589091382 [Eh]
	 SCS Total Energy          =     -76.3421617734268807 [Eh]
	-----------------------------------------------------------

*** Psi4 exiting successfully. Buy a developer a beer!
