                               Psi4 1.8.2 release

  ==> Input File <==

--------------------------------------------------------------------------
MEMORY 60 GB

molecule dimer {
0 1
Gh(Cl)     0.000000     0.000000     0.000000
Gh(O)      1.643517    -2.671033    -0.571244
Gh(H)      1.442644    -3.447881     0.013578
Gh(H)      0.828471    -2.107925    -0.378806
O         -2.118199    -2.087345     0.884562
H         -1.644371    -1.233785     0.607522
H         -3.051365    -1.880592     0.681310
Gh(O)      0.599442     1.213303     2.922861
Gh(H)      0.626392     1.960370     2.295878
Gh(H)      0.540948     0.461657     2.407060
Gh(O)     -2.500190     1.554417     0.736574
Gh(H)     -1.721962     1.048901     0.477950
Gh(H)     -3.117665     1.113809     0.151889
Gh(O)      0.419712     0.008157    -3.275042
Gh(H)     -0.472377     0.059341    -3.781707
Gh(H)      0.155255    -0.226504    -2.409947

units ang
no_reorient
no_com
symmetry c1
}

set {
basis        aug-cc-pVTZ
scf_type     df
}

energy("mp2")
--------------------------------------------------------------------------

    Molecular point group: c1

    Geometry (in Angstrom), charge = 0, multiplicity = 1:

       Center              X                  Y                   Z               Mass
    ------------   -----------------  -----------------  -----------------  -----------------
      Gh(CL)          0.000000000000     0.000000000000     0.000000000000    34.968852682000
      Gh(O)           1.643517000000    -2.671033000000    -0.571244000000    15.994914619570
      Gh(H)           1.442644000000    -3.447881000000     0.013578000000     1.007825032230
      Gh(H)           0.828471000000    -2.107925000000    -0.378806000000     1.007825032230
         O           -2.118199000000    -2.087345000000     0.884562000000    15.994914619570
         H           -1.644371000000    -1.233785000000     0.607522000000     1.007825032230
         H           -3.051365000000    -1.880592000000     0.681310000000     1.007825032230
      Gh(O)           0.599442000000     1.213303000000     2.922861000000    15.994914619570
      Gh(H)           0.626392000000     1.960370000000     2.295878000000     1.007825032230
      Gh(H)           0.540948000000     0.461657000000     2.407060000000     1.007825032230
      Gh(O)          -2.500190000000     1.554417000000     0.736574000000    15.994914619570
      Gh(H)          -1.721962000000     1.048901000000     0.477950000000     1.007825032230
      Gh(H)          -3.117665000000     1.113809000000     0.151889000000     1.007825032230
      Gh(O)           0.419712000000     0.008157000000    -3.275042000000    15.994914619570
      Gh(H)          -0.472377000000     0.059341000000    -3.781707000000     1.007825032230
      Gh(H)           0.155255000000    -0.226504000000    -2.409947000000     1.007825032230

  Charge       = 0
  Multiplicity = 1
  Basis Set: AUG-CC-PVTZ
    Blend: AUG-CC-PVTZ
  Basis Set: (AUG-CC-PVTZ AUX)
    Blend: AUG-CC-PVTZ-JKFIT

    Orbital Energies [Eh]
    ---------------------

    Doubly Occupied:

       1A    -20.574794     2A     -1.336306     3A     -0.692993
       4A     -0.581747     5A     -0.508060

  @DF-RHF Final Energy:   -76.05475905521590

   => Energetics <=

    Nuclear Repulsion Energy =              8.8453295344181466
    One-Electron Energy =                -122.4123731799917039
    Two-Electron Energy =                  37.5122845903576732
    Total Energy =                        -76.0547590552158965
 Dipole X            :         40.5934599          -40.8961829           -0.3027230
 Dipole Y            :         38.1232379          -37.4414026            0.6818353
 Dipole Z            :        -16.1179090           15.8081789           -0.3097301
 Magnitude           :                                                    0.8077583
  Basis Set: (AUG-CC-PVTZ AUX)
    Blend: AUG-CC-PVTZ-RI
	 Reference Energy          =     -76.0547590552158965 [Eh]
	 Singles Energy            =      -0.0000000000000000 [Eh]
	 Same-Spin Energy          =      -0.0691262025617535 [Eh]
	 Opposite-Spin Energy      =      -0.2181047887398980 [Eh]
	 Correlation Energy        =      -0.2872309913016515 [Eh]
	 Total Energy              =     -76.3419900465175516 [Eh]

	 ================> DF-SCS-MP2 Energies <==================
	-----------------------------------------------------------
	 SCS Same-Spin Scale       =       0.3333333333333333 [-]
	 SCS Opposite-Spin Scale   =       1.2000000000000000 [-]
	 SCS Same-Spin Energy      =      -0.0230420675205845 [Eh]
	 SCS Opposite-Spin Energy  =      -0.2617257464878776 [Eh]
	 SCS Correlation Energy    =      -0.2847678140084621 [Eh]
	 SCS Total Energy          =     -76.3395268692243576 [Eh]
	-----------------------------------------------------------

*** Psi4 exiting successfully. Buy a developer a beer!
