                               Psi4 1.8.2 release

  ==> Input File <==

--------------------------------------------------------------------------
MEMORY 60 GB

molecule dimer {
0 1
Gh(Cl)     0.000000     0.000000     0.000000
Gh(O)      0.923800     0.408945    -3.194493
Gh(H)      0.272905    -0.114701    -3.625352
Gh(H)      0.832172     0.185801    -2.298947
Gh(O)     -2.149744     2.054070     0.217609
Gh(H)     -1.403826     1.455993     0.053234
Gh(H)     -2.334377     1.897274     1.183531
Gh(O)     -0.300157    -2.869195     1.420956
Gh(H)     -0.867771    -3.254414     0.744974
Gh(H)      0.097773    -2.075737     1.017545
Gh(O)      1.448917     0.712721     2.656163
Gh(H)      1.296456     0.906343     1.730539
Gh(H)      0.664996     0.886631     3.121181
O         -2.509108    -1.248524    -1.805840
H         -1.802638    -0.777252    -1.256016
H         -2.458071    -2.098524    -1.337245

units ang
no_reorient
no_com
symmetry c1
}

set {
basis        aug-cc-pVTZ
scf_type     df
}

energy("mp2")
--------------------------------------------------------------------------

    Molecular point group: c1

    Geometry (in Angstrom), charge = 0, multiplicity = 1:

       Center              X                  Y                   Z               Mass
    ------------   -----------------  -----------------  -----------------  -----------------
      Gh(CL)          0.000000000000     0.000000000000     0.000000000000    34.968852682000
      Gh(O)           0.923800000000     0.408945000000    -3.194493000000    15.994914619570
      Gh(H)           0.272905000000    -0.114701000000    -3.625352000000     1.007825032230
      Gh(H)           0.832172000000     0.185801000000    -2.298947000000     1.007825032230
      Gh(O)          -2.149744000000     2.054070000000     0.217609000000    15.994914619570
      Gh(H)          -1.403826000000     1.455993000000     0.053234000000     1.007825032230
      Gh(H)          -2.334377000000     1.897274000000     1.183531000000     1.007825032230
      Gh(O)          -0.300157000000    -2.869195000000     1.420956000000    15.994914619570
      Gh(H)          -0.867771000000    -3.254414000000     0.744974000000     1.007825032230
      Gh(H)           0.097773000000    -2.075737000000     1.017545000000     1.007825032230
      Gh(O)           1.448917000000     0.712721000000     2.656163000000    15.994914619570
      Gh(H)           1.296456000000     0.906343000000     1.730539000000     1.007825032230
      Gh(H)           0.664996000000     0.886631000000     3.121181000000     1.007825032230
         O           -2.509108000000    -1.248524000000    -1.805840000000    15.994914619570
         H           -1.802638000000    -0.777252000000    -1.256016000000     1.007825032230
         H           -2.458071000000    -2.098524000000    -1.337245000000     1.007825032230

  Charge       = 0
  Multiplicity = 1
  Basis Set: AUG-CC-PVTZ
    Blend: AUG-CC-PVTZ
  Basis Set: (AUG-CC-PVTZ AUX)
    Blend: AUG-CC-PVTZ-JKFIT

    Orbital Energies [Eh]
    ---------------------

    Doubly Occupied:

       1A    -20.576648     2A     -1.342530     3A     -0.683679
       4A     -0.594093     5A     -0.510133

  @DF-RHF Final Energy:   -76.05375112847298

   => Energetics <=

    Nuclear Repulsion Energy =              8.8983651800317372
    One-Electron Energy =                -122.4900624006384504
    Two-Electron Energy =                  37.5379460921337440
    Total Energy =                        -76.0537511284729817
 Dipole X            :         46.4627505          -45.9837886            0.4789619
 Dipole Y            :         24.0606471          -24.3093764           -0.2487293
 Dipole Z            :         32.8495940          -32.2008973            0.6486967
 Magnitude           :                                                    0.8438473
  Basis Set: (AUG-CC-PVTZ AUX)
    Blend: AUG-CC-PVTZ-RI
	 Reference Energy          =     -76.0537511284729817 [Eh]
	 Singles Energy            =      -0.0000000000000000 [Eh]
	 Same-Spin Energy          =      -0.0692459515773179 [Eh]
	 Opposite-Spin Energy      =      -0.2183079780704607 [Eh]
	 Correlation Energy        =      -0.2875539296477786 [Eh]
	 Total Energy              =     -76.3413050581207671 [Eh]

	 ================> DF-SCS-MP2 Energies <==================
	-----------------------------------------------------------
	 SCS Same-Spin Scale       =       0.3333333333333333 [-]
	 SCS Opposite-Spin Scale   =       1.2000000000000000 [-]
	 SCS Same-Spin Energy      =      -0.0230819838591060 [Eh]
	 SCS Opposite-Spin Energy  =      -0.2619695736845528 [Eh]
	 SCS Correlation Energy    =      -0.2850515575436588 [Eh]
	 SCS Total Energy          =     -76.3388026860166349 [Eh]
	-----------------------------------------------------------

*** Psi4 exiting successfully. Buy a developer a beer!
