                               Psi4 1.8.2 release

  ==> Input File <==

--------------------------------------------------------------------------
MEMORY 60 GB

molecule dimer {
-1 1
Cl         0.000000     0.000000     0.000000
O          1.786944     1.711555     1.976520
H          1.111820     1.133941     1.610336
H          1.229781     2.396537     2.442747
O          1.278940     2.444591    -1.619882
H          0.965176     1.877241    -0.966811
H          1.460854     3.349589    -1.319799
O         -0.467110     0.733530    -3.068056
H         -0.325138    -0.146267    -3.313972
H         -1.312864     0.680258    -2.644071
O          2.465554    -1.889270     0.290668
H          3.217113    -1.488307     0.658887
H          1.814208    -1.180145     0.387811
O         -0.519821    -0.088559     3.075289
H         -0.722845     0.815865     3.291041
H         -0.491445    -0.012457     2.085786
O         -2.750066     0.488210    -1.600511
H         -2.980126    -0.008406    -0.777965
H         -3.594984     0.525279    -2.067696

units ang
no_reorient
no_com
symmetry c1
}

set {
basis        aug-cc-pVTZ
scf_type     df
}

energy("mp2")
--------------------------------------------------------------------------

    Molecular point group: c1

    Geometry (in Angstrom), charge = -1, multiplicity = 1:

       Center              X                  Y                   Z               Mass
    ------------   -----------------  -----------------  -----------------  -----------------
         CL           0.000000000000     0.000000000000     0.000000000000    34.968852682000
         O            1.786944000000     1.711555000000     1.976520000000    15.994914619570
         H            1.111820000000     1.133941000000     1.610336000000     1.007825032230
         H            1.229781000000     2.396537000000     2.442747000000     1.007825032230
         O            1.278940000000     2.444591000000    -1.619882000000    15.994914619570
         H            0.965176000000     1.877241000000    -0.966811000000     1.007825032230
         H            1.460854000000     3.349589000000    -1.319799000000     1.007825032230
         O           -0.467110000000     0.733530000000    -3.068056000000    15.994914619570
         H           -0.325138000000    -0.146267000000    -3.313972000000     1.007825032230
         H           -1.312864000000     0.680258000000    -2.644071000000     1.007825032230
         O            2.465554000000    -1.889270000000     0.290668000000    15.994914619570
         H            3.217113000000    -1.488307000000     0.658887000000     1.007825032230
         H            1.814208000000    -1.180145000000     0.387811000000     1.007825032230
         O           -0.519821000000    -0.088559000000     3.075289000000    15.994914619570
         H           -0.722845000000     0.815865000000     3.291041000000     1.007825032230
         H           -0.491445000000    -0.012457000000     2.085786000000     1.007825032230
         O           -2.750066000000     0.488210000000    -1.600511000000    15.994914619570
         H           -2.980126000000    -0.008406000000    -0.777965000000     1.007825032230
         H           -3.594984000000     0.525279000000    -2.067696000000     1.007825032230

  Charge       = -1
  Multiplicity = 1
  Basis Set: AUG-CC-PVTZ
    Blend: AUG-CC-PVTZ
  Basis Set: (AUG-CC-PVTZ AUX)
    Blend: AUG-CC-PVTZ-JKFIT

    Orbital Energies [Eh]
    ---------------------

    Doubly Occupied:

       1A   -104.572575     2A    -20.472799     3A    -20.418847
       4A    -20.412478     5A    -20.392260     6A    -20.382520
       7A    -20.378114     8A    -10.298540     9A     -7.764603
      10A     -7.764560    11A     -7.764510    12A     -1.251048
      13A     -1.200577    14A     -1.193167    15A     -1.191246
      16A     -1.187186    17A     -1.176841    18A     -0.822725
      19A     -0.606210    20A     -0.569321    21A     -0.563040
      22A     -0.556708    23A     -0.547359    24A     -0.544687
      25A     -0.484453    26A     -0.452912    27A     -0.434615
      28A     -0.428300    29A     -0.425098    30A     -0.404577
      31A     -0.387152    32A     -0.368738    33A     -0.349287
      34A     -0.342647    35A     -0.338813    36A     -0.327439
      37A     -0.231325    38A     -0.229807    39A     -0.226925

  @DF-RHF Final Energy:  -915.95406953665565

   => Energetics <=

    Nuclear Repulsion Energy =            411.6309255253830202
    One-Electron Energy =               -2100.2419591326006412
    Two-Electron Energy =                 772.6569640705620259
    Total Energy =                       -915.9540695366556520
 Dipole X            :        -30.4051328           27.8301440           -2.5749888
 Dipole Y            :        -66.0313217           66.4117488            0.3804271
 Dipole Z            :         15.8493574          -15.4607603            0.3885971
 Magnitude           :                                                    2.6317864
  Basis Set: (AUG-CC-PVTZ AUX)
    Blend: AUG-CC-PVTZ-RI
	 Reference Energy          =    -915.9540695366556520 [Eh]
	 Singles Energy            =      -0.0000000000000000 [Eh]
	 Same-Spin Energy          =      -0.4903426270526042 [Eh]
	 Opposite-Spin Energy      =      -1.4953736323471711 [Eh]
	 Correlation Energy        =      -1.9857162593997755 [Eh]
	 Total Energy              =    -917.9397857960553893 [Eh]

	 ================> DF-SCS-MP2 Energies <==================
	-----------------------------------------------------------
	 SCS Same-Spin Scale       =       0.3333333333333333 [-]
	 SCS Opposite-Spin Scale   =       1.2000000000000000 [-]
	 SCS Same-Spin Energy      =      -0.1634475423508681 [Eh]
	 SCS Opposite-Spin Energy  =      -1.7944483588166054 [Eh]
	 SCS Correlation Energy    =      -1.9578959011674735 [Eh]
	 SCS Total Energy          =    -917.9119654378231417 [Eh]
	-----------------------------------------------------------

*** Psi4 exiting successfully. Buy a developer a beer!
