                               Psi4 1.8.2 release

  ==> Input File <==

--------------------------------------------------------------------------
MEMORY 60 GB

molecule dimer {
0 1
Gh(Cl)     0.000000     0.000000     0.000000
O          2.741234     0.738472    -1.525475
H          2.030876     0.591915    -0.837522
H          3.603201     0.343611    -1.225902
Gh(O)     -1.282461     2.745085     1.157741
Gh(H)     -1.948791     2.416369     1.805657
Gh(H)     -0.745954     1.941353     0.995102
Gh(O)     -2.297413    -1.049486     2.333506
Gh(H)     -2.862620    -0.996762     1.560954
Gh(H)     -1.356740    -0.962436     2.174113
Gh(O)     -1.160282     1.516406    -2.408583
Gh(H)     -0.693222     0.915110    -1.786235
Gh(H)     -0.649383     2.316099    -2.294649
Gh(O)      1.852777    -0.587624     2.593331
Gh(H)      2.415237    -1.388943     2.530648
Gh(H)      1.630884    -0.133154     1.758059

units ang
no_reorient
no_com
symmetry c1
}

set {
basis        aug-cc-pVTZ
scf_type     df
}

energy("mp2")
--------------------------------------------------------------------------

    Molecular point group: c1

    Geometry (in Angstrom), charge = 0, multiplicity = 1:

       Center              X                  Y                   Z               Mass
    ------------   -----------------  -----------------  -----------------  -----------------
      Gh(CL)          0.000000000000     0.000000000000     0.000000000000    34.968852682000
         O            2.741234000000     0.738472000000    -1.525475000000    15.994914619570
         H            2.030876000000     0.591915000000    -0.837522000000     1.007825032230
         H            3.603201000000     0.343611000000    -1.225902000000     1.007825032230
      Gh(O)          -1.282461000000     2.745085000000     1.157741000000    15.994914619570
      Gh(H)          -1.948791000000     2.416369000000     1.805657000000     1.007825032230
      Gh(H)          -0.745954000000     1.941353000000     0.995102000000     1.007825032230
      Gh(O)          -2.297413000000    -1.049486000000     2.333506000000    15.994914619570
      Gh(H)          -2.862620000000    -0.996762000000     1.560954000000     1.007825032230
      Gh(H)          -1.356740000000    -0.962436000000     2.174113000000     1.007825032230
      Gh(O)          -1.160282000000     1.516406000000    -2.408583000000    15.994914619570
      Gh(H)          -0.693222000000     0.915110000000    -1.786235000000     1.007825032230
      Gh(H)          -0.649383000000     2.316099000000    -2.294649000000     1.007825032230
      Gh(O)           1.852777000000    -0.587624000000     2.593331000000    15.994914619570
      Gh(H)           2.415237000000    -1.388943000000     2.530648000000     1.007825032230
      Gh(H)           1.630884000000    -0.133154000000     1.758059000000     1.007825032230

  Charge       = 0
  Multiplicity = 1
  Basis Set: AUG-CC-PVTZ
    Blend: AUG-CC-PVTZ
  Basis Set: (AUG-CC-PVTZ AUX)
    Blend: AUG-CC-PVTZ-JKFIT

    Orbital Energies [Eh]
    ---------------------

    Doubly Occupied:

       1A    -20.571024     2A     -1.330088     3A     -0.706837
       4A     -0.565875     5A     -0.505271

  @DF-RHF Final Energy:   -76.05425387599107

   => Energetics <=

    Nuclear Repulsion Energy =              8.8153788091884007
    One-Electron Energy =                -122.3810723048931806
    Two-Electron Energy =                  37.5114396197137125
    Total Energy =                        -76.0542538759910656
 Dipole X            :        -51.9875256           52.0883145            0.1007889
 Dipole Y            :        -13.2901503           12.9319666           -0.3581837
 Dipole Z            :         27.6143542          -26.9611459            0.6532083
 Magnitude           :                                                    0.7517546
  Basis Set: (AUG-CC-PVTZ AUX)
    Blend: AUG-CC-PVTZ-RI
	 Reference Energy          =     -76.0542538759910656 [Eh]
	 Singles Energy            =      -0.0000000000000000 [Eh]
	 Same-Spin Energy          =      -0.0689983238158600 [Eh]
	 Opposite-Spin Energy      =      -0.2175971335952062 [Eh]
	 Correlation Energy        =      -0.2865954574110662 [Eh]
	 Total Energy              =     -76.3408493334021330 [Eh]

	 ================> DF-SCS-MP2 Energies <==================
	-----------------------------------------------------------
	 SCS Same-Spin Scale       =       0.3333333333333333 [-]
	 SCS Opposite-Spin Scale   =       1.2000000000000000 [-]
	 SCS Same-Spin Energy      =      -0.0229994412719533 [Eh]
	 SCS Opposite-Spin Energy  =      -0.2611165603142474 [Eh]
	 SCS Correlation Energy    =      -0.2841160015862008 [Eh]
	 SCS Total Energy          =     -76.3383698775772643 [Eh]
	-----------------------------------------------------------

*** Psi4 exiting successfully. Buy a developer a beer!
