                               Psi4 1.8.2 release

  ==> Input File <==

--------------------------------------------------------------------------
MEMORY 60 GB

molecule dimer {
0 1
Gh(Cl)     0.000000     0.000000     0.000000
Gh(O)      1.786944     1.711555     1.976520
Gh(H)      1.111820     1.133941     1.610336
Gh(H)      1.229781     2.396537     2.442747
O          1.278940     2.444591    -1.619882
H          0.965176     1.877241    -0.966811
H          1.460854     3.349589    -1.319799
Gh(O)     -0.467110     0.733530    -3.068056
Gh(H)     -0.325138    -0.146267    -3.313972
Gh(H)     -1.312864     0.680258    -2.644071
Gh(O)      2.465554    -1.889270     0.290668
Gh(H)      3.217113    -1.488307     0.658887
Gh(H)      1.814208    -1.180145     0.387811
Gh(O)     -0.519821    -0.088559     3.075289
Gh(H)     -0.722845     0.815865     3.291041
Gh(H)     -0.491445    -0.012457     2.085786
Gh(O)     -2.750066     0.488210    -1.600511
Gh(H)     -2.980126    -0.008406    -0.777965
Gh(H)     -3.594984     0.525279    -2.067696

units ang
no_reorient
no_com
symmetry c1
}

set {
basis        aug-cc-pVTZ
scf_type     df
}

energy("mp2")
--------------------------------------------------------------------------

    Molecular point group: c1

    Geometry (in Angstrom), charge = 0, multiplicity = 1:

       Center              X                  Y                   Z               Mass
    ------------   -----------------  -----------------  -----------------  -----------------
      Gh(CL)          0.000000000000     0.000000000000     0.000000000000    34.968852682000
      Gh(O)           1.786944000000     1.711555000000     1.976520000000    15.994914619570
      Gh(H)           1.111820000000     1.133941000000     1.610336000000     1.007825032230
      Gh(H)           1.229781000000     2.396537000000     2.442747000000     1.007825032230
         O            1.278940000000     2.444591000000    -1.619882000000    15.994914619570
         H            0.965176000000     1.877241000000    -0.966811000000     1.007825032230
         H            1.460854000000     3.349589000000    -1.319799000000     1.007825032230
      Gh(O)          -0.467110000000     0.733530000000    -3.068056000000    15.994914619570
      Gh(H)          -0.325138000000    -0.146267000000    -3.313972000000     1.007825032230
      Gh(H)          -1.312864000000     0.680258000000    -2.644071000000     1.007825032230
      Gh(O)           2.465554000000    -1.889270000000     0.290668000000    15.994914619570
      Gh(H)           3.217113000000    -1.488307000000     0.658887000000     1.007825032230
      Gh(H)           1.814208000000    -1.180145000000     0.387811000000     1.007825032230
      Gh(O)          -0.519821000000    -0.088559000000     3.075289000000    15.994914619570
      Gh(H)          -0.722845000000     0.815865000000     3.291041000000     1.007825032230
      Gh(H)          -0.491445000000    -0.012457000000     2.085786000000     1.007825032230
      Gh(O)          -2.750066000000     0.488210000000    -1.600511000000    15.994914619570
      Gh(H)          -2.980126000000    -0.008406000000    -0.777965000000     1.007825032230
      Gh(H)          -3.594984000000     0.525279000000    -2.067696000000     1.007825032230

  Charge       = 0
  Multiplicity = 1
  Basis Set: AUG-CC-PVTZ
    Blend: AUG-CC-PVTZ
  Basis Set: (AUG-CC-PVTZ AUX)
    Blend: AUG-CC-PVTZ-JKFIT

    Orbital Energies [Eh]
    ---------------------

    Doubly Occupied:

       1A    -20.560173     2A     -1.353143     3A     -0.743451
       4A     -0.567096     5A     -0.508328

  @DF-RHF Final Energy:   -76.05798853723120

   => Energetics <=

    Nuclear Repulsion Energy =              9.2939363229979666
    One-Electron Energy =                -123.2394647917165145
    Two-Electron Energy =                  37.8875399314873533
    Total Energy =                        -76.0579885372311963
 Dipole X            :        -24.0125644           23.9193029           -0.0932615
 Dipole Y            :        -46.6057399           46.8341370            0.2283971
 Dipole Z            :         29.4725242          -28.8101333            0.6623909
 Magnitude           :                                                    0.7068413
  Basis Set: (AUG-CC-PVTZ AUX)
    Blend: AUG-CC-PVTZ-RI
	 Reference Energy          =     -76.0579885372311963 [Eh]
	 Singles Energy            =      -0.0000000000000000 [Eh]
	 Same-Spin Energy          =      -0.0681223117486023 [Eh]
	 Opposite-Spin Energy      =      -0.2149624758419534 [Eh]
	 Correlation Energy        =      -0.2830847875905557 [Eh]
	 Total Energy              =     -76.3410733248217497 [Eh]

	 ================> DF-SCS-MP2 Energies <==================
	-----------------------------------------------------------
	 SCS Same-Spin Scale       =       0.3333333333333333 [-]
	 SCS Opposite-Spin Scale   =       1.2000000000000000 [-]
	 SCS Same-Spin Energy      =      -0.0227074372495341 [Eh]
	 SCS Opposite-Spin Energy  =      -0.2579549710103441 [Eh]
	 SCS Correlation Energy    =      -0.2806624082598782 [Eh]
	 SCS Total Energy          =     -76.3386509454910680 [Eh]
	-----------------------------------------------------------

*** Psi4 exiting successfully. Buy a developer a beer!
