                               Psi4 1.8.2 release

  ==> Input File <==

--------------------------------------------------------------------------
MEMORY 60 GB

molecule dimer {
-1 1
Cl         0.000000     0.000000     0.000000
O         -2.600905     1.445698    -1.428595
H         -1.790172     1.295780    -0.990803
H         -3.218459     1.075372    -0.808474
O          2.556836    -0.273321    -1.884433
H          2.745727     0.656644    -1.914035
H          1.812438    -0.439596    -1.281958
O          0.128714     1.450045    -3.075572
H         -0.229456     0.608282    -2.936136
H         -0.138427     1.712452    -3.979438
O         -2.771257    -1.686210    -0.586807
H         -3.517746    -1.038339    -0.414869
H         -1.928754    -1.210524    -0.518702
O          0.192091    -2.999964     0.775908
H         -0.347009    -3.250786     1.545106
H         -0.004976    -2.092468     0.545800

units ang
no_reorient
no_com
symmetry c1
}

set {
basis        aug-cc-pVTZ
scf_type     df
}

energy("mp2")
--------------------------------------------------------------------------

    Molecular point group: c1

    Geometry (in Angstrom), charge = -1, multiplicity = 1:

       Center              X                  Y                   Z               Mass
    ------------   -----------------  -----------------  -----------------  -----------------
         CL           0.000000000000     0.000000000000     0.000000000000    34.968852682000
         O           -2.600905000000     1.445698000000    -1.428595000000    15.994914619570
         H           -1.790172000000     1.295780000000    -0.990803000000     1.007825032230
         H           -3.218459000000     1.075372000000    -0.808474000000     1.007825032230
         O            2.556836000000    -0.273321000000    -1.884433000000    15.994914619570
         H            2.745727000000     0.656644000000    -1.914035000000     1.007825032230
         H            1.812438000000    -0.439596000000    -1.281958000000     1.007825032230
         O            0.128714000000     1.450045000000    -3.075572000000    15.994914619570
         H           -0.229456000000     0.608282000000    -2.936136000000     1.007825032230
         H           -0.138427000000     1.712452000000    -3.979438000000     1.007825032230
         O           -2.771257000000    -1.686210000000    -0.586807000000    15.994914619570
         H           -3.517746000000    -1.038339000000    -0.414869000000     1.007825032230
         H           -1.928754000000    -1.210524000000    -0.518702000000     1.007825032230
         O            0.192091000000    -2.999964000000     0.775908000000    15.994914619570
         H           -0.347009000000    -3.250786000000     1.545106000000     1.007825032230
         H           -0.004976000000    -2.092468000000     0.545800000000     1.007825032230

  Charge       = -1
  Multiplicity = 1
  Basis Set: AUG-CC-PVTZ
    Blend: AUG-CC-PVTZ
  Basis Set: (AUG-CC-PVTZ AUX)
    Blend: AUG-CC-PVTZ-JKFIT

    Orbital Energies [Eh]
    ---------------------

    Doubly Occupied:

       1A   -104.582317     2A    -20.428678     3A    -20.424622
       4A    -20.422801     5A    -20.399246     6A    -20.392089
       7A    -10.307805     8A     -7.773894     9A     -7.773894
      10A     -7.773825    11A     -1.224896    12A     -1.219409
      13A     -1.194137    14A     -1.183964    15A     -1.179186
      16A     -0.828236    17A     -0.589928    18A     -0.580890
      19A     -0.568397    20A     -0.559607    21A     -0.558379
      22A     -0.461958    23A     -0.448193    24A     -0.431544
      25A     -0.417477    26A     -0.411116    27A     -0.378950
      28A     -0.373784    29A     -0.361752    30A     -0.345718
      31A     -0.338761    32A     -0.239622    33A     -0.238623
      34A     -0.235402

  @DF-RHF Final Energy:  -839.91748009320895

   => Energetics <=

    Nuclear Repulsion Energy =            313.1873682185216694
    One-Electron Energy =               -1796.9114891732181150
    Two-Electron Energy =                 643.8066408614874945
    Total Energy =                       -839.9174800932089511
 Dipole X            :         49.4827736          -50.2156961           -0.7329225
 Dipole Y            :         37.6399423          -36.2698896            1.3700527
 Dipole Z            :        115.4411411         -114.0440287            1.3971124
 Magnitude           :                                                    2.0895317
  Basis Set: (AUG-CC-PVTZ AUX)
    Blend: AUG-CC-PVTZ-RI
	 Reference Energy          =    -839.9174800932089511 [Eh]
	 Singles Energy            =      -0.0000000000000000 [Eh]
	 Same-Spin Energy          =      -0.4165650670688601 [Eh]
	 Opposite-Spin Energy      =      -1.2725642015835175 [Eh]
	 Correlation Energy        =      -1.6891292686523776 [Eh]
	 Total Energy              =    -841.6066093618612740 [Eh]

	 ================> DF-SCS-MP2 Energies <==================
	-----------------------------------------------------------
	 SCS Same-Spin Scale       =       0.3333333333333333 [-]
	 SCS Opposite-Spin Scale   =       1.2000000000000000 [-]
	 SCS Same-Spin Energy      =      -0.1388550223562867 [Eh]
	 SCS Opposite-Spin Energy  =      -1.5270770419002209 [Eh]
	 SCS Correlation Energy    =      -1.6659320642565076 [Eh]
	 SCS Total Energy          =    -841.5834121574654318 [Eh]
	-----------------------------------------------------------

*** Psi4 exiting successfully. Buy a developer a beer!
