                               Psi4 1.8.2 release

  ==> Input File <==

--------------------------------------------------------------------------
MEMORY 60 GB

molecule dimer {
0 1
Gh(Cl)     0.000000     0.000000     0.000000
Gh(O)     -2.352563    -2.000689    -0.906334
Gh(H)     -1.879597    -2.743087    -1.222228
Gh(H)     -1.947468    -1.507597    -0.165024
Gh(O)     -2.041171     2.009674     1.692703
Gh(H)     -2.902501     1.850932     1.214944
Gh(H)     -1.359904     1.646238     1.074740
Gh(O)      2.186425    -0.135659    -2.521759
Gh(H)      2.037414    -0.257688    -1.583007
Gh(H)      2.794119     0.578731    -2.754986
O          0.632001     3.009939    -1.372366
H          0.410937     2.899813    -2.278973
H          0.580960     2.129556    -0.959031
Gh(O)      2.420754    -1.652381     1.758642
Gh(H)      1.510958    -1.626298     1.492702
Gh(H)      2.689538    -2.613340     1.613522
Gh(O)      1.643151     1.143126     2.627037
Gh(H)      2.423544     1.465652     2.192753
Gh(H)      1.056724     0.905893     1.868423

units ang
no_reorient
no_com
symmetry c1
}

set {
basis        aug-cc-pVTZ
scf_type     df
}

energy("mp2")
--------------------------------------------------------------------------

    Molecular point group: c1

    Geometry (in Angstrom), charge = 0, multiplicity = 1:

       Center              X                  Y                   Z               Mass
    ------------   -----------------  -----------------  -----------------  -----------------
      Gh(CL)          0.000000000000     0.000000000000     0.000000000000    34.968852682000
      Gh(O)          -2.352563000000    -2.000689000000    -0.906334000000    15.994914619570
      Gh(H)          -1.879597000000    -2.743087000000    -1.222228000000     1.007825032230
      Gh(H)          -1.947468000000    -1.507597000000    -0.165024000000     1.007825032230
      Gh(O)          -2.041171000000     2.009674000000     1.692703000000    15.994914619570
      Gh(H)          -2.902501000000     1.850932000000     1.214944000000     1.007825032230
      Gh(H)          -1.359904000000     1.646238000000     1.074740000000     1.007825032230
      Gh(O)           2.186425000000    -0.135659000000    -2.521759000000    15.994914619570
      Gh(H)           2.037414000000    -0.257688000000    -1.583007000000     1.007825032230
      Gh(H)           2.794119000000     0.578731000000    -2.754986000000     1.007825032230
         O            0.632001000000     3.009939000000    -1.372366000000    15.994914619570
         H            0.410937000000     2.899813000000    -2.278973000000     1.007825032230
         H            0.580960000000     2.129556000000    -0.959031000000     1.007825032230
      Gh(O)           2.420754000000    -1.652381000000     1.758642000000    15.994914619570
      Gh(H)           1.510958000000    -1.626298000000     1.492702000000     1.007825032230
      Gh(H)           2.689538000000    -2.613340000000     1.613522000000     1.007825032230
      Gh(O)           1.643151000000     1.143126000000     2.627037000000    15.994914619570
      Gh(H)           2.423544000000     1.465652000000     2.192753000000     1.007825032230
      Gh(H)           1.056724000000     0.905893000000     1.868423000000     1.007825032230

  Charge       = 0
  Multiplicity = 1
  Basis Set: AUG-CC-PVTZ
    Blend: AUG-CC-PVTZ
  Basis Set: (AUG-CC-PVTZ AUX)
    Blend: AUG-CC-PVTZ-JKFIT

    Orbital Energies [Eh]
    ---------------------

    Doubly Occupied:

       1A    -20.565911     2A     -1.352341     3A     -0.722751
       4A     -0.580159     5A     -0.509691

  @DF-RHF Final Energy:   -76.06011574728275

   => Energetics <=

    Nuclear Repulsion Energy =              9.1962467318644876
    One-Electron Energy =                -123.0510170682676403
    Two-Electron Energy =                  37.7946545891203982
    Total Energy =                        -76.0601157472827509
 Dipole X            :        -11.6117856           11.4288841           -0.1829015
 Dipole Y            :        -55.6695718           55.0078129           -0.6617589
 Dipole Z            :         26.5307012          -26.8661078           -0.3354066
 Magnitude           :                                                    0.7641174
  Basis Set: (AUG-CC-PVTZ AUX)
    Blend: AUG-CC-PVTZ-RI
	 Reference Energy          =     -76.0601157472827509 [Eh]
	 Singles Energy            =      -0.0000000000000000 [Eh]
	 Same-Spin Energy          =      -0.0683425479655466 [Eh]
	 Opposite-Spin Energy      =      -0.2157413410813641 [Eh]
	 Correlation Energy        =      -0.2840838890469106 [Eh]
	 Total Energy              =     -76.3441996363296624 [Eh]

	 ================> DF-SCS-MP2 Energies <==================
	-----------------------------------------------------------
	 SCS Same-Spin Scale       =       0.3333333333333333 [-]
	 SCS Opposite-Spin Scale   =       1.2000000000000000 [-]
	 SCS Same-Spin Energy      =      -0.0227808493218489 [Eh]
	 SCS Opposite-Spin Energy  =      -0.2588896092976369 [Eh]
	 SCS Correlation Energy    =      -0.2816704586194858 [Eh]
	 SCS Total Energy          =     -76.3417862059022383 [Eh]
	-----------------------------------------------------------

*** Psi4 exiting successfully. Buy a developer a beer!
