                               Psi4 1.9 release

  ==> Input File <==

--------------------------------------------------------------------------
MEMORY 60 GB

molecule dimer {
-1 1
Cl     0.000000     0.000000     0.000000
--
0 1
O      2.004466    -0.496177     2.546536
H      2.585244    -1.154785     2.189831
H      1.363421    -0.266412     1.830507
O      2.479580    -1.598125    -1.227379
H      1.827334    -1.093465    -0.781736
H      2.036467    -2.371329    -1.587810
O     -2.771537     0.837457     1.822875
H     -3.237440     0.820329     0.989508
H     -2.323566     0.003383     1.867055
O     -0.416174    -1.379225    -3.003309
H     -0.168991    -0.896023    -2.169454
H      0.155754    -2.140456    -3.062651

units ang
no_reorient
no_com
symmetry c1
}

set {
basis        aug-cc-pVTZ
scf_type     df
}

energy("mp2", bsse_type="cp")
--------------------------------------------------------------------------

                               Psi4 1.9 release
    Molecular point group: c1
  Charge       = 0
  Multiplicity = 1
  Basis Set: AUG-CC-PVTZ
    Blend: AUG-CC-PVTZ
  Basis Set: (AUG-CC-PVTZ AUX)
    Blend: AUG-CC-PVTZ-JKFIT
  @DF-RHF Final Energy:  -304.23199014601886
    Total Energy =                       -304.2319901460188589
 Dipole X            :        -24.0161548           23.8273734           -0.1887813
 Dipole Y            :         52.0589855          -53.2663112           -1.2073258
 Dipole Z            :         -1.4181304            0.7276088           -0.6905216
 Magnitude           :                                                    1.4036003
  Basis Set: (AUG-CC-PVTZ AUX)
    Blend: AUG-CC-PVTZ-RI
	 Reference Energy          =    -304.2319901460188589 [Eh]
	 Singles Energy            =      -0.0000000000000000 [Eh]
	 Same-Spin Energy          =      -0.2745963837539163 [Eh]
	 Opposite-Spin Energy      =      -0.8645366846316741 [Eh]
	 Correlation Energy        =      -1.1391330683855903 [Eh]
	 Total Energy              =    -305.3711232144044629 [Eh]
	 SCS Total Energy          =    -305.3609662954948476 [Eh]
                               Psi4 1.9 release
    Molecular point group: c1
  Multiplicity = 1
  Basis Set: AUG-CC-PVTZ
    Blend: AUG-CC-PVTZ
  Basis Set: (AUG-CC-PVTZ AUX)
    Blend: AUG-CC-PVTZ-JKFIT
  @DF-RHF Final Energy:  -459.57355187244485
    Total Energy =                       -459.5735518724447957
  Basis Set: (AUG-CC-PVTZ AUX)
	 Singles Energy            =      -0.0000000000000000 [Eh]
	 Same-Spin Energy          =      -0.0631895879808630 [Eh]
	 Opposite-Spin Energy      =      -0.1824817643049964 [Eh]
	 Correlation Energy        =      -0.2456713522858593 [Eh]
	 Total Energy              =    -459.8192232247307061 [Eh]
	 SCS Total Energy          =    -459.8135931856044749 [Eh]
                               Psi4 1.9 release
    Molecular point group: c1

    Geometry (in Bohr), charge = -1, multiplicity = 1:

       Center              X                  Y                   Z               Mass
    ------------   -----------------  -----------------  -----------------  -----------------
         CL           0.000000000000     0.000000000000     0.000000000000    34.968852682000
         O            3.787891767792    -0.937638639751     4.812255608619    15.994914619570
         H            4.885403127483    -2.182227383787     4.138180851037     1.007825032230
         H            2.576492283698    -0.503445716535     3.459156900733     1.007825032230
         O            4.685727106163    -3.020018564247    -2.319410162138    15.994914619570
         H            3.453160799737    -2.066349377774    -1.477266942411     1.007825032230
         H            3.848364893533    -4.481162363356    -3.000526039263     1.007825032230
         O           -5.237445876573     1.582564371848     3.444734510944    15.994914619570
         H           -6.117874947602     1.550197142771     1.869899118950     1.007825032230
         H           -4.390903374426     0.006392943482     3.528222611167     1.007825032230
         O           -0.786454880536    -2.606357515385    -5.675431480123    15.994914619570
         H           -0.319346707667    -1.693238072111    -4.099673901779     1.007825032230
         H            0.294332402945    -4.044875623593    -5.787571607860     1.007825032230

  Charge       = -1
  Multiplicity = 1
  Basis Set: AUG-CC-PVTZ
    Blend: AUG-CC-PVTZ
  Basis Set: (AUG-CC-PVTZ AUX)
    Blend: AUG-CC-PVTZ-JKFIT

    Orbital Energies [Eh]
    ---------------------

    Doubly Occupied:

       1A   -104.574076     2A    -20.428607     3A    -20.420580
       4A    -20.418188     5A    -20.405888     6A    -10.299066
       7A     -7.765162     8A     -7.765147     9A     -7.765100
      10A     -1.219700    11A     -1.213558    12A     -1.198817
      13A     -1.188940    14A     -0.815306    15A     -0.586059
      16A     -0.585267    17A     -0.568470    18A     -0.558653
      19A     -0.451746    20A     -0.449919    21A     -0.431578
      22A     -0.425895    23A     -0.375512    24A     -0.370080
      25A     -0.362005    26A     -0.351719    27A     -0.230029
      28A     -0.227987    29A     -0.223612

  @DF-RHF Final Energy:  -763.86257785390683

   => Energetics <=

    Nuclear Repulsion Energy =            215.8857682673515228
    One-Electron Energy =               -1496.1433595638168299
    Two-Electron Energy =                 516.3950134425584793
    Total Energy =                       -763.8625778539068278
 Dipole X            :        -24.4268401           23.8273734           -0.5994667
 Dipole Y            :         52.5957551          -53.2663112           -0.6705561
 Dipole Z            :         -1.2753760            0.7276088           -0.5477672
 Magnitude           :                                                    1.0531167
  Basis Set: (AUG-CC-PVTZ AUX)
    Blend: AUG-CC-PVTZ-RI
	 Reference Energy          =    -763.8625778539068278 [Eh]
	 Singles Energy            =      -0.0000000000000000 [Eh]
	 Same-Spin Energy          =      -0.3443923135260914 [Eh]
	 Opposite-Spin Energy      =      -1.0513149669656039 [Eh]
	 Correlation Energy        =      -1.3957072804916952 [Eh]
	 Total Energy              =    -765.2582851343985340 [Eh]

	 ================> DF-SCS-MP2 Energies <==================
	-----------------------------------------------------------
	 SCS Same-Spin Scale       =       0.3333333333333333 [-]
	 SCS Opposite-Spin Scale   =       1.2000000000000000 [-]
	 SCS Same-Spin Energy      =      -0.1147974378420305 [Eh]
	 SCS Opposite-Spin Energy  =      -1.2615779603587247 [Eh]
	 SCS Correlation Energy    =      -1.3763753982007552 [Eh]
	 SCS Total Energy          =    -765.2389532521075353 [Eh]
	-----------------------------------------------------------

*** Psi4 exiting successfully. Buy a developer a beer!
