                               Psi4 1.8.2 release

  ==> Input File <==

--------------------------------------------------------------------------
MEMORY 60 GB

molecule dimer {
-1 1
Cl         0.000000     0.000000     0.000000
O         -0.817706    -1.131136     2.882151
H         -0.479632    -0.733470     2.050849
H         -1.773167    -1.194569     2.786172
O         -2.015567     2.443093     0.216964
H         -1.560235     3.293927     0.320489
H         -1.315197     1.816524     0.339732
O         -2.013641    -2.278996    -0.054481
H         -2.837161    -1.968892    -0.423141
H         -1.488194    -1.516586     0.086967
O          1.634075     1.411723    -2.619944
H          0.729499     1.577369    -2.303553
H          1.533034     1.888078    -3.433836

units ang
no_reorient
no_com
symmetry c1
}

set {
basis        aug-cc-pVTZ
scf_type     df
}

energy("mp2")
--------------------------------------------------------------------------

    Molecular point group: c1

    Geometry (in Angstrom), charge = -1, multiplicity = 1:

       Center              X                  Y                   Z               Mass
    ------------   -----------------  -----------------  -----------------  -----------------
         CL           0.000000000000     0.000000000000     0.000000000000    34.968852682000
         O           -0.817706000000    -1.131136000000     2.882151000000    15.994914619570
         H           -0.479632000000    -0.733470000000     2.050849000000     1.007825032230
         H           -1.773167000000    -1.194569000000     2.786172000000     1.007825032230
         O           -2.015567000000     2.443093000000     0.216964000000    15.994914619570
         H           -1.560235000000     3.293927000000     0.320489000000     1.007825032230
         H           -1.315197000000     1.816524000000     0.339732000000     1.007825032230
         O           -2.013641000000    -2.278996000000    -0.054481000000    15.994914619570
         H           -2.837161000000    -1.968892000000    -0.423141000000     1.007825032230
         H           -1.488194000000    -1.516586000000     0.086967000000     1.007825032230
         O            1.634075000000     1.411723000000    -2.619944000000    15.994914619570
         H            0.729499000000     1.577369000000    -2.303553000000     1.007825032230
         H            1.533034000000     1.888078000000    -3.433836000000     1.007825032230

  Charge       = -1
  Multiplicity = 1
  Basis Set: AUG-CC-PVTZ
    Blend: AUG-CC-PVTZ
  Basis Set: (AUG-CC-PVTZ AUX)
    Blend: AUG-CC-PVTZ-JKFIT

    Orbital Energies [Eh]
    ---------------------

    Doubly Occupied:

       1A   -104.566432     2A    -20.441685     3A    -20.416414
       4A    -20.393840     5A    -20.393795     6A    -10.291893
       7A     -7.757989     8A     -7.757931     9A     -7.757919
      10A     -1.229271    11A     -1.205314    12A     -1.192879
      13A     -1.174527    14A     -0.811983    15A     -0.567287
      16A     -0.566163    17A     -0.562581    18A     -0.544782
      19A     -0.472569    20A     -0.443963    21A     -0.423356
      22A     -0.414521    23A     -0.383087    24A     -0.363447
      25A     -0.348010    26A     -0.336804    27A     -0.224235
      28A     -0.221237    29A     -0.219704

  @DF-RHF Final Energy:  -763.85272372217855

   => Energetics <=

    Nuclear Repulsion Energy =            219.9920120253447067
    One-Electron Energy =               -1504.7222303889111572
    Two-Electron Energy =                 520.8774946413880116
    Total Energy =                       -763.8527237221785526
 Dipole X            :         62.3055341          -62.1602071            0.1453271
 Dipole Y            :        -11.2684377           12.6986818            1.4302441
 Dipole Z            :         -6.5752196            5.3312935           -1.2439261
 Magnitude           :                                                    1.9010708
  Basis Set: (AUG-CC-PVTZ AUX)
    Blend: AUG-CC-PVTZ-RI
	 Reference Energy          =    -763.8527237221785526 [Eh]
	 Singles Energy            =      -0.0000000000000000 [Eh]
	 Same-Spin Energy          =      -0.3460922077095976 [Eh]
	 Opposite-Spin Energy      =      -1.0541820738510628 [Eh]
	 Correlation Energy        =      -1.4002742815606604 [Eh]
	 Total Energy              =    -765.2529980037392079 [Eh]

	 ================> DF-SCS-MP2 Energies <==================
	-----------------------------------------------------------
	 SCS Same-Spin Scale       =       0.3333333333333333 [-]
	 SCS Opposite-Spin Scale   =       1.2000000000000000 [-]
	 SCS Same-Spin Energy      =      -0.1153640692365325 [Eh]
	 SCS Opposite-Spin Energy  =      -1.2650184886212752 [Eh]
	 SCS Correlation Energy    =      -1.3803825578578077 [Eh]
	 SCS Total Energy          =    -765.2331062800363952 [Eh]
	-----------------------------------------------------------

*** Psi4 exiting successfully. Buy a developer a beer!
