                               Psi4 1.8.2 release

  ==> Input File <==

--------------------------------------------------------------------------
MEMORY 60 GB

molecule dimer {
-1 1
Cl         0.000000     0.000000     0.000000
Gh(O)     -0.817706    -1.131136     2.882151
Gh(H)     -0.479632    -0.733470     2.050849
Gh(H)     -1.773167    -1.194569     2.786172
Gh(O)     -2.015567     2.443093     0.216964
Gh(H)     -1.560235     3.293927     0.320489
Gh(H)     -1.315197     1.816524     0.339732
Gh(O)     -2.013641    -2.278996    -0.054481
Gh(H)     -2.837161    -1.968892    -0.423141
Gh(H)     -1.488194    -1.516586     0.086967
Gh(O)      1.634075     1.411723    -2.619944
Gh(H)      0.729499     1.577369    -2.303553
Gh(H)      1.533034     1.888078    -3.433836

units ang
no_reorient
no_com
symmetry c1
}

set {
basis        aug-cc-pVTZ
scf_type     df
}

energy("mp2")
--------------------------------------------------------------------------

    Molecular point group: c1

    Geometry (in Angstrom), charge = -1, multiplicity = 1:

       Center              X                  Y                   Z               Mass
    ------------   -----------------  -----------------  -----------------  -----------------
         CL           0.000000000000     0.000000000000     0.000000000000    34.968852682000
      Gh(O)          -0.817706000000    -1.131136000000     2.882151000000    15.994914619570
      Gh(H)          -0.479632000000    -0.733470000000     2.050849000000     1.007825032230
      Gh(H)          -1.773167000000    -1.194569000000     2.786172000000     1.007825032230
      Gh(O)          -2.015567000000     2.443093000000     0.216964000000    15.994914619570
      Gh(H)          -1.560235000000     3.293927000000     0.320489000000     1.007825032230
      Gh(H)          -1.315197000000     1.816524000000     0.339732000000     1.007825032230
      Gh(O)          -2.013641000000    -2.278996000000    -0.054481000000    15.994914619570
      Gh(H)          -2.837161000000    -1.968892000000    -0.423141000000     1.007825032230
      Gh(H)          -1.488194000000    -1.516586000000     0.086967000000     1.007825032230
      Gh(O)           1.634075000000     1.411723000000    -2.619944000000    15.994914619570
      Gh(H)           0.729499000000     1.577369000000    -2.303553000000     1.007825032230
      Gh(H)           1.533034000000     1.888078000000    -3.433836000000     1.007825032230

  Charge       = -1
  Multiplicity = 1
  Basis Set: AUG-CC-PVTZ
    Blend: AUG-CC-PVTZ
  Basis Set: (AUG-CC-PVTZ AUX)
    Blend: AUG-CC-PVTZ-JKFIT

    Orbital Energies [Eh]
    ---------------------

    Doubly Occupied:

       1A   -104.507092     2A    -10.230020     3A     -7.696087
       4A     -7.696079     5A     -7.696053     6A     -0.733475
       7A     -0.150318     8A     -0.150312     9A     -0.150306

  @DF-RHF Final Energy:  -459.57356140944285

   => Energetics <=

    Nuclear Repulsion Energy =              0.0000000000000000
    One-Electron Energy =                -641.1276529973248444
    Two-Electron Energy =                 181.5540915878819703
    Total Energy =                       -459.5735614094428456
 Dipole X            :         -0.0004007            0.0000000           -0.0004007
 Dipole Y            :         -0.0001228            0.0000000           -0.0001228
 Dipole Z            :          0.0002060            0.0000000            0.0002060
 Magnitude           :                                                    0.0004670
  Basis Set: (AUG-CC-PVTZ AUX)
    Blend: AUG-CC-PVTZ-RI
	 Reference Energy          =    -459.5735614094428456 [Eh]
	 Singles Energy            =      -0.0000000000000000 [Eh]
	 Same-Spin Energy          =      -0.0633669563646812 [Eh]
	 Opposite-Spin Energy      =      -0.1831625889400393 [Eh]
	 Correlation Energy        =      -0.2465295453047205 [Eh]
	 Total Energy              =    -459.8200909547475703 [Eh]

	 ================> DF-SCS-MP2 Energies <==================
	-----------------------------------------------------------
	 SCS Same-Spin Scale       =       0.3333333333333333 [-]
	 SCS Opposite-Spin Scale   =       1.2000000000000000 [-]
	 SCS Same-Spin Energy      =      -0.0211223187882271 [Eh]
	 SCS Opposite-Spin Energy  =      -0.2197951067280471 [Eh]
	 SCS Correlation Energy    =      -0.2409174255162742 [Eh]
	 SCS Total Energy          =    -459.8144788349591181 [Eh]
	-----------------------------------------------------------

*** Psi4 exiting successfully. Buy a developer a beer!
