                               Psi4 1.8.2 release

  ==> Input File <==

--------------------------------------------------------------------------
MEMORY 60 GB

molecule dimer {
0 1
Gh(Cl)     0.000000     0.000000     0.000000
O         -1.652811    -1.435957     2.395903
H         -1.528767    -2.339541     2.643559
H         -1.043488    -1.261638     1.661966
Gh(O)      2.190527    -2.113525     1.676719
Gh(H)      3.042459    -1.604979     1.864963
Gh(H)      2.252391    -2.309383     0.719254
Gh(O)     -1.852063     2.109778     1.864448
Gh(H)     -1.394061     2.041390     2.691589
Gh(H)     -1.471182     1.475343     1.236059
Gh(O)     -2.723100     0.051082    -1.912710
Gh(H)     -3.515131     0.614816    -1.963275
Gh(H)     -2.101677     0.471886    -1.368991
Gh(O)     -0.158646     3.092762    -0.275158
Gh(H)     -0.735780     3.182659    -1.002850
Gh(H)     -0.140681     2.112324    -0.117622

units ang
no_reorient
no_com
symmetry c1
}

set {
basis        aug-cc-pVTZ
scf_type     df
}

energy("mp2")
--------------------------------------------------------------------------

    Molecular point group: c1

    Geometry (in Angstrom), charge = 0, multiplicity = 1:

       Center              X                  Y                   Z               Mass
    ------------   -----------------  -----------------  -----------------  -----------------
      Gh(CL)          0.000000000000     0.000000000000     0.000000000000    34.968852682000
         O           -1.652811000000    -1.435957000000     2.395903000000    15.994914619570
         H           -1.528767000000    -2.339541000000     2.643559000000     1.007825032230
         H           -1.043488000000    -1.261638000000     1.661966000000     1.007825032230
      Gh(O)           2.190527000000    -2.113525000000     1.676719000000    15.994914619570
      Gh(H)           3.042459000000    -1.604979000000     1.864963000000     1.007825032230
      Gh(H)           2.252391000000    -2.309383000000     0.719254000000     1.007825032230
      Gh(O)          -1.852063000000     2.109778000000     1.864448000000    15.994914619570
      Gh(H)          -1.394061000000     2.041390000000     2.691589000000     1.007825032230
      Gh(H)          -1.471182000000     1.475343000000     1.236059000000     1.007825032230
      Gh(O)          -2.723100000000     0.051082000000    -1.912710000000    15.994914619570
      Gh(H)          -3.515131000000     0.614816000000    -1.963275000000     1.007825032230
      Gh(H)          -2.101677000000     0.471886000000    -1.368991000000     1.007825032230
      Gh(O)          -0.158646000000     3.092762000000    -0.275158000000    15.994914619570
      Gh(H)          -0.735780000000     3.182659000000    -1.002850000000     1.007825032230
      Gh(H)          -0.140681000000     2.112324000000    -0.117622000000     1.007825032230

  Charge       = 0
  Multiplicity = 1
  Basis Set: AUG-CC-PVTZ
    Blend: AUG-CC-PVTZ
  Basis Set: (AUG-CC-PVTZ AUX)
    Blend: AUG-CC-PVTZ-JKFIT

    Orbital Energies [Eh]
    ---------------------

    Doubly Occupied:

       1A    -20.566174     2A     -1.352062     3A     -0.722006
       4A     -0.580520     5A     -0.509693

  @DF-RHF Final Energy:   -76.06035478974425

   => Energetics <=

    Nuclear Repulsion Energy =              9.1894888314607481
    One-Electron Energy =                -123.0387728536388039
    Two-Electron Energy =                  37.7889292324338157
    Total Energy =                        -76.0603547897442382
 Dipole X            :         30.3379473          -29.8477385            0.4902089
 Dipole Y            :         28.0223571          -28.5137657           -0.4914086
 Dipole Z            :        -44.6804856           44.3570670           -0.3234186
 Magnitude           :                                                    0.7657589
  Basis Set: (AUG-CC-PVTZ AUX)
    Blend: AUG-CC-PVTZ-RI
	 Reference Energy          =     -76.0603547897442525 [Eh]
	 Singles Energy            =      -0.0000000000000000 [Eh]
	 Same-Spin Energy          =      -0.0683503545999997 [Eh]
	 Opposite-Spin Energy      =      -0.2155682893657086 [Eh]
	 Correlation Energy        =      -0.2839186439657083 [Eh]
	 Total Energy              =     -76.3442734337099580 [Eh]

	 ================> DF-SCS-MP2 Energies <==================
	-----------------------------------------------------------
	 SCS Same-Spin Scale       =       0.3333333333333333 [-]
	 SCS Opposite-Spin Scale   =       1.2000000000000000 [-]
	 SCS Same-Spin Energy      =      -0.0227834515333332 [Eh]
	 SCS Opposite-Spin Energy  =      -0.2586819472388503 [Eh]
	 SCS Correlation Energy    =      -0.2814653987721835 [Eh]
	 SCS Total Energy          =     -76.3418201885164365 [Eh]
	-----------------------------------------------------------

*** Psi4 exiting successfully. Buy a developer a beer!
