                               Psi4 1.8.2 release

  ==> Input File <==

--------------------------------------------------------------------------
MEMORY 60 GB

molecule dimer {
0 1
Gh(Cl)     0.000000     0.000000     0.000000
Gh(O)      2.463279    -1.637242     1.524697
Gh(H)      2.153801    -1.174206     0.704797
Gh(H)      3.424703    -1.765351     1.439217
Gh(O)     -3.116776     0.013193     0.922660
Gh(H)     -3.430576    -0.157029     0.005481
Gh(H)     -2.173003    -0.131358     0.884899
O         -0.255395    -0.965558     3.259253
H          0.115940    -0.895008     2.380767
H         -0.515949    -0.061156     3.400927
Gh(O)      0.593896     2.305977    -1.825798
Gh(H)      1.456929     2.664655    -1.817872
Gh(H)      0.413740     1.886953    -0.968415
Gh(O)     -0.301908    -2.719564    -1.155955
Gh(H)     -0.223765    -1.800429    -0.769036
Gh(H)      0.140094    -2.598246    -2.035538
Gh(O)     -2.739786     0.110883    -1.903292
Gh(H)     -3.291889     0.616513    -2.564165
Gh(H)     -1.849346     0.283247    -1.934967

units ang
no_reorient
no_com
symmetry c1
}

set {
basis        aug-cc-pVTZ
scf_type     df
}

energy("mp2")
--------------------------------------------------------------------------

    Molecular point group: c1

    Geometry (in Angstrom), charge = 0, multiplicity = 1:

       Center              X                  Y                   Z               Mass
    ------------   -----------------  -----------------  -----------------  -----------------
      Gh(CL)          0.000000000000     0.000000000000     0.000000000000    34.968852682000
      Gh(O)           2.463279000000    -1.637242000000     1.524697000000    15.994914619570
      Gh(H)           2.153801000000    -1.174206000000     0.704797000000     1.007825032230
      Gh(H)           3.424703000000    -1.765351000000     1.439217000000     1.007825032230
      Gh(O)          -3.116776000000     0.013193000000     0.922660000000    15.994914619570
      Gh(H)          -3.430576000000    -0.157029000000     0.005481000000     1.007825032230
      Gh(H)          -2.173003000000    -0.131358000000     0.884899000000     1.007825032230
         O           -0.255395000000    -0.965558000000     3.259253000000    15.994914619570
         H            0.115940000000    -0.895008000000     2.380767000000     1.007825032230
         H           -0.515949000000    -0.061156000000     3.400927000000     1.007825032230
      Gh(O)           0.593896000000     2.305977000000    -1.825798000000    15.994914619570
      Gh(H)           1.456929000000     2.664655000000    -1.817872000000     1.007825032230
      Gh(H)           0.413740000000     1.886953000000    -0.968415000000     1.007825032230
      Gh(O)          -0.301908000000    -2.719564000000    -1.155955000000    15.994914619570
      Gh(H)          -0.223765000000    -1.800429000000    -0.769036000000     1.007825032230
      Gh(H)           0.140094000000    -2.598246000000    -2.035538000000     1.007825032230
      Gh(O)          -2.739786000000     0.110883000000    -1.903292000000    15.994914619570
      Gh(H)          -3.291889000000     0.616513000000    -2.564165000000     1.007825032230
      Gh(H)          -1.849346000000     0.283247000000    -1.934967000000     1.007825032230

  Charge       = 0
  Multiplicity = 1
  Basis Set: AUG-CC-PVTZ
    Blend: AUG-CC-PVTZ
  Basis Set: (AUG-CC-PVTZ AUX)
    Blend: AUG-CC-PVTZ-JKFIT

    Orbital Energies [Eh]
    ---------------------

    Doubly Occupied:

       1A    -20.568440     2A     -1.358582     3A     -0.710319
       4A     -0.594484     5A     -0.511909

  @DF-RHF Final Energy:   -76.05997066976133

   => Energetics <=

    Nuclear Repulsion Energy =              9.2366282472315024
    One-Electron Energy =                -123.1057265848922668
    Two-Electron Energy =                  37.8091276678994248
    Total Energy =                        -76.0599706697613271
 Dipole X            :          4.6895251           -4.6169203            0.0726048
 Dipole Y            :         17.0460483          -16.4040095            0.6420388
 Dipole Z            :        -60.6829781           60.1985825           -0.4843955
 Magnitude           :                                                    0.8075421
  Basis Set: (AUG-CC-PVTZ AUX)
    Blend: AUG-CC-PVTZ-RI
	 Reference Energy          =     -76.0599706697613271 [Eh]
	 Singles Energy            =      -0.0000000000000000 [Eh]
	 Same-Spin Energy          =      -0.0684530436211717 [Eh]
	 Opposite-Spin Energy      =      -0.2159387251415106 [Eh]
	 Correlation Energy        =      -0.2843917687626824 [Eh]
	 Total Energy              =     -76.3443624385240156 [Eh]

	 ================> DF-SCS-MP2 Energies <==================
	-----------------------------------------------------------
	 SCS Same-Spin Scale       =       0.3333333333333333 [-]
	 SCS Opposite-Spin Scale   =       1.2000000000000000 [-]
	 SCS Same-Spin Energy      =      -0.0228176812070572 [Eh]
	 SCS Opposite-Spin Energy  =      -0.2591264701698128 [Eh]
	 SCS Correlation Energy    =      -0.2819441513768700 [Eh]
	 SCS Total Energy          =     -76.3419148211382037 [Eh]
	-----------------------------------------------------------

*** Psi4 exiting successfully. Buy a developer a beer!
