                               Psi4 1.8.2 release

  ==> Input File <==

--------------------------------------------------------------------------
MEMORY 60 GB

molecule dimer {
0 1
Gh(Cl)     0.000000     0.000000     0.000000
Gh(O)      0.823380    -1.352973    -3.021871
Gh(H)      1.752854    -1.586619    -2.681171
Gh(H)      0.487876    -0.873730    -2.261775
Gh(O)      2.523281     0.075105     2.141624
Gh(H)      2.081558    -0.483417     2.754013
Gh(H)      1.877416     0.285763     1.482632
Gh(O)      2.650784     1.254153    -1.136163
Gh(H)      2.401662     1.605478    -1.971241
Gh(H)      1.924731     0.699704    -0.891412
Gh(O)     -0.306264     2.928050     0.541310
Gh(H)      0.380642     3.308514     1.104799
Gh(H)      0.073139     2.191299     0.141775
O         -1.011167     1.396698    -2.618018
H         -0.727764     2.280068    -2.348939
H         -0.878256     0.893634    -1.790117

units ang
no_reorient
no_com
symmetry c1
}

set {
basis        aug-cc-pVTZ
scf_type     df
}

energy("mp2")
--------------------------------------------------------------------------

    Molecular point group: c1

    Geometry (in Angstrom), charge = 0, multiplicity = 1:

       Center              X                  Y                   Z               Mass
    ------------   -----------------  -----------------  -----------------  -----------------
      Gh(CL)          0.000000000000     0.000000000000     0.000000000000    34.968852682000
      Gh(O)           0.823380000000    -1.352973000000    -3.021871000000    15.994914619570
      Gh(H)           1.752854000000    -1.586619000000    -2.681171000000     1.007825032230
      Gh(H)           0.487876000000    -0.873730000000    -2.261775000000     1.007825032230
      Gh(O)           2.523281000000     0.075105000000     2.141624000000    15.994914619570
      Gh(H)           2.081558000000    -0.483417000000     2.754013000000     1.007825032230
      Gh(H)           1.877416000000     0.285763000000     1.482632000000     1.007825032230
      Gh(O)           2.650784000000     1.254153000000    -1.136163000000    15.994914619570
      Gh(H)           2.401662000000     1.605478000000    -1.971241000000     1.007825032230
      Gh(H)           1.924731000000     0.699704000000    -0.891412000000     1.007825032230
      Gh(O)          -0.306264000000     2.928050000000     0.541310000000    15.994914619570
      Gh(H)           0.380642000000     3.308514000000     1.104799000000     1.007825032230
      Gh(H)           0.073139000000     2.191299000000     0.141775000000     1.007825032230
         O           -1.011167000000     1.396698000000    -2.618018000000    15.994914619570
         H           -0.727764000000     2.280068000000    -2.348939000000     1.007825032230
         H           -0.878256000000     0.893634000000    -1.790117000000     1.007825032230

  Charge       = 0
  Multiplicity = 1
  Basis Set: AUG-CC-PVTZ
    Blend: AUG-CC-PVTZ
  Basis Set: (AUG-CC-PVTZ AUX)
    Blend: AUG-CC-PVTZ-JKFIT

    Orbital Energies [Eh]
    ---------------------

    Doubly Occupied:

       1A    -20.571056     2A     -1.348413     3A     -0.703451
       4A     -0.588437     5A     -0.510113

  @DF-RHF Final Energy:   -76.05887876300817

   => Energetics <=

    Nuclear Repulsion Energy =              9.0642488448802538
    One-Electron Energy =                -122.8033097094152595
    Two-Electron Energy =                  37.6801821015268388
    Total Energy =                        -76.0588787630081669
 Dipole X            :         18.5933930          -18.3215675            0.2718255
 Dipole Y            :        -26.8621903           27.1124412            0.2502509
 Dipole Z            :         48.1160926          -47.4003784            0.7157142
 Magnitude           :                                                    0.8054573
  Basis Set: (AUG-CC-PVTZ AUX)
    Blend: AUG-CC-PVTZ-RI
	 Reference Energy          =     -76.0588787630081669 [Eh]
	 Singles Energy            =      -0.0000000000000000 [Eh]
	 Same-Spin Energy          =      -0.0687477043856290 [Eh]
	 Opposite-Spin Energy      =      -0.2170126587985082 [Eh]
	 Correlation Energy        =      -0.2857603631841372 [Eh]
	 Total Energy              =     -76.3446391261923054 [Eh]

	 ================> DF-SCS-MP2 Energies <==================
	-----------------------------------------------------------
	 SCS Same-Spin Scale       =       0.3333333333333333 [-]
	 SCS Opposite-Spin Scale   =       1.2000000000000000 [-]
	 SCS Same-Spin Energy      =      -0.0229159014618763 [Eh]
	 SCS Opposite-Spin Energy  =      -0.2604151905582098 [Eh]
	 SCS Correlation Energy    =      -0.2833310920200862 [Eh]
	 SCS Total Energy          =     -76.3422098550282584 [Eh]
	-----------------------------------------------------------

*** Psi4 exiting successfully. Buy a developer a beer!
