                               Psi4 1.8.2 release

  ==> Input File <==

--------------------------------------------------------------------------
MEMORY 60 GB

molecule dimer {
0 1
Gh(Cl)     0.000000     0.000000     0.000000
O          2.710010     1.677585    -1.071771
H          3.152698     1.550298    -0.212812
H          1.765317     1.467364    -1.015440
Gh(O)     -3.102038    -0.017194    -1.525341
Gh(H)     -3.358242     0.887782    -1.519567
Gh(H)     -2.125200    -0.019232    -1.246653
Gh(O)     -1.292965     2.960221    -0.132286
Gh(H)     -0.950528     3.448108    -0.917646
Gh(H)     -0.726725     2.174558    -0.058260

units ang
no_reorient
no_com
symmetry c1
}

set {
basis        aug-cc-pVTZ
scf_type     df
}

energy("mp2")
--------------------------------------------------------------------------

    Molecular point group: c1

    Geometry (in Angstrom), charge = 0, multiplicity = 1:

       Center              X                  Y                   Z               Mass
    ------------   -----------------  -----------------  -----------------  -----------------
      Gh(CL)          0.000000000000     0.000000000000     0.000000000000    34.968852682000
         O            2.710010000000     1.677585000000    -1.071771000000    15.994914619570
         H            3.152698000000     1.550298000000    -0.212812000000     1.007825032230
         H            1.765317000000     1.467364000000    -1.015440000000     1.007825032230
      Gh(O)          -3.102038000000    -0.017194000000    -1.525341000000    15.994914619570
      Gh(H)          -3.358242000000     0.887782000000    -1.519567000000     1.007825032230
      Gh(H)          -2.125200000000    -0.019232000000    -1.246653000000     1.007825032230
      Gh(O)          -1.292965000000     2.960221000000    -0.132286000000    15.994914619570
      Gh(H)          -0.950528000000     3.448108000000    -0.917646000000     1.007825032230
      Gh(H)          -0.726725000000     2.174558000000    -0.058260000000     1.007825032230

  Charge       = 0
  Multiplicity = 1
  Basis Set: AUG-CC-PVTZ
    Blend: AUG-CC-PVTZ
  Basis Set: (AUG-CC-PVTZ AUX)
    Blend: AUG-CC-PVTZ-JKFIT

    Orbital Energies [Eh]
    ---------------------

    Doubly Occupied:

       1A    -20.566547     2A     -1.341438     3A     -0.721916
       4A     -0.569036     5A     -0.507024

  @DF-RHF Final Energy:   -76.05833392518925

   => Energetics <=

    Nuclear Repulsion Energy =              9.0400173039999299
    One-Electron Energy =                -122.7847750623443517
    Two-Electron Energy =                  37.6864238331551675
    Total Energy =                        -76.0583339251892596
 Dipole X            :        -50.6019802           50.2631150           -0.3388652
 Dipole Y            :        -31.2913042           31.0639643           -0.2273398
 Dipole Z            :         19.1396359          -18.5238892            0.6157468
 Magnitude           :                                                    0.7386861
  Basis Set: (AUG-CC-PVTZ AUX)
    Blend: AUG-CC-PVTZ-RI
	 Reference Energy          =     -76.0583339251892454 [Eh]
	 Singles Energy            =      -0.0000000000000000 [Eh]
	 Same-Spin Energy          =      -0.0685479645376912 [Eh]
	 Opposite-Spin Energy      =      -0.2160864836144941 [Eh]
	 Correlation Energy        =      -0.2846344481521853 [Eh]
	 Total Energy              =     -76.3429683733414350 [Eh]

	 ================> DF-SCS-MP2 Energies <==================
	-----------------------------------------------------------
	 SCS Same-Spin Scale       =       0.3333333333333333 [-]
	 SCS Opposite-Spin Scale   =       1.2000000000000000 [-]
	 SCS Same-Spin Energy      =      -0.0228493215125637 [Eh]
	 SCS Opposite-Spin Energy  =      -0.2593037803373929 [Eh]
	 SCS Correlation Energy    =      -0.2821531018499566 [Eh]
	 SCS Total Energy          =     -76.3404870270392024 [Eh]
	-----------------------------------------------------------

*** Psi4 exiting successfully. Buy a developer a beer!
