                               Psi4 1.8.2 release

  ==> Input File <==

--------------------------------------------------------------------------
MEMORY 60 GB

molecule dimer {
0 1
Gh(Cl)     0.000000     0.000000     0.000000
Gh(O)      0.309276     2.230580     2.384255
Gh(H)      0.172358     1.780632     1.568707
Gh(H)      0.070820     1.580932     3.070981
O         -3.106756    -1.201459     0.184859
H         -3.615730    -1.153433    -0.609588
H         -2.337299    -0.547263     0.106862
Gh(O)      2.375058     0.829933    -1.953883
Gh(H)      2.611264     1.792549    -2.051113
Gh(H)      1.790705     0.628269    -1.215983
Gh(O)     -0.849852     2.660511    -1.102632
Gh(H)     -0.932491     2.833868    -2.029998
Gh(H)     -0.711092     1.689129    -1.111696

units ang
no_reorient
no_com
symmetry c1
}

set {
basis        aug-cc-pVTZ
scf_type     df
}

energy("mp2")
--------------------------------------------------------------------------

    Molecular point group: c1

    Geometry (in Angstrom), charge = 0, multiplicity = 1:

       Center              X                  Y                   Z               Mass
    ------------   -----------------  -----------------  -----------------  -----------------
      Gh(CL)          0.000000000000     0.000000000000     0.000000000000    34.968852682000
      Gh(O)           0.309276000000     2.230580000000     2.384255000000    15.994914619570
      Gh(H)           0.172358000000     1.780632000000     1.568707000000     1.007825032230
      Gh(H)           0.070820000000     1.580932000000     3.070981000000     1.007825032230
         O           -3.106756000000    -1.201459000000     0.184859000000    15.994914619570
         H           -3.615730000000    -1.153433000000    -0.609588000000     1.007825032230
         H           -2.337299000000    -0.547263000000     0.106862000000     1.007825032230
      Gh(O)           2.375058000000     0.829933000000    -1.953883000000    15.994914619570
      Gh(H)           2.611264000000     1.792549000000    -2.051113000000     1.007825032230
      Gh(H)           1.790705000000     0.628269000000    -1.215983000000     1.007825032230
      Gh(O)          -0.849852000000     2.660511000000    -1.102632000000    15.994914619570
      Gh(H)          -0.932491000000     2.833868000000    -2.029998000000     1.007825032230
      Gh(H)          -0.711092000000     1.689129000000    -1.111696000000     1.007825032230

  Charge       = 0
  Multiplicity = 1
  Basis Set: AUG-CC-PVTZ
    Blend: AUG-CC-PVTZ
  Basis Set: (AUG-CC-PVTZ AUX)
    Blend: AUG-CC-PVTZ-JKFIT

    Orbital Energies [Eh]
    ---------------------

    Doubly Occupied:

       1A    -20.568971     2A     -1.341280     3A     -0.713091
       4A     -0.573370     5A     -0.507571

  @DF-RHF Final Energy:   -76.05607431019884

   => Energetics <=

    Nuclear Repulsion Energy =              8.9939689924956561
    One-Electron Energy =                -122.6915190131607574
    Two-Electron Energy =                  37.6414757104662598
    Total Energy =                        -76.0560743101988521
 Dipole X            :         58.3815185          -58.2169383            0.1645803
 Dipole Y            :         21.8402017          -21.3772774            0.4629244
 Dipole Z            :         -2.4288536            1.8446486           -0.5842050
 Magnitude           :                                                    0.7633355
  Basis Set: (AUG-CC-PVTZ AUX)
    Blend: AUG-CC-PVTZ-RI
	 Reference Energy          =     -76.0560743101988379 [Eh]
	 Singles Energy            =      -0.0000000000000000 [Eh]
	 Same-Spin Energy          =      -0.0686774940947820 [Eh]
	 Opposite-Spin Energy      =      -0.2165605177297369 [Eh]
	 Correlation Energy        =      -0.2852380118245189 [Eh]
	 Total Energy              =     -76.3413123220233558 [Eh]

	 ================> DF-SCS-MP2 Energies <==================
	-----------------------------------------------------------
	 SCS Same-Spin Scale       =       0.3333333333333333 [-]
	 SCS Opposite-Spin Scale   =       1.2000000000000000 [-]
	 SCS Same-Spin Energy      =      -0.0228924980315940 [Eh]
	 SCS Opposite-Spin Energy  =      -0.2598726212756842 [Eh]
	 SCS Correlation Energy    =      -0.2827651193072782 [Eh]
	 SCS Total Energy          =     -76.3388394295061232 [Eh]
	-----------------------------------------------------------

*** Psi4 exiting successfully. Buy a developer a beer!
