                               Psi4 1.8.2 release

  ==> Input File <==

--------------------------------------------------------------------------
MEMORY 60 GB

molecule dimer {
-1 1
Cl         0.000000     0.000000     0.000000
O          3.112411    -0.510579     1.136854
H          2.370520    -0.257961     1.690682
H          3.753338    -1.047204     1.647019
O         -2.960096    -1.202549     0.650023
H         -2.871814    -2.140675     0.467832
H         -2.150687    -0.805819     0.422640
O         -2.286463     2.389191     0.707858
H         -1.879680     1.516328     0.601139
H         -3.105064     2.383095     0.187160
O          0.222845     1.410868     2.777416
H          0.764077     2.178359     2.611442
H          0.077727     1.005070     1.910475

units ang
no_reorient
no_com
symmetry c1
}

set {
basis        aug-cc-pVTZ
scf_type     df
}

energy("mp2")
--------------------------------------------------------------------------

    Molecular point group: c1

    Geometry (in Angstrom), charge = -1, multiplicity = 1:

       Center              X                  Y                   Z               Mass
    ------------   -----------------  -----------------  -----------------  -----------------
         CL           0.000000000000     0.000000000000     0.000000000000    34.968852682000
         O            3.112411000000    -0.510579000000     1.136854000000    15.994914619570
         H            2.370520000000    -0.257961000000     1.690682000000     1.007825032230
         H            3.753338000000    -1.047204000000     1.647019000000     1.007825032230
         O           -2.960096000000    -1.202549000000     0.650023000000    15.994914619570
         H           -2.871814000000    -2.140675000000     0.467832000000     1.007825032230
         H           -2.150687000000    -0.805819000000     0.422640000000     1.007825032230
         O           -2.286463000000     2.389191000000     0.707858000000    15.994914619570
         H           -1.879680000000     1.516328000000     0.601139000000     1.007825032230
         H           -3.105064000000     2.383095000000     0.187160000000     1.007825032230
         O            0.222845000000     1.410868000000     2.777416000000    15.994914619570
         H            0.764077000000     2.178359000000     2.611442000000     1.007825032230
         H            0.077727000000     1.005070000000     1.910475000000     1.007825032230

  Charge       = -1
  Multiplicity = 1
  Basis Set: AUG-CC-PVTZ
    Blend: AUG-CC-PVTZ
  Basis Set: (AUG-CC-PVTZ AUX)
    Blend: AUG-CC-PVTZ-JKFIT

    Orbital Energies [Eh]
    ---------------------

    Doubly Occupied:

       1A   -104.560731     2A    -20.429460     3A    -20.408134
       4A    -20.407755     5A    -20.394428     6A    -10.285663
       7A     -7.751772     8A     -7.751731     9A     -7.751680
      10A     -1.206233    11A     -1.205642    12A     -1.187570
      13A     -1.183173    14A     -0.802236    15A     -0.584559
      16A     -0.578569    17A     -0.559140    18A     -0.549994
      19A     -0.434661    20A     -0.433935    21A     -0.422861
      22A     -0.420147    23A     -0.370820    24A     -0.359164
      25A     -0.351407    26A     -0.342589    27A     -0.215886
      28A     -0.215286    29A     -0.210829

  @DF-RHF Final Energy:  -763.85241627634753

   => Energetics <=

    Nuclear Repulsion Energy =            222.0568100420012456
    One-Electron Energy =               -1509.0663393689587792
    Two-Electron Energy =                 523.1571130506100644
    Total Energy =                       -763.8524162763475260
 Dipole X            :         35.5437119          -34.6424726            0.9012393
 Dipole Y            :        -38.0071211           36.9000036           -1.1071175
 Dipole Z            :        -98.9529985           97.7283147           -1.2246838
 Magnitude           :                                                    1.8809019
  Basis Set: (AUG-CC-PVTZ AUX)
    Blend: AUG-CC-PVTZ-RI
	 Reference Energy          =    -763.8524162763475260 [Eh]
	 Singles Energy            =      -0.0000000000000000 [Eh]
	 Same-Spin Energy          =      -0.3449185161975665 [Eh]
	 Opposite-Spin Energy      =      -1.0526787558826840 [Eh]
	 Correlation Energy        =      -1.3975972720802505 [Eh]
	 Total Energy              =    -765.2500135484277735 [Eh]

	 ================> DF-SCS-MP2 Energies <==================
	-----------------------------------------------------------
	 SCS Same-Spin Scale       =       0.3333333333333333 [-]
	 SCS Opposite-Spin Scale   =       1.2000000000000000 [-]
	 SCS Same-Spin Energy      =      -0.1149728387325221 [Eh]
	 SCS Opposite-Spin Energy  =      -1.2632145070592207 [Eh]
	 SCS Correlation Energy    =      -1.3781873457917428 [Eh]
	 SCS Total Energy          =    -765.2306036221392560 [Eh]
	-----------------------------------------------------------

*** Psi4 exiting successfully. Buy a developer a beer!
