                               Psi4 1.8.2 release

  ==> Input File <==

--------------------------------------------------------------------------
MEMORY 60 GB

molecule dimer {
0 1
Gh(Cl)     0.000000     0.000000     0.000000
Gh(O)     -2.944867    -0.564899    -1.779154
Gh(H)     -3.524928     0.182418    -1.593240
Gh(H)     -2.264671    -0.498491    -1.118838
Gh(O)     -2.727221     1.269441     1.357269
Gh(H)     -2.050786     0.651012     1.147961
Gh(H)     -3.477837     0.948943     0.929990
O          2.085863     1.943286     1.689448
H          2.901729     2.319648     1.384240
H          1.848548     1.201502     1.097555
Gh(O)      0.575664    -2.444183     2.291224
Gh(H)      0.275698    -1.738441     1.676952
Gh(H)     -0.166814    -2.631813     2.907550
Gh(O)     -0.427516     3.289022     1.005525
Gh(H)     -0.401676     2.496842     0.384779
Gh(H)      0.441407     3.173898     1.412293

units ang
no_reorient
no_com
symmetry c1
}

set {
basis        aug-cc-pVTZ
scf_type     df
}

energy("mp2")
--------------------------------------------------------------------------

    Molecular point group: c1

    Geometry (in Angstrom), charge = 0, multiplicity = 1:

       Center              X                  Y                   Z               Mass
    ------------   -----------------  -----------------  -----------------  -----------------
      Gh(CL)          0.000000000000     0.000000000000     0.000000000000    34.968852682000
      Gh(O)          -2.944867000000    -0.564899000000    -1.779154000000    15.994914619570
      Gh(H)          -3.524928000000     0.182418000000    -1.593240000000     1.007825032230
      Gh(H)          -2.264671000000    -0.498491000000    -1.118838000000     1.007825032230
      Gh(O)          -2.727221000000     1.269441000000     1.357269000000    15.994914619570
      Gh(H)          -2.050786000000     0.651012000000     1.147961000000     1.007825032230
      Gh(H)          -3.477837000000     0.948943000000     0.929990000000     1.007825032230
         O            2.085863000000     1.943286000000     1.689448000000    15.994914619570
         H            2.901729000000     2.319648000000     1.384240000000     1.007825032230
         H            1.848548000000     1.201502000000     1.097555000000     1.007825032230
      Gh(O)           0.575664000000    -2.444183000000     2.291224000000    15.994914619570
      Gh(H)           0.275698000000    -1.738441000000     1.676952000000     1.007825032230
      Gh(H)          -0.166814000000    -2.631813000000     2.907550000000     1.007825032230
      Gh(O)          -0.427516000000     3.289022000000     1.005525000000    15.994914619570
      Gh(H)          -0.401676000000     2.496842000000     0.384779000000     1.007825032230
      Gh(H)           0.441407000000     3.173898000000     1.412293000000     1.007825032230

  Charge       = 0
  Multiplicity = 1
  Basis Set: AUG-CC-PVTZ
    Blend: AUG-CC-PVTZ
  Basis Set: (AUG-CC-PVTZ AUX)
    Blend: AUG-CC-PVTZ-JKFIT

    Orbital Energies [Eh]
    ---------------------

    Doubly Occupied:

       1A    -20.566349     2A     -1.347778     3A     -0.721509
       4A     -0.576131     5A     -0.508683

  @DF-RHF Final Energy:   -76.05961661443600

   => Energetics <=

    Nuclear Repulsion Energy =              9.1276961917966251
    One-Electron Energy =                -122.9337212051815840
    Two-Electron Energy =                  37.7464083989489509
    Total Energy =                        -76.0596166144360097
 Dipole X            :        -40.1195644           40.5104010            0.3908366
 Dipole Y            :        -36.2743101           36.0322357           -0.2420743
 Dipole Z            :        -30.8308781           30.2306650           -0.6002130
 Magnitude           :                                                    0.7560482
  Basis Set: (AUG-CC-PVTZ AUX)
    Blend: AUG-CC-PVTZ-RI
	 Reference Energy          =     -76.0596166144359955 [Eh]
	 Singles Energy            =      -0.0000000000000000 [Eh]
	 Same-Spin Energy          =      -0.0684724094789561 [Eh]
	 Opposite-Spin Energy      =      -0.2160535080250262 [Eh]
	 Correlation Energy        =      -0.2845259175039823 [Eh]
	 Total Energy              =     -76.3441425319399798 [Eh]

	 ================> DF-SCS-MP2 Energies <==================
	-----------------------------------------------------------
	 SCS Same-Spin Scale       =       0.3333333333333333 [-]
	 SCS Opposite-Spin Scale   =       1.2000000000000000 [-]
	 SCS Same-Spin Energy      =      -0.0228241364929854 [Eh]
	 SCS Opposite-Spin Energy  =      -0.2592642096300314 [Eh]
	 SCS Correlation Energy    =      -0.2820883461230168 [Eh]
	 SCS Total Energy          =     -76.3417049605590137 [Eh]
	-----------------------------------------------------------

*** Psi4 exiting successfully. Buy a developer a beer!
