                               Psi4 1.8.2 release

  ==> Input File <==

--------------------------------------------------------------------------
MEMORY 60 GB

molecule dimer {
-1 1
Cl         0.000000     0.000000     0.000000
O         -2.410834    -0.087828    -2.505110
H         -1.817553    -0.796160    -2.294247
H         -2.723707    -0.242293    -3.424832
O         -2.085208     1.991842     1.728213
H         -1.416728     1.372400     1.423648
H         -2.024935     2.657723     1.018972
O         -1.336003     2.724781    -1.712998
H         -1.329154     2.487387    -2.671129
H         -1.463313     1.836521    -1.398655
O          0.693185     1.358756     3.016970
H          0.630046     0.870811     3.863689
H          0.669578     0.732034     2.210643
O          2.806877     0.571110    -1.252195
H          2.915446     1.526704    -1.285028
H          1.961445     0.365407    -0.870162
O          0.909191    -2.895189    -1.081663
H          1.611131    -2.667095    -1.699815
H          0.566234    -2.019767    -0.903729

units ang
no_reorient
no_com
symmetry c1
}

set {
basis        aug-cc-pVTZ
scf_type     df
}

energy("mp2")
--------------------------------------------------------------------------

    Molecular point group: c1

    Geometry (in Angstrom), charge = -1, multiplicity = 1:

       Center              X                  Y                   Z               Mass
    ------------   -----------------  -----------------  -----------------  -----------------
         CL           0.000000000000     0.000000000000     0.000000000000    34.968852682000
         O           -2.410834000000    -0.087828000000    -2.505110000000    15.994914619570
         H           -1.817553000000    -0.796160000000    -2.294247000000     1.007825032230
         H           -2.723707000000    -0.242293000000    -3.424832000000     1.007825032230
         O           -2.085208000000     1.991842000000     1.728213000000    15.994914619570
         H           -1.416728000000     1.372400000000     1.423648000000     1.007825032230
         H           -2.024935000000     2.657723000000     1.018972000000     1.007825032230
         O           -1.336003000000     2.724781000000    -1.712998000000    15.994914619570
         H           -1.329154000000     2.487387000000    -2.671129000000     1.007825032230
         H           -1.463313000000     1.836521000000    -1.398655000000     1.007825032230
         O            0.693185000000     1.358756000000     3.016970000000    15.994914619570
         H            0.630046000000     0.870811000000     3.863689000000     1.007825032230
         H            0.669578000000     0.732034000000     2.210643000000     1.007825032230
         O            2.806877000000     0.571110000000    -1.252195000000    15.994914619570
         H            2.915446000000     1.526704000000    -1.285028000000     1.007825032230
         H            1.961445000000     0.365407000000    -0.870162000000     1.007825032230
         O            0.909191000000    -2.895189000000    -1.081663000000    15.994914619570
         H            1.611131000000    -2.667095000000    -1.699815000000     1.007825032230
         H            0.566234000000    -2.019767000000    -0.903729000000     1.007825032230

  Charge       = -1
  Multiplicity = 1
  Basis Set: AUG-CC-PVTZ
    Blend: AUG-CC-PVTZ
  Basis Set: (AUG-CC-PVTZ AUX)
    Blend: AUG-CC-PVTZ-JKFIT

    Orbital Energies [Eh]
    ---------------------

    Doubly Occupied:

       1A   -104.591621     2A    -20.465588     3A    -20.429712
       4A    -20.422295     5A    -20.420171     6A    -20.410796
       7A    -20.401795     8A    -10.317076     9A     -7.783229
      10A     -7.783151    11A     -7.783107    12A     -1.246915
      13A     -1.213384    14A     -1.212003    15A     -1.200852
      16A     -1.186544    17A     -1.180486    18A     -0.837208
      19A     -0.615604    20A     -0.579493    21A     -0.564850
      22A     -0.561730    23A     -0.554879    24A     -0.537285
      25A     -0.485547    26A     -0.459132    27A     -0.455387
      28A     -0.432855    29A     -0.430861    30A     -0.417883
      31A     -0.407013    32A     -0.372877    33A     -0.368895
      34A     -0.362714    35A     -0.360279    36A     -0.340714
      37A     -0.251209    38A     -0.247064    39A     -0.244100

  @DF-RHF Final Energy:  -915.98540491862377

   => Energetics <=

    Nuclear Repulsion Energy =            392.1576420811655908
    One-Electron Energy =               -2060.4134834030264756
    Two-Electron Energy =                 752.2704364032369995
    Total Energy =                       -915.9854049186237717
 Dipole X            :         26.1335736          -26.0854884            0.0480851
 Dipole Y            :        -67.9446484           66.9557329           -0.9889154
 Dipole Z            :         37.2521824          -38.7108677           -1.4586853
 Magnitude           :                                                    1.7629602
  Basis Set: (AUG-CC-PVTZ AUX)
    Blend: AUG-CC-PVTZ-RI
	 Reference Energy          =    -915.9854049186237717 [Eh]
	 Singles Energy            =      -0.0000000000000000 [Eh]
	 Same-Spin Energy          =      -0.4869287396089675 [Eh]
	 Opposite-Spin Energy      =      -1.4919321952422613 [Eh]
	 Correlation Energy        =      -1.9788609348512287 [Eh]
	 Total Energy              =    -917.9642658534750126 [Eh]

	 ================> DF-SCS-MP2 Energies <==================
	-----------------------------------------------------------
	 SCS Same-Spin Scale       =       0.3333333333333333 [-]
	 SCS Opposite-Spin Scale   =       1.2000000000000000 [-]
	 SCS Same-Spin Energy      =      -0.1623095798696558 [Eh]
	 SCS Opposite-Spin Energy  =      -1.7903186342907136 [Eh]
	 SCS Correlation Energy    =      -1.9526282141603695 [Eh]
	 SCS Total Energy          =    -917.9380331327840850 [Eh]
	-----------------------------------------------------------

*** Psi4 exiting successfully. Buy a developer a beer!
