                               Psi4 1.8.2 release

  ==> Input File <==

--------------------------------------------------------------------------
MEMORY 60 GB

molecule dimer {
-1 1
Cl         0.000000     0.000000     0.000000
O         -0.173399    -2.130297    -2.421957
H         -0.233698    -1.609613    -1.627445
H          0.741541    -2.269770    -2.594685
O         -1.028624     2.347533    -2.150277
H         -1.885952     2.313957    -2.529985
H         -0.906437     1.866831    -1.296814
O          2.078078     0.785667     2.064740
H          2.174484    -0.068130     2.543642
H          1.384144     0.706821     1.444220
O          1.955819    -2.555345     0.911533
H          1.829860    -2.942121     1.778607
H          1.125160    -2.719941     0.440877
O         -1.696135    -2.267627     1.075756
H         -1.700190    -2.290389     2.057532
H         -1.174776    -1.505571     0.797835
O         -3.020585     0.879792     1.057446
H         -3.488907     0.101516     1.445361
H         -2.091292     0.587939     0.905517

units ang
no_reorient
no_com
symmetry c1
}

set {
basis        aug-cc-pVTZ
scf_type     df
}

energy("mp2")
--------------------------------------------------------------------------

    Molecular point group: c1

    Geometry (in Angstrom), charge = -1, multiplicity = 1:

       Center              X                  Y                   Z               Mass
    ------------   -----------------  -----------------  -----------------  -----------------
         CL           0.000000000000     0.000000000000     0.000000000000    34.968852682000
         O           -0.173399000000    -2.130297000000    -2.421957000000    15.994914619570
         H           -0.233698000000    -1.609613000000    -1.627445000000     1.007825032230
         H            0.741541000000    -2.269770000000    -2.594685000000     1.007825032230
         O           -1.028624000000     2.347533000000    -2.150277000000    15.994914619570
         H           -1.885952000000     2.313957000000    -2.529985000000     1.007825032230
         H           -0.906437000000     1.866831000000    -1.296814000000     1.007825032230
         O            2.078078000000     0.785667000000     2.064740000000    15.994914619570
         H            2.174484000000    -0.068130000000     2.543642000000     1.007825032230
         H            1.384144000000     0.706821000000     1.444220000000     1.007825032230
         O            1.955819000000    -2.555345000000     0.911533000000    15.994914619570
         H            1.829860000000    -2.942121000000     1.778607000000     1.007825032230
         H            1.125160000000    -2.719941000000     0.440877000000     1.007825032230
         O           -1.696135000000    -2.267627000000     1.075756000000    15.994914619570
         H           -1.700190000000    -2.290389000000     2.057532000000     1.007825032230
         H           -1.174776000000    -1.505571000000     0.797835000000     1.007825032230
         O           -3.020585000000     0.879792000000     1.057446000000    15.994914619570
         H           -3.488907000000     0.101516000000     1.445361000000     1.007825032230
         H           -2.091292000000     0.587939000000     0.905517000000     1.007825032230

  Charge       = -1
  Multiplicity = 1
  Basis Set: AUG-CC-PVTZ
    Blend: AUG-CC-PVTZ
  Basis Set: (AUG-CC-PVTZ AUX)
    Blend: AUG-CC-PVTZ-JKFIT

    Orbital Energies [Eh]
    ---------------------

    Doubly Occupied:

       1A   -104.600051     2A    -20.449552     3A    -20.430440
       4A    -20.427925     5A    -20.415114     6A    -20.412263
       7A    -20.402422     8A    -10.326432     9A     -7.792534
      10A     -7.792461    11A     -7.792417    12A     -1.233119
      13A     -1.212240    14A     -1.211156    15A     -1.197603
      16A     -1.195635    17A     -1.191540    18A     -0.853020
      19A     -0.599098    20A     -0.589956    21A     -0.587181
      22A     -0.583420    23A     -0.569004    24A     -0.565265
      25A     -0.466803    26A     -0.450279    27A     -0.441078
      28A     -0.439534    29A     -0.425636    30A     -0.416309
      31A     -0.393251    32A     -0.376025    33A     -0.367591
      34A     -0.365542    35A     -0.359172    36A     -0.351190
      37A     -0.261921    38A     -0.258154    39A     -0.255244

  @DF-RHF Final Energy:  -915.98566500316690

   => Energetics <=

    Nuclear Repulsion Energy =            402.9854687292447579
    One-Electron Energy =               -2081.8271041372186119
    Two-Electron Energy =                 762.8559704048069534
    Total Energy =                       -915.9856650031669005
 Dipole X            :         36.5449266          -36.4808435            0.0640831
 Dipole Y            :         58.2032422          -59.2442123           -1.0409701
 Dipole Z            :        -13.2803226           14.4801965            1.1998739
 Magnitude           :                                                    1.5897870
  Basis Set: (AUG-CC-PVTZ AUX)
    Blend: AUG-CC-PVTZ-RI
	 Reference Energy          =    -915.9856650031669005 [Eh]
	 Singles Energy            =      -0.0000000000000000 [Eh]
	 Same-Spin Energy          =      -0.4883352913979430 [Eh]
	 Opposite-Spin Energy      =      -1.4929479425901759 [Eh]
	 Correlation Energy        =      -1.9812832339881190 [Eh]
	 Total Energy              =    -917.9669482371550657 [Eh]

	 ================> DF-SCS-MP2 Energies <==================
	-----------------------------------------------------------
	 SCS Same-Spin Scale       =       0.3333333333333333 [-]
	 SCS Opposite-Spin Scale   =       1.2000000000000000 [-]
	 SCS Same-Spin Energy      =      -0.1627784304659810 [Eh]
	 SCS Opposite-Spin Energy  =      -1.7915375311082111 [Eh]
	 SCS Correlation Energy    =      -1.9543159615741921 [Eh]
	 SCS Total Energy          =    -917.9399809647410393 [Eh]
	-----------------------------------------------------------

*** Psi4 exiting successfully. Buy a developer a beer!
