                               Psi4 1.8.2 release

  ==> Input File <==

--------------------------------------------------------------------------
MEMORY 60 GB

molecule dimer {
-1 1
Cl         0.000000     0.000000     0.000000
O          0.823380    -1.352973    -3.021871
H          1.752854    -1.586619    -2.681171
H          0.487876    -0.873730    -2.261775
O          2.523281     0.075105     2.141624
H          2.081558    -0.483417     2.754013
H          1.877416     0.285763     1.482632
O          2.650784     1.254153    -1.136163
H          2.401662     1.605478    -1.971241
H          1.924731     0.699704    -0.891412
O         -0.306264     2.928050     0.541310
H          0.380642     3.308514     1.104799
H          0.073139     2.191299     0.141775
O         -1.011167     1.396698    -2.618018
H         -0.727764     2.280068    -2.348939
H         -0.878256     0.893634    -1.790117

units ang
no_reorient
no_com
symmetry c1
}

set {
basis        aug-cc-pVTZ
scf_type     df
}

energy("mp2")
--------------------------------------------------------------------------

    Molecular point group: c1

    Geometry (in Angstrom), charge = -1, multiplicity = 1:

       Center              X                  Y                   Z               Mass
    ------------   -----------------  -----------------  -----------------  -----------------
         CL           0.000000000000     0.000000000000     0.000000000000    34.968852682000
         O            0.823380000000    -1.352973000000    -3.021871000000    15.994914619570
         H            1.752854000000    -1.586619000000    -2.681171000000     1.007825032230
         H            0.487876000000    -0.873730000000    -2.261775000000     1.007825032230
         O            2.523281000000     0.075105000000     2.141624000000    15.994914619570
         H            2.081558000000    -0.483417000000     2.754013000000     1.007825032230
         H            1.877416000000     0.285763000000     1.482632000000     1.007825032230
         O            2.650784000000     1.254153000000    -1.136163000000    15.994914619570
         H            2.401662000000     1.605478000000    -1.971241000000     1.007825032230
         H            1.924731000000     0.699704000000    -0.891412000000     1.007825032230
         O           -0.306264000000     2.928050000000     0.541310000000    15.994914619570
         H            0.380642000000     3.308514000000     1.104799000000     1.007825032230
         H            0.073139000000     2.191299000000     0.141775000000     1.007825032230
         O           -1.011167000000     1.396698000000    -2.618018000000    15.994914619570
         H           -0.727764000000     2.280068000000    -2.348939000000     1.007825032230
         H           -0.878256000000     0.893634000000    -1.790117000000     1.007825032230

  Charge       = -1
  Multiplicity = 1
  Basis Set: AUG-CC-PVTZ
    Blend: AUG-CC-PVTZ
  Basis Set: (AUG-CC-PVTZ AUX)
    Blend: AUG-CC-PVTZ-JKFIT

    Orbital Energies [Eh]
    ---------------------

    Doubly Occupied:

       1A   -104.596028     2A    -20.425672     3A    -20.420053
       4A    -20.417436     5A    -20.415235     6A    -20.411252
       7A    -10.322026     8A     -7.788103     9A     -7.788077
      10A     -7.788016    11A     -1.219771    12A     -1.218031
      13A     -1.215519    14A     -1.196623    15A     -1.193621
      16A     -0.846137    17A     -0.590810    18A     -0.586522
      19A     -0.580685    20A     -0.556505    21A     -0.543341
      22A     -0.452764    23A     -0.449346    24A     -0.444726
      25A     -0.442607    26A     -0.439106    27A     -0.371955
      28A     -0.371122    29A     -0.367176    30A     -0.365250
      31A     -0.354128    32A     -0.255223    33A     -0.253572
      34A     -0.250077

  @DF-RHF Final Energy:  -839.92681652390115

   => Energetics <=

    Nuclear Repulsion Energy =            321.6210428464075903
    One-Electron Energy =               -1813.2226843572898360
    Two-Electron Energy =                 651.6748249869810934
    Total Energy =                       -839.9268165239011523
 Dipole X            :        -89.0019577           88.4655821           -0.5363755
 Dipole Y            :        -81.4259005           80.7460282           -0.6798722
 Dipole Z            :         75.6637390          -74.0893206            1.5744185
 Magnitude           :                                                    1.7968635
  Basis Set: (AUG-CC-PVTZ AUX)
    Blend: AUG-CC-PVTZ-RI
	 Reference Energy          =    -839.9268165239011523 [Eh]
	 Singles Energy            =      -0.0000000000000000 [Eh]
	 Same-Spin Energy          =      -0.4179891756601992 [Eh]
	 Opposite-Spin Energy      =      -1.2745263850489388 [Eh]
	 Correlation Energy        =      -1.6925155607091380 [Eh]
	 Total Energy              =    -841.6193320846102779 [Eh]

	 ================> DF-SCS-MP2 Energies <==================
	-----------------------------------------------------------
	 SCS Same-Spin Scale       =       0.3333333333333333 [-]
	 SCS Opposite-Spin Scale   =       1.2000000000000000 [-]
	 SCS Same-Spin Energy      =      -0.1393297252200664 [Eh]
	 SCS Opposite-Spin Energy  =      -1.5294316620587265 [Eh]
	 SCS Correlation Energy    =      -1.6687613872787930 [Eh]
	 SCS Total Energy          =    -841.5955779111799302 [Eh]
	-----------------------------------------------------------

*** Psi4 exiting successfully. Buy a developer a beer!
