                               Psi4 1.8.2 release

  ==> Input File <==

--------------------------------------------------------------------------
MEMORY 60 GB

molecule dimer {
0 1
Gh(Cl)     0.000000     0.000000     0.000000
O          2.247823     1.054428     2.091133
H          1.975481     0.561471     1.348335
H          2.892441     0.520458     2.606351
Gh(O)      0.349162    -2.885324     1.690405
Gh(H)      0.406239    -3.703972     1.217566
Gh(H)      0.590132    -2.160564     1.081020
Gh(O)      1.622947     1.853072    -2.013003
Gh(H)      2.373746     1.475204    -2.405921
Gh(H)      1.243024     1.154997    -1.444838

units ang
no_reorient
no_com
symmetry c1
}

set {
basis        aug-cc-pVTZ
scf_type     df
}

energy("mp2")
--------------------------------------------------------------------------

    Molecular point group: c1

    Geometry (in Angstrom), charge = 0, multiplicity = 1:

       Center              X                  Y                   Z               Mass
    ------------   -----------------  -----------------  -----------------  -----------------
      Gh(CL)          0.000000000000     0.000000000000     0.000000000000    34.968852682000
         O            2.247823000000     1.054428000000     2.091133000000    15.994914619570
         H            1.975481000000     0.561471000000     1.348335000000     1.007825032230
         H            2.892441000000     0.520458000000     2.606351000000     1.007825032230
      Gh(O)           0.349162000000    -2.885324000000     1.690405000000    15.994914619570
      Gh(H)           0.406239000000    -3.703972000000     1.217566000000     1.007825032230
      Gh(H)           0.590132000000    -2.160564000000     1.081020000000     1.007825032230
      Gh(O)           1.622947000000     1.853072000000    -2.013003000000    15.994914619570
      Gh(H)           2.373746000000     1.475204000000    -2.405921000000     1.007825032230
      Gh(H)           1.243024000000     1.154997000000    -1.444838000000     1.007825032230

  Charge       = 0
  Multiplicity = 1
  Basis Set: AUG-CC-PVTZ
    Blend: AUG-CC-PVTZ
  Basis Set: (AUG-CC-PVTZ AUX)
    Blend: AUG-CC-PVTZ-JKFIT

    Orbital Energies [Eh]
    ---------------------

    Doubly Occupied:

       1A    -20.565122     2A     -1.351019     3A     -0.725871
       4A     -0.576338     5A     -0.509107

  @DF-RHF Final Energy:   -76.05913166223016

   => Energetics <=

    Nuclear Repulsion Energy =              9.1883536190292734
    One-Electron Energy =                -123.0400518835631232
    Two-Electron Energy =                  37.7925666023037081
    Total Energy =                        -76.0591316622301434
 Dipole X            :        -42.9344427           43.1811982            0.2467554
 Dipole Y            :        -18.6776700           17.9851906           -0.6924793
 Dipole Z            :        -39.2468474           39.0866227           -0.1602247
 Magnitude           :                                                    0.7523881
  Basis Set: (AUG-CC-PVTZ AUX)
    Blend: AUG-CC-PVTZ-RI
	 Reference Energy          =     -76.0591316622301576 [Eh]
	 Singles Energy            =      -0.0000000000000000 [Eh]
	 Same-Spin Energy          =      -0.0683093994012083 [Eh]
	 Opposite-Spin Energy      =      -0.2153635623745352 [Eh]
	 Correlation Energy        =      -0.2836729617757434 [Eh]
	 Total Energy              =     -76.3428046240059075 [Eh]

	 ================> DF-SCS-MP2 Energies <==================
	-----------------------------------------------------------
	 SCS Same-Spin Scale       =       0.3333333333333333 [-]
	 SCS Opposite-Spin Scale   =       1.2000000000000000 [-]
	 SCS Same-Spin Energy      =      -0.0227697998004028 [Eh]
	 SCS Opposite-Spin Energy  =      -0.2584362748494422 [Eh]
	 SCS Correlation Energy    =      -0.2812060746498450 [Eh]
	 SCS Total Energy          =     -76.3403377368800022 [Eh]
	-----------------------------------------------------------

*** Psi4 exiting successfully. Buy a developer a beer!
