                               Psi4 1.8.2 release

  ==> Input File <==

--------------------------------------------------------------------------
MEMORY 60 GB

molecule dimer {
-1 1
Cl         0.000000     0.000000     0.000000
Gh(O)     -1.296686    -0.789802     2.747488
Gh(H)     -0.958037    -0.553647     1.932824
Gh(H)     -0.724324    -1.377608     3.241656
Gh(O)     -2.076983    -2.553794    -0.486353
Gh(H)     -1.591041    -1.707135    -0.380617
Gh(H)     -3.010769    -2.279472    -0.495510
Gh(O)     -0.476781     2.792384     1.610098
Gh(H)     -0.194248     1.959841     1.163400
Gh(H)      0.285662     3.369797     1.728100
Gh(O)      2.175372    -1.021934     2.331685
Gh(H)      2.807418    -1.629194     1.955755
Gh(H)      1.693498    -0.623625     1.563577
Gh(O)     -2.432882     1.506271    -1.718991
Gh(H)     -1.619892     1.326935    -1.279633
Gh(H)     -2.709491     0.637243    -2.073644

units ang
no_reorient
no_com
symmetry c1
}

set {
basis        aug-cc-pVTZ
scf_type     df
}

energy("mp2")
--------------------------------------------------------------------------

    Molecular point group: c1

    Geometry (in Angstrom), charge = -1, multiplicity = 1:

       Center              X                  Y                   Z               Mass
    ------------   -----------------  -----------------  -----------------  -----------------
         CL           0.000000000000     0.000000000000     0.000000000000    34.968852682000
      Gh(O)          -1.296686000000    -0.789802000000     2.747488000000    15.994914619570
      Gh(H)          -0.958037000000    -0.553647000000     1.932824000000     1.007825032230
      Gh(H)          -0.724324000000    -1.377608000000     3.241656000000     1.007825032230
      Gh(O)          -2.076983000000    -2.553794000000    -0.486353000000    15.994914619570
      Gh(H)          -1.591041000000    -1.707135000000    -0.380617000000     1.007825032230
      Gh(H)          -3.010769000000    -2.279472000000    -0.495510000000     1.007825032230
      Gh(O)          -0.476781000000     2.792384000000     1.610098000000    15.994914619570
      Gh(H)          -0.194248000000     1.959841000000     1.163400000000     1.007825032230
      Gh(H)           0.285662000000     3.369797000000     1.728100000000     1.007825032230
      Gh(O)           2.175372000000    -1.021934000000     2.331685000000    15.994914619570
      Gh(H)           2.807418000000    -1.629194000000     1.955755000000     1.007825032230
      Gh(H)           1.693498000000    -0.623625000000     1.563577000000     1.007825032230
      Gh(O)          -2.432882000000     1.506271000000    -1.718991000000    15.994914619570
      Gh(H)          -1.619892000000     1.326935000000    -1.279633000000     1.007825032230
      Gh(H)          -2.709491000000     0.637243000000    -2.073644000000     1.007825032230

  Charge       = -1
  Multiplicity = 1
  Basis Set: AUG-CC-PVTZ
    Blend: AUG-CC-PVTZ
  Basis Set: (AUG-CC-PVTZ AUX)
    Blend: AUG-CC-PVTZ-JKFIT

    Orbital Energies [Eh]
    ---------------------

    Doubly Occupied:

       1A   -104.507288     2A    -10.230067     3A     -7.696137
       4A     -7.696120     5A     -7.696115     6A     -0.733466
       7A     -0.150310     8A     -0.150306     9A     -0.150301

  @DF-RHF Final Energy:  -459.57358116320967

   => Energetics <=

    Nuclear Repulsion Energy =              0.0000000000000000
    One-Electron Energy =                -641.1269526902973439
    Two-Electron Energy =                 181.5533715270876769
    Total Energy =                       -459.5735811632096670
 Dipole X            :         -0.0004676            0.0000000           -0.0004676
 Dipole Y            :          0.0000466            0.0000000            0.0000466
 Dipole Z            :          0.0004479            0.0000000            0.0004479
 Magnitude           :                                                    0.0006492
  Basis Set: (AUG-CC-PVTZ AUX)
    Blend: AUG-CC-PVTZ-RI
	 Reference Energy          =    -459.5735811632096670 [Eh]
	 Singles Energy            =      -0.0000000000000000 [Eh]
	 Same-Spin Energy          =      -0.0635721178049454 [Eh]
	 Opposite-Spin Energy      =      -0.1839741960778357 [Eh]
	 Correlation Energy        =      -0.2475463138827811 [Eh]
	 Total Energy              =    -459.8211274770924319 [Eh]

	 ================> DF-SCS-MP2 Energies <==================
	-----------------------------------------------------------
	 SCS Same-Spin Scale       =       0.3333333333333333 [-]
	 SCS Opposite-Spin Scale   =       1.2000000000000000 [-]
	 SCS Same-Spin Energy      =      -0.0211907059349818 [Eh]
	 SCS Opposite-Spin Energy  =      -0.2207690352934029 [Eh]
	 SCS Correlation Energy    =      -0.2419597412283847 [Eh]
	 SCS Total Energy          =    -459.8155409044380235 [Eh]
	-----------------------------------------------------------

*** Psi4 exiting successfully. Buy a developer a beer!
