                               Psi4 1.8.2 release

  ==> Input File <==

--------------------------------------------------------------------------
MEMORY 60 GB

molecule dimer {
-1 1
Cl         0.000000     0.000000     0.000000
O          1.204895    -0.292806     3.103745
H          0.858812    -0.438415     2.264549
H          0.985701    -1.004115     3.659773
O          0.789525    -2.891032     1.505917
H         -0.080665    -2.757418     1.853570
H          0.819466    -2.343279     0.748618
O         -0.872242     2.463895     1.602122
H         -1.313491     2.263765     2.460438
H         -0.729683     1.568483     1.276229
O          1.378925     2.839395    -1.431688
H          2.181119     3.120693    -1.891219
H          1.599881     2.296982    -0.701732
O         -0.356147    -2.668445    -1.634404
H          0.502565    -3.070606    -1.479224
H         -0.391807    -1.750591    -1.299217
O         -0.586778     0.539437    -3.392799
H         -0.357652     0.715562    -2.504387
H         -1.194776    -0.217509    -3.459535
O         -2.873076    -0.935610     0.706102
H         -2.054198    -0.673415     0.344225
H         -3.477967    -0.300884     1.099128

units ang
no_reorient
no_com
symmetry c1
}

set {
basis        aug-cc-pVTZ
scf_type     df
}

energy("mp2")
--------------------------------------------------------------------------

    Molecular point group: c1

    Geometry (in Angstrom), charge = -1, multiplicity = 1:

       Center              X                  Y                   Z               Mass
    ------------   -----------------  -----------------  -----------------  -----------------
         CL           0.000000000000     0.000000000000     0.000000000000    34.968852682000
         O            1.204895000000    -0.292806000000     3.103745000000    15.994914619570
         H            0.858812000000    -0.438415000000     2.264549000000     1.007825032230
         H            0.985701000000    -1.004115000000     3.659773000000     1.007825032230
         O            0.789525000000    -2.891032000000     1.505917000000    15.994914619570
         H           -0.080665000000    -2.757418000000     1.853570000000     1.007825032230
         H            0.819466000000    -2.343279000000     0.748618000000     1.007825032230
         O           -0.872242000000     2.463895000000     1.602122000000    15.994914619570
         H           -1.313491000000     2.263765000000     2.460438000000     1.007825032230
         H           -0.729683000000     1.568483000000     1.276229000000     1.007825032230
         O            1.378925000000     2.839395000000    -1.431688000000    15.994914619570
         H            2.181119000000     3.120693000000    -1.891219000000     1.007825032230
         H            1.599881000000     2.296982000000    -0.701732000000     1.007825032230
         O           -0.356147000000    -2.668445000000    -1.634404000000    15.994914619570
         H            0.502565000000    -3.070606000000    -1.479224000000     1.007825032230
         H           -0.391807000000    -1.750591000000    -1.299217000000     1.007825032230
         O           -0.586778000000     0.539437000000    -3.392799000000    15.994914619570
         H           -0.357652000000     0.715562000000    -2.504387000000     1.007825032230
         H           -1.194776000000    -0.217509000000    -3.459535000000     1.007825032230
         O           -2.873076000000    -0.935610000000     0.706102000000    15.994914619570
         H           -2.054198000000    -0.673415000000     0.344225000000     1.007825032230
         H           -3.477967000000    -0.300884000000     1.099128000000     1.007825032230

  Charge       = -1
  Multiplicity = 1
  Basis Set: AUG-CC-PVTZ
    Blend: AUG-CC-PVTZ
  Basis Set: (AUG-CC-PVTZ AUX)
    Blend: AUG-CC-PVTZ-JKFIT

    Orbital Energies [Eh]
    ---------------------

    Doubly Occupied:

       1A   -104.610121     2A    -20.436190     3A    -20.435133
       4A    -20.422209     5A    -20.420455     6A    -20.418535
       7A    -20.418402     8A    -20.418122     9A    -10.336392
      10A     -7.802512    11A     -7.802445    12A     -7.802398
      13A     -1.238338    14A     -1.229961    15A     -1.225904
      16A     -1.212420    17A     -1.207525    18A     -1.204223
      19A     -1.198463    20A     -0.862181    21A     -0.620132
      22A     -0.611719    23A     -0.604448    24A     -0.601585
      25A     -0.589604    26A     -0.587659    27A     -0.552959
      28A     -0.468655    29A     -0.450973    30A     -0.448527
      31A     -0.445205    32A     -0.435510    33A     -0.432660
      34A     -0.423222    35A     -0.390680    36A     -0.382861
      37A     -0.374386    38A     -0.371825    39A     -0.369211
      40A     -0.363303    41A     -0.360349    42A     -0.270764
      43A     -0.268127    44A     -0.267539

  @DF-RHF Final Energy:  -992.05162779126374

   => Energetics <=

    Nuclear Repulsion Energy =            506.8410707315826471
    One-Electron Energy =               -2394.9977207413608085
    Two-Electron Energy =                 896.1050222185143639
    Total Energy =                       -992.0516277912637406
 Dipole X            :         25.2228875          -24.8912439            0.3316437
 Dipole Y            :         19.0027147          -19.1846414           -0.1819267
 Dipole Z            :        -10.6597347           11.4199476            0.7602129
 Magnitude           :                                                    0.8491222
  Basis Set: (AUG-CC-PVTZ AUX)
    Blend: AUG-CC-PVTZ-RI
	 Reference Energy          =    -992.0516277912637406 [Eh]
	 Singles Energy            =      -0.0000000000000000 [Eh]
	 Same-Spin Energy          =      -0.5563076411374160 [Eh]
	 Opposite-Spin Energy      =      -1.7052097983195407 [Eh]
	 Correlation Energy        =      -2.2615174394569566 [Eh]
	 Total Energy              =    -994.3131452307206928 [Eh]

	 ================> DF-SCS-MP2 Energies <==================
	-----------------------------------------------------------
	 SCS Same-Spin Scale       =       0.3333333333333333 [-]
	 SCS Opposite-Spin Scale   =       1.2000000000000000 [-]
	 SCS Same-Spin Energy      =      -0.1854358803791387 [Eh]
	 SCS Opposite-Spin Energy  =      -2.0462517579834487 [Eh]
	 SCS Correlation Energy    =      -2.2316876383625872 [Eh]
	 SCS Total Energy          =    -994.2833154296263274 [Eh]
	-----------------------------------------------------------

*** Psi4 exiting successfully. Buy a developer a beer!
