                               Psi4 1.8.2 release

  ==> Input File <==

--------------------------------------------------------------------------
MEMORY 60 GB

molecule dimer {
0 1
Gh(Cl)     0.000000     0.000000     0.000000
Gh(O)      0.566870    -1.819815     2.698297
Gh(H)     -0.078974    -2.614193     2.791088
Gh(H)      0.377088    -1.191194     1.959657
Gh(O)      2.279576     1.369045    -2.090596
Gh(H)      1.885928     0.879649    -1.319566
Gh(H)      2.785146     0.699748    -2.546213
O         -0.408105    -3.449801    -0.045884
H         -0.491537    -2.483954    -0.136913
H         -1.054600    -3.756136    -0.690336
Gh(O)     -3.121446    -0.979678     0.008183
Gh(H)     -3.306620    -1.940481     0.152311
Gh(H)     -2.177854    -0.788117    -0.090022
Gh(O)     -1.054861     1.302381     3.016395
Gh(H)     -1.018792     0.388964     2.938793
Gh(H)     -0.449422     1.623404     2.330560

units ang
no_reorient
no_com
symmetry c1
}

set {
basis        aug-cc-pVTZ
scf_type     df
}

energy("mp2")
--------------------------------------------------------------------------

    Molecular point group: c1

    Geometry (in Angstrom), charge = 0, multiplicity = 1:

       Center              X                  Y                   Z               Mass
    ------------   -----------------  -----------------  -----------------  -----------------
      Gh(CL)          0.000000000000     0.000000000000     0.000000000000    34.968852682000
      Gh(O)           0.566870000000    -1.819815000000     2.698297000000    15.994914619570
      Gh(H)          -0.078974000000    -2.614193000000     2.791088000000     1.007825032230
      Gh(H)           0.377088000000    -1.191194000000     1.959657000000     1.007825032230
      Gh(O)           2.279576000000     1.369045000000    -2.090596000000    15.994914619570
      Gh(H)           1.885928000000     0.879649000000    -1.319566000000     1.007825032230
      Gh(H)           2.785146000000     0.699748000000    -2.546213000000     1.007825032230
         O           -0.408105000000    -3.449801000000    -0.045884000000    15.994914619570
         H           -0.491537000000    -2.483954000000    -0.136913000000     1.007825032230
         H           -1.054600000000    -3.756136000000    -0.690336000000     1.007825032230
      Gh(O)          -3.121446000000    -0.979678000000     0.008183000000    15.994914619570
      Gh(H)          -3.306620000000    -1.940481000000     0.152311000000     1.007825032230
      Gh(H)          -2.177854000000    -0.788117000000    -0.090022000000     1.007825032230
      Gh(O)          -1.054861000000     1.302381000000     3.016395000000    15.994914619570
      Gh(H)          -1.018792000000     0.388964000000     2.938793000000     1.007825032230
      Gh(H)          -0.449422000000     1.623404000000     2.330560000000     1.007825032230

  Charge       = 0
  Multiplicity = 1
  Basis Set: AUG-CC-PVTZ
    Blend: AUG-CC-PVTZ
  Basis Set: (AUG-CC-PVTZ AUX)
    Blend: AUG-CC-PVTZ-JKFIT

    Orbital Energies [Eh]
    ---------------------

    Doubly Occupied:

       1A    -20.570472     2A     -1.350248     3A     -0.705473
       4A     -0.589094     5A     -0.510400

  @DF-RHF Final Energy:   -76.05924622477741

   => Energetics <=

    Nuclear Repulsion Energy =              9.0978334521502493
    One-Electron Energy =                -122.8627832699155960
    Two-Electron Energy =                  37.7057035929879305
    Total Energy =                        -76.0592462247774108
 Dipole X            :          8.6129651           -9.0914289           -0.4784639
 Dipole Y            :         64.3758459          -63.9454937            0.4303521
 Dipole Z            :          1.7744699           -2.2569396           -0.4824697
 Magnitude           :                                                    0.8043057
  Basis Set: (AUG-CC-PVTZ AUX)
    Blend: AUG-CC-PVTZ-RI
	 Reference Energy          =     -76.0592462247774108 [Eh]
	 Singles Energy            =      -0.0000000000000000 [Eh]
	 Same-Spin Energy          =      -0.0686643916464174 [Eh]
	 Opposite-Spin Energy      =      -0.2165570615637574 [Eh]
	 Correlation Energy        =      -0.2852214532101748 [Eh]
	 Total Energy              =     -76.3444676779875806 [Eh]

	 ================> DF-SCS-MP2 Energies <==================
	-----------------------------------------------------------
	 SCS Same-Spin Scale       =       0.3333333333333333 [-]
	 SCS Opposite-Spin Scale   =       1.2000000000000000 [-]
	 SCS Same-Spin Energy      =      -0.0228881305488058 [Eh]
	 SCS Opposite-Spin Energy  =      -0.2598684738765089 [Eh]
	 SCS Correlation Energy    =      -0.2827566044253146 [Eh]
	 SCS Total Energy          =     -76.3420028292027268 [Eh]
	-----------------------------------------------------------

*** Psi4 exiting successfully. Buy a developer a beer!
