                               Psi4 1.8.2 release

  ==> Input File <==

--------------------------------------------------------------------------
MEMORY 60 GB

molecule dimer {
0 1
Gh(Cl)     0.000000     0.000000     0.000000
Gh(O)      1.176272    -2.652134     1.006030
Gh(H)      1.873466    -2.542158     1.713725
Gh(H)      0.639279    -1.844121     1.017799
Gh(O)      3.155492     0.183050    -0.179212
Gh(H)      2.426842    -0.396814    -0.177652
Gh(H)      2.953359     0.962596     0.365673
O         -1.682274    -0.690400    -2.903171
H         -1.247480    -0.704847    -2.001267
H         -2.042989    -1.552534    -3.117626
Gh(O)     -0.502562     2.885382     1.669906
Gh(H)     -0.735193     3.424883     0.886029
Gh(H)     -0.882051     2.032142     1.378365
Gh(O)      1.380074     2.285806    -1.974688
Gh(H)      0.729598     1.850939    -2.552618
Gh(H)      2.093496     1.644184    -1.762183
Gh(O)     -1.374052    -0.773625     2.691235
Gh(H)     -1.053332    -0.518274     1.803823
Gh(H)     -2.083565    -1.408779     2.593044

units ang
no_reorient
no_com
symmetry c1
}

set {
basis        aug-cc-pVTZ
scf_type     df
}

energy("mp2")
--------------------------------------------------------------------------

    Molecular point group: c1

    Geometry (in Angstrom), charge = 0, multiplicity = 1:

       Center              X                  Y                   Z               Mass
    ------------   -----------------  -----------------  -----------------  -----------------
      Gh(CL)          0.000000000000     0.000000000000     0.000000000000    34.968852682000
      Gh(O)           1.176272000000    -2.652134000000     1.006030000000    15.994914619570
      Gh(H)           1.873466000000    -2.542158000000     1.713725000000     1.007825032230
      Gh(H)           0.639279000000    -1.844121000000     1.017799000000     1.007825032230
      Gh(O)           3.155492000000     0.183050000000    -0.179212000000    15.994914619570
      Gh(H)           2.426842000000    -0.396814000000    -0.177652000000     1.007825032230
      Gh(H)           2.953359000000     0.962596000000     0.365673000000     1.007825032230
         O           -1.682274000000    -0.690400000000    -2.903171000000    15.994914619570
         H           -1.247480000000    -0.704847000000    -2.001267000000     1.007825032230
         H           -2.042989000000    -1.552534000000    -3.117626000000     1.007825032230
      Gh(O)          -0.502562000000     2.885382000000     1.669906000000    15.994914619570
      Gh(H)          -0.735193000000     3.424883000000     0.886029000000     1.007825032230
      Gh(H)          -0.882051000000     2.032142000000     1.378365000000     1.007825032230
      Gh(O)           1.380074000000     2.285806000000    -1.974688000000    15.994914619570
      Gh(H)           0.729598000000     1.850939000000    -2.552618000000     1.007825032230
      Gh(H)           2.093496000000     1.644184000000    -1.762183000000     1.007825032230
      Gh(O)          -1.374052000000    -0.773625000000     2.691235000000    15.994914619570
      Gh(H)          -1.053332000000    -0.518274000000     1.803823000000     1.007825032230
      Gh(H)          -2.083565000000    -1.408779000000     2.593044000000     1.007825032230

  Charge       = 0
  Multiplicity = 1
  Basis Set: AUG-CC-PVTZ
    Blend: AUG-CC-PVTZ
  Basis Set: (AUG-CC-PVTZ AUX)
    Blend: AUG-CC-PVTZ-JKFIT

    Orbital Energies [Eh]
    ---------------------

    Doubly Occupied:

       1A    -20.568162     2A     -1.338420     3A     -0.716396
       4A     -0.568738     5A     -0.506627

  @DF-RHF Final Energy:   -76.05659118442988

   => Energetics <=

    Nuclear Repulsion Energy =              8.9712020959847507
    One-Electron Energy =                -122.6588982969180819
    Two-Electron Energy =                  37.6311050165034544
    Total Energy =                        -76.0565911844298768
 Dipole X            :         31.6970195          -31.6503823            0.0466372
 Dipole Y            :         14.1137504          -14.7031672           -0.5894168
 Dipole Z            :         54.0186488          -53.5628905            0.4557583
 Magnitude           :                                                    0.7465272
  Basis Set: (AUG-CC-PVTZ AUX)
    Blend: AUG-CC-PVTZ-RI
	 Reference Energy          =     -76.0565911844298768 [Eh]
	 Singles Energy            =      -0.0000000000000000 [Eh]
	 Same-Spin Energy          =      -0.0686939089322819 [Eh]
	 Opposite-Spin Energy      =      -0.2165695665801488 [Eh]
	 Correlation Energy        =      -0.2852634755124307 [Eh]
	 Total Energy              =     -76.3418546599423138 [Eh]

	 ================> DF-SCS-MP2 Energies <==================
	-----------------------------------------------------------
	 SCS Same-Spin Scale       =       0.3333333333333333 [-]
	 SCS Opposite-Spin Scale   =       1.2000000000000000 [-]
	 SCS Same-Spin Energy      =      -0.0228979696440940 [Eh]
	 SCS Opposite-Spin Energy  =      -0.2598834798961786 [Eh]
	 SCS Correlation Energy    =      -0.2827814495402726 [Eh]
	 SCS Total Energy          =     -76.3393726339701431 [Eh]
	-----------------------------------------------------------

*** Psi4 exiting successfully. Buy a developer a beer!
