                               Psi4 1.8.2 release

  ==> Input File <==

--------------------------------------------------------------------------
MEMORY 60 GB

molecule dimer {
0 1
Gh(Cl)     0.000000     0.000000     0.000000
Gh(O)     -0.769529    -2.966252     1.114406
Gh(H)     -0.491011    -2.049040     1.060829
Gh(H)     -0.099668    -3.431801     1.746687
Gh(O)     -2.572451     0.785674     2.137195
Gh(H)     -2.971007    -0.007188     2.353863
Gh(H)     -1.967522     0.455536     1.391827
O          0.248544     0.677850     3.199615
H          0.085963     0.586761     2.244952
H          0.904498     1.336920     3.314940
Gh(O)      1.375017     2.839319     0.546590
Gh(H)      0.925526     1.985155     0.440289
Gh(H)      1.962844     2.854615    -0.199516
Gh(O)      2.555530    -2.187632     0.855224
Gh(H)      2.277326    -2.669991     1.647633
Gh(H)      1.863637    -1.523641     0.765483

units ang
no_reorient
no_com
symmetry c1
}

set {
basis        aug-cc-pVTZ
scf_type     df
}

energy("mp2")
--------------------------------------------------------------------------

    Molecular point group: c1

    Geometry (in Angstrom), charge = 0, multiplicity = 1:

       Center              X                  Y                   Z               Mass
    ------------   -----------------  -----------------  -----------------  -----------------
      Gh(CL)          0.000000000000     0.000000000000     0.000000000000    34.968852682000
      Gh(O)          -0.769529000000    -2.966252000000     1.114406000000    15.994914619570
      Gh(H)          -0.491011000000    -2.049040000000     1.060829000000     1.007825032230
      Gh(H)          -0.099668000000    -3.431801000000     1.746687000000     1.007825032230
      Gh(O)          -2.572451000000     0.785674000000     2.137195000000    15.994914619570
      Gh(H)          -2.971007000000    -0.007188000000     2.353863000000     1.007825032230
      Gh(H)          -1.967522000000     0.455536000000     1.391827000000     1.007825032230
         O            0.248544000000     0.677850000000     3.199615000000    15.994914619570
         H            0.085963000000     0.586761000000     2.244952000000     1.007825032230
         H            0.904498000000     1.336920000000     3.314940000000     1.007825032230
      Gh(O)           1.375017000000     2.839319000000     0.546590000000    15.994914619570
      Gh(H)           0.925526000000     1.985155000000     0.440289000000     1.007825032230
      Gh(H)           1.962844000000     2.854615000000    -0.199516000000     1.007825032230
      Gh(O)           2.555530000000    -2.187632000000     0.855224000000    15.994914619570
      Gh(H)           2.277326000000    -2.669991000000     1.647633000000     1.007825032230
      Gh(H)           1.863637000000    -1.523641000000     0.765483000000     1.007825032230

  Charge       = 0
  Multiplicity = 1
  Basis Set: AUG-CC-PVTZ
    Blend: AUG-CC-PVTZ
  Basis Set: (AUG-CC-PVTZ AUX)
    Blend: AUG-CC-PVTZ-JKFIT

    Orbital Energies [Eh]
    ---------------------

    Doubly Occupied:

       1A    -20.565201     2A     -1.352828     3A     -0.725240
       4A     -0.579056     5A     -0.509622

  @DF-RHF Final Energy:   -76.06014517711728

   => Energetics <=

    Nuclear Repulsion Energy =              9.2136060368180530
    One-Electron Energy =                -123.0836065905708523
    Two-Electron Energy =                  37.8098553766355252
    Total Energy =                        -76.0601451771172776
 Dipole X            :         -5.2942167            5.6291407            0.3349241
 Dipole Y            :        -13.4977635           13.8828371            0.3850735
 Dipole Z            :        -59.4390788           58.8778416           -0.5612372
 Magnitude           :                                                    0.7585796
  Basis Set: (AUG-CC-PVTZ AUX)
    Blend: AUG-CC-PVTZ-RI
	 Reference Energy          =     -76.0601451771172776 [Eh]
	 Singles Energy            =      -0.0000000000000000 [Eh]
	 Same-Spin Energy          =      -0.0683143714512850 [Eh]
	 Opposite-Spin Energy      =      -0.2156991176598272 [Eh]
	 Correlation Energy        =      -0.2840134891111121 [Eh]
	 Total Energy              =     -76.3441586662283953 [Eh]

	 ================> DF-SCS-MP2 Energies <==================
	-----------------------------------------------------------
	 SCS Same-Spin Scale       =       0.3333333333333333 [-]
	 SCS Opposite-Spin Scale   =       1.2000000000000000 [-]
	 SCS Same-Spin Energy      =      -0.0227714571504283 [Eh]
	 SCS Opposite-Spin Energy  =      -0.2588389411917926 [Eh]
	 SCS Correlation Energy    =      -0.2816103983422209 [Eh]
	 SCS Total Energy          =     -76.3417555754595014 [Eh]
	-----------------------------------------------------------

*** Psi4 exiting successfully. Buy a developer a beer!
