                               Psi4 1.8.2 release

  ==> Input File <==

--------------------------------------------------------------------------
MEMORY 60 GB

molecule dimer {
-1 1
Cl         0.000000     0.000000     0.000000
O         -2.053684     2.304311     0.217814
H         -1.456383     2.956946     0.610925
H         -1.443301     1.666290    -0.182013
O          2.189604     1.887725    -1.286451
H          1.490313     1.304328    -0.911948
H          2.485988     1.522653    -2.115611
O          1.794090    -2.315229    -1.369329
H          1.050639    -2.681183    -1.877896
H          1.473504    -1.592214    -0.862287
O         -1.373675     0.424170    -2.840394
H         -0.768222     0.275953    -3.546434
H         -0.987035     0.245546    -1.972930

units ang
no_reorient
no_com
symmetry c1
}

set {
basis        aug-cc-pVTZ
scf_type     df
}

energy("mp2")
--------------------------------------------------------------------------

    Molecular point group: c1

    Geometry (in Angstrom), charge = -1, multiplicity = 1:

       Center              X                  Y                   Z               Mass
    ------------   -----------------  -----------------  -----------------  -----------------
         CL           0.000000000000     0.000000000000     0.000000000000    34.968852682000
         O           -2.053684000000     2.304311000000     0.217814000000    15.994914619570
         H           -1.456383000000     2.956946000000     0.610925000000     1.007825032230
         H           -1.443301000000     1.666290000000    -0.182013000000     1.007825032230
         O            2.189604000000     1.887725000000    -1.286451000000    15.994914619570
         H            1.490313000000     1.304328000000    -0.911948000000     1.007825032230
         H            2.485988000000     1.522653000000    -2.115611000000     1.007825032230
         O            1.794090000000    -2.315229000000    -1.369329000000    15.994914619570
         H            1.050639000000    -2.681183000000    -1.877896000000     1.007825032230
         H            1.473504000000    -1.592214000000    -0.862287000000     1.007825032230
         O           -1.373675000000     0.424170000000    -2.840394000000    15.994914619570
         H           -0.768222000000     0.275953000000    -3.546434000000     1.007825032230
         H           -0.987035000000     0.245546000000    -1.972930000000     1.007825032230

  Charge       = -1
  Multiplicity = 1
  Basis Set: AUG-CC-PVTZ
    Blend: AUG-CC-PVTZ
  Basis Set: (AUG-CC-PVTZ AUX)
    Blend: AUG-CC-PVTZ-JKFIT

    Orbital Energies [Eh]
    ---------------------

    Doubly Occupied:

       1A   -104.586127     2A    -20.418191     3A    -20.408722
       4A    -20.407932     5A    -20.401451     6A    -10.311837
       7A     -7.777923     8A     -7.777874     9A     -7.777842
      10A     -1.207555    11A     -1.199914    12A     -1.190525
      13A     -1.184811    14A     -0.833799    15A     -0.586956
      16A     -0.582252    17A     -0.566925    18A     -0.546302
      19A     -0.439729    20A     -0.427807    21A     -0.426531
      22A     -0.422756    23A     -0.366625    24A     -0.359468
      25A     -0.353715    26A     -0.346892    27A     -0.243799
      28A     -0.241354    29A     -0.240206

  @DF-RHF Final Energy:  -763.86552244478946

   => Energetics <=

    Nuclear Repulsion Energy =            227.7407085379022931
    One-Electron Energy =               -1519.9408221943572244
    Two-Electron Energy =                 528.3345912116654972
    Total Energy =                       -763.8655224447894625
 Dipole X            :        -11.5510839           11.8980615            0.3469776
 Dipole Y            :        -42.6989947           41.7745408           -0.9244539
 Dipole Z            :        100.8583296         -100.3162512            0.5420783
 Magnitude           :                                                    1.1264357
  Basis Set: (AUG-CC-PVTZ AUX)
    Blend: AUG-CC-PVTZ-RI
	 Reference Energy          =    -763.8655224447894625 [Eh]
	 Singles Energy            =      -0.0000000000000000 [Eh]
	 Same-Spin Energy          =      -0.3467449183270733 [Eh]
	 Opposite-Spin Energy      =      -1.0546618222312716 [Eh]
	 Correlation Energy        =      -1.4014067405583448 [Eh]
	 Total Energy              =    -765.2669291853478626 [Eh]

	 ================> DF-SCS-MP2 Energies <==================
	-----------------------------------------------------------
	 SCS Same-Spin Scale       =       0.3333333333333333 [-]
	 SCS Opposite-Spin Scale   =       1.2000000000000000 [-]
	 SCS Same-Spin Energy      =      -0.1155816394423577 [Eh]
	 SCS Opposite-Spin Energy  =      -1.2655941866775258 [Eh]
	 SCS Correlation Energy    =      -1.3811758261198834 [Eh]
	 SCS Total Energy          =    -765.2466982709092918 [Eh]
	-----------------------------------------------------------

*** Psi4 exiting successfully. Buy a developer a beer!
