                               Psi4 1.8.2 release

  ==> Input File <==

--------------------------------------------------------------------------
MEMORY 60 GB

molecule dimer {
0 1
Gh(Cl)     0.000000     0.000000     0.000000
Gh(O)     -1.574485    -1.388937    -2.457758
Gh(H)     -1.317235    -0.940408    -1.655788
Gh(H)     -0.953383    -2.128561    -2.491628
Gh(O)      1.040796     3.218040    -0.206438
Gh(H)      1.331961     2.595955     0.466511
Gh(H)      1.503828     2.878531    -0.981858
Gh(O)      1.627090    -0.479667     2.866522
Gh(H)      2.163509     0.349331     2.829028
Gh(H)      0.905208    -0.350725     2.192300
Gh(O)     -2.718709    -1.072812     1.625741
Gh(H)     -2.618297    -0.589436     2.466084
Gh(H)     -1.916153    -0.782770     1.183766
Gh(O)      0.257603    -3.266791     0.337367
Gh(H)     -0.476299    -3.510657     0.988196
Gh(H)      0.110478    -2.308356     0.242427
O          1.489698     0.001930    -3.063037
H          0.983789     0.084810    -2.249346
H          1.838570    -0.877214    -3.177410

units ang
no_reorient
no_com
symmetry c1
}

set {
basis        aug-cc-pVTZ
scf_type     df
}

energy("mp2")
--------------------------------------------------------------------------

    Molecular point group: c1

    Geometry (in Angstrom), charge = 0, multiplicity = 1:

       Center              X                  Y                   Z               Mass
    ------------   -----------------  -----------------  -----------------  -----------------
      Gh(CL)          0.000000000000     0.000000000000     0.000000000000    34.968852682000
      Gh(O)          -1.574485000000    -1.388937000000    -2.457758000000    15.994914619570
      Gh(H)          -1.317235000000    -0.940408000000    -1.655788000000     1.007825032230
      Gh(H)          -0.953383000000    -2.128561000000    -2.491628000000     1.007825032230
      Gh(O)           1.040796000000     3.218040000000    -0.206438000000    15.994914619570
      Gh(H)           1.331961000000     2.595955000000     0.466511000000     1.007825032230
      Gh(H)           1.503828000000     2.878531000000    -0.981858000000     1.007825032230
      Gh(O)           1.627090000000    -0.479667000000     2.866522000000    15.994914619570
      Gh(H)           2.163509000000     0.349331000000     2.829028000000     1.007825032230
      Gh(H)           0.905208000000    -0.350725000000     2.192300000000     1.007825032230
      Gh(O)          -2.718709000000    -1.072812000000     1.625741000000    15.994914619570
      Gh(H)          -2.618297000000    -0.589436000000     2.466084000000     1.007825032230
      Gh(H)          -1.916153000000    -0.782770000000     1.183766000000     1.007825032230
      Gh(O)           0.257603000000    -3.266791000000     0.337367000000    15.994914619570
      Gh(H)          -0.476299000000    -3.510657000000     0.988196000000     1.007825032230
      Gh(H)           0.110478000000    -2.308356000000     0.242427000000     1.007825032230
         O            1.489698000000     0.001930000000    -3.063037000000    15.994914619570
         H            0.983789000000     0.084810000000    -2.249346000000     1.007825032230
         H            1.838570000000    -0.877214000000    -3.177410000000     1.007825032230

  Charge       = 0
  Multiplicity = 1
  Basis Set: AUG-CC-PVTZ
    Blend: AUG-CC-PVTZ
  Basis Set: (AUG-CC-PVTZ AUX)
    Blend: AUG-CC-PVTZ-JKFIT

    Orbital Energies [Eh]
    ---------------------

    Doubly Occupied:

       1A    -20.563697     2A     -1.348386     3A     -0.731500
       4A     -0.570491     5A     -0.508095

  @DF-RHF Final Energy:   -76.05970174167703

   => Energetics <=

    Nuclear Repulsion Energy =              9.1789193944811664
    One-Electron Energy =                -123.0329006093369770
    Two-Electron Energy =                  37.7942794731787757
    Total Energy =                        -76.0597017416770314
 Dipole X            :        -27.9608985           27.8544554           -0.1064431
 Dipole Y            :          0.9252637           -1.4682492           -0.5429855
 Dipole Z            :         57.0372419          -56.5614909            0.4757510
 Magnitude           :                                                    0.7297276
  Basis Set: (AUG-CC-PVTZ AUX)
    Blend: AUG-CC-PVTZ-RI
	 Reference Energy          =     -76.0597017416770314 [Eh]
	 Singles Energy            =      -0.0000000000000000 [Eh]
	 Same-Spin Energy          =      -0.0683124108430271 [Eh]
	 Opposite-Spin Energy      =      -0.2156048463701025 [Eh]
	 Correlation Energy        =      -0.2839172572131297 [Eh]
	 Total Energy              =     -76.3436189988901646 [Eh]

	 ================> DF-SCS-MP2 Energies <==================
	-----------------------------------------------------------
	 SCS Same-Spin Scale       =       0.3333333333333333 [-]
	 SCS Opposite-Spin Scale   =       1.2000000000000000 [-]
	 SCS Same-Spin Energy      =      -0.0227708036143424 [Eh]
	 SCS Opposite-Spin Energy  =      -0.2587258156441231 [Eh]
	 SCS Correlation Energy    =      -0.2814966192584654 [Eh]
	 SCS Total Energy          =     -76.3411983609354934 [Eh]
	-----------------------------------------------------------

*** Psi4 exiting successfully. Buy a developer a beer!
