                               Psi4 1.8.2 release

  ==> Input File <==

--------------------------------------------------------------------------
MEMORY 60 GB

molecule dimer {
0 1
Gh(Cl)     0.000000     0.000000     0.000000
Gh(O)      0.024502     3.145214    -1.100846
Gh(H)     -0.079884     2.231023    -0.803905
Gh(H)     -0.839084     3.515903    -1.288931
Gh(O)     -3.198150     0.573138    -0.927404
Gh(H)     -2.286936     0.664904    -0.721780
Gh(H)     -3.628705     0.671446    -0.059234
Gh(O)     -0.392662    -2.420613    -2.381684
Gh(H)     -0.078206    -1.721059    -1.745198
Gh(H)      0.148491    -2.349436    -3.168547
Gh(O)     -0.516218     0.741767    -3.194309
Gh(H)      0.316690     0.901052    -3.635347
Gh(H)     -0.443624     0.828168    -2.261763
O         -1.018909     1.789826     2.097121
H         -0.949530     2.709738     1.735634
H         -0.639964     1.169711     1.486154
Gh(O)      2.936787     0.437537     1.380431
Gh(H)      2.845975    -0.128141     2.146149
Gh(H)      2.378137     0.108698     0.647245

units ang
no_reorient
no_com
symmetry c1
}

set {
basis        aug-cc-pVTZ
scf_type     df
}

energy("mp2")
--------------------------------------------------------------------------

    Molecular point group: c1

    Geometry (in Angstrom), charge = 0, multiplicity = 1:

       Center              X                  Y                   Z               Mass
    ------------   -----------------  -----------------  -----------------  -----------------
      Gh(CL)          0.000000000000     0.000000000000     0.000000000000    34.968852682000
      Gh(O)           0.024502000000     3.145214000000    -1.100846000000    15.994914619570
      Gh(H)          -0.079884000000     2.231023000000    -0.803905000000     1.007825032230
      Gh(H)          -0.839084000000     3.515903000000    -1.288931000000     1.007825032230
      Gh(O)          -3.198150000000     0.573138000000    -0.927404000000    15.994914619570
      Gh(H)          -2.286936000000     0.664904000000    -0.721780000000     1.007825032230
      Gh(H)          -3.628705000000     0.671446000000    -0.059234000000     1.007825032230
      Gh(O)          -0.392662000000    -2.420613000000    -2.381684000000    15.994914619570
      Gh(H)          -0.078206000000    -1.721059000000    -1.745198000000     1.007825032230
      Gh(H)           0.148491000000    -2.349436000000    -3.168547000000     1.007825032230
      Gh(O)          -0.516218000000     0.741767000000    -3.194309000000    15.994914619570
      Gh(H)           0.316690000000     0.901052000000    -3.635347000000     1.007825032230
      Gh(H)          -0.443624000000     0.828168000000    -2.261763000000     1.007825032230
         O           -1.018909000000     1.789826000000     2.097121000000    15.994914619570
         H           -0.949530000000     2.709738000000     1.735634000000     1.007825032230
         H           -0.639964000000     1.169711000000     1.486154000000     1.007825032230
      Gh(O)           2.936787000000     0.437537000000     1.380431000000    15.994914619570
      Gh(H)           2.845975000000    -0.128141000000     2.146149000000     1.007825032230
      Gh(H)           2.378137000000     0.108698000000     0.647245000000     1.007825032230

  Charge       = 0
  Multiplicity = 1
  Basis Set: AUG-CC-PVTZ
    Blend: AUG-CC-PVTZ
  Basis Set: (AUG-CC-PVTZ AUX)
    Blend: AUG-CC-PVTZ-JKFIT

    Orbital Energies [Eh]
    ---------------------

    Doubly Occupied:

       1A    -20.566670     2A     -1.343538     3A     -0.721037
       4A     -0.571506     5A     -0.507585

  @DF-RHF Final Energy:   -76.05818202167218

   => Energetics <=

    Nuclear Repulsion Energy =              9.0642387183954352
    One-Electron Energy =                -122.8241656877041095
    Two-Electron Energy =                  37.7017449476364988
    Total Energy =                        -76.0581820216721809
 Dipole X            :         18.7097279          -18.4073800            0.3023479
 Dipole Y            :        -34.1942000           34.3893437            0.1951437
 Dipole Z            :        -38.4460343           37.7921717           -0.6538626
 Magnitude           :                                                    0.7463455
  Basis Set: (AUG-CC-PVTZ AUX)
    Blend: AUG-CC-PVTZ-RI
	 Reference Energy          =     -76.0581820216721809 [Eh]
	 Singles Energy            =      -0.0000000000000000 [Eh]
	 Same-Spin Energy          =      -0.0685564609169790 [Eh]
	 Opposite-Spin Energy      =      -0.2166052561392349 [Eh]
	 Correlation Energy        =      -0.2851617170562139 [Eh]
	 Total Energy              =     -76.3433437387283931 [Eh]

	 ================> DF-SCS-MP2 Energies <==================
	-----------------------------------------------------------
	 SCS Same-Spin Scale       =       0.3333333333333333 [-]
	 SCS Opposite-Spin Scale   =       1.2000000000000000 [-]
	 SCS Same-Spin Energy      =      -0.0228521536389930 [Eh]
	 SCS Opposite-Spin Energy  =      -0.2599263073670818 [Eh]
	 SCS Correlation Energy    =      -0.2827784610060748 [Eh]
	 SCS Total Energy          =     -76.3409604826782555 [Eh]
	-----------------------------------------------------------

*** Psi4 exiting successfully. Buy a developer a beer!
