                               Psi4 1.8.2 release

  ==> Input File <==

--------------------------------------------------------------------------
MEMORY 60 GB

molecule dimer {
0 1
Gh(Cl)     0.000000     0.000000     0.000000
Gh(O)      2.039085    -2.462644     0.200988
Gh(H)      1.844667    -1.848434    -0.539502
Gh(H)      2.791815    -2.941769    -0.104662
Gh(O)      2.498699     1.474611    -1.093244
Gh(H)      2.371003     1.199564    -1.994894
Gh(H)      1.745902     1.188647    -0.615483
Gh(O)      2.394840    -0.079249     2.053779
Gh(H)      1.775513     0.099764     2.735700
Gh(H)      1.874464    -0.207619     1.256205
O         -0.383324     2.887532     1.419545
H         -0.168626     2.055517     0.996479
H          0.449266     3.337289     1.431516
Gh(O)     -2.136232     0.804329    -2.001926
Gh(H)     -2.664027     1.566950    -2.332419
Gh(H)     -1.432285     1.115994    -1.486120

units ang
no_reorient
no_com
symmetry c1
}

set {
basis        aug-cc-pVTZ
scf_type     df
}

energy("mp2")
--------------------------------------------------------------------------

    Molecular point group: c1

    Geometry (in Angstrom), charge = 0, multiplicity = 1:

       Center              X                  Y                   Z               Mass
    ------------   -----------------  -----------------  -----------------  -----------------
      Gh(CL)          0.000000000000     0.000000000000     0.000000000000    34.968852682000
      Gh(O)           2.039085000000    -2.462644000000     0.200988000000    15.994914619570
      Gh(H)           1.844667000000    -1.848434000000    -0.539502000000     1.007825032230
      Gh(H)           2.791815000000    -2.941769000000    -0.104662000000     1.007825032230
      Gh(O)           2.498699000000     1.474611000000    -1.093244000000    15.994914619570
      Gh(H)           2.371003000000     1.199564000000    -1.994894000000     1.007825032230
      Gh(H)           1.745902000000     1.188647000000    -0.615483000000     1.007825032230
      Gh(O)           2.394840000000    -0.079249000000     2.053779000000    15.994914619570
      Gh(H)           1.775513000000     0.099764000000     2.735700000000     1.007825032230
      Gh(H)           1.874464000000    -0.207619000000     1.256205000000     1.007825032230
         O           -0.383324000000     2.887532000000     1.419545000000    15.994914619570
         H           -0.168626000000     2.055517000000     0.996479000000     1.007825032230
         H            0.449266000000     3.337289000000     1.431516000000     1.007825032230
      Gh(O)          -2.136232000000     0.804329000000    -2.001926000000    15.994914619570
      Gh(H)          -2.664027000000     1.566950000000    -2.332419000000     1.007825032230
      Gh(H)          -1.432285000000     1.115994000000    -1.486120000000     1.007825032230

  Charge       = 0
  Multiplicity = 1
  Basis Set: AUG-CC-PVTZ
    Blend: AUG-CC-PVTZ
  Basis Set: (AUG-CC-PVTZ AUX)
    Blend: AUG-CC-PVTZ-JKFIT

    Orbital Energies [Eh]
    ---------------------

    Doubly Occupied:

       1A    -20.566948     2A     -1.357545     3A     -0.717192
       4A     -0.589288     5A     -0.511268

  @DF-RHF Final Energy:   -76.06068404048357

   => Energetics <=

    Nuclear Repulsion Energy =              9.2489918607923585
    One-Electron Energy =                -123.1348667400558696
    Two-Electron Energy =                  37.8251908387799460
    Total Energy =                        -76.0606840404835651
 Dipole X            :          5.9611022           -5.2646863            0.6964160
 Dipole Y            :        -54.0964987           53.8440837           -0.2524151
 Dipole Z            :        -26.3212199           26.0486558           -0.2725641
 Magnitude           :                                                    0.7893033
  Basis Set: (AUG-CC-PVTZ AUX)
    Blend: AUG-CC-PVTZ-RI
	 Reference Energy          =     -76.0606840404835651 [Eh]
	 Singles Energy            =      -0.0000000000000000 [Eh]
	 Same-Spin Energy          =      -0.0683373299416935 [Eh]
	 Opposite-Spin Energy      =      -0.2157507500398974 [Eh]
	 Correlation Energy        =      -0.2840880799815908 [Eh]
	 Total Energy              =     -76.3447721204651515 [Eh]

	 ================> DF-SCS-MP2 Energies <==================
	-----------------------------------------------------------
	 SCS Same-Spin Scale       =       0.3333333333333333 [-]
	 SCS Opposite-Spin Scale   =       1.2000000000000000 [-]
	 SCS Same-Spin Energy      =      -0.0227791099805645 [Eh]
	 SCS Opposite-Spin Energy  =      -0.2589009000478768 [Eh]
	 SCS Correlation Energy    =      -0.2816800100284413 [Eh]
	 SCS Total Energy          =     -76.3423640505120034 [Eh]
	-----------------------------------------------------------

*** Psi4 exiting successfully. Buy a developer a beer!
