                               Psi4 1.8.2 release

  ==> Input File <==

--------------------------------------------------------------------------
MEMORY 60 GB

molecule dimer {
-1 1
Cl         0.000000     0.000000     0.000000
Gh(O)      0.492480     2.119925     2.296583
Gh(H)      1.238518     2.643439     2.041108
Gh(H)      0.428501     1.470490     1.595291
Gh(O)      1.846097    -0.277742    -2.537849
Gh(H)      1.865917     0.411947    -1.809728
Gh(H)      2.620355    -0.119265    -3.081945
Gh(O)      3.187083    -0.808910     0.753096
Gh(H)      3.837814    -1.275304     0.218624
Gh(H)      2.304602    -0.967605     0.432768
Gh(O)      0.003568    -2.530042     1.974166
Gh(H)      0.083099    -2.248155     2.894335
Gh(H)     -0.019839    -1.660895     1.441275
Gh(O)     -3.021706     1.403988     0.981928
Gh(H)     -3.587380     0.629525     1.177356
Gh(H)     -2.182889     0.987880     0.753889

units ang
no_reorient
no_com
symmetry c1
}

set {
basis        aug-cc-pVTZ
scf_type     df
}

energy("mp2")
--------------------------------------------------------------------------

    Molecular point group: c1

    Geometry (in Angstrom), charge = -1, multiplicity = 1:

       Center              X                  Y                   Z               Mass
    ------------   -----------------  -----------------  -----------------  -----------------
         CL           0.000000000000     0.000000000000     0.000000000000    34.968852682000
      Gh(O)           0.492480000000     2.119925000000     2.296583000000    15.994914619570
      Gh(H)           1.238518000000     2.643439000000     2.041108000000     1.007825032230
      Gh(H)           0.428501000000     1.470490000000     1.595291000000     1.007825032230
      Gh(O)           1.846097000000    -0.277742000000    -2.537849000000    15.994914619570
      Gh(H)           1.865917000000     0.411947000000    -1.809728000000     1.007825032230
      Gh(H)           2.620355000000    -0.119265000000    -3.081945000000     1.007825032230
      Gh(O)           3.187083000000    -0.808910000000     0.753096000000    15.994914619570
      Gh(H)           3.837814000000    -1.275304000000     0.218624000000     1.007825032230
      Gh(H)           2.304602000000    -0.967605000000     0.432768000000     1.007825032230
      Gh(O)           0.003568000000    -2.530042000000     1.974166000000    15.994914619570
      Gh(H)           0.083099000000    -2.248155000000     2.894335000000     1.007825032230
      Gh(H)          -0.019839000000    -1.660895000000     1.441275000000     1.007825032230
      Gh(O)          -3.021706000000     1.403988000000     0.981928000000    15.994914619570
      Gh(H)          -3.587380000000     0.629525000000     1.177356000000     1.007825032230
      Gh(H)          -2.182889000000     0.987880000000     0.753889000000     1.007825032230

  Charge       = -1
  Multiplicity = 1
  Basis Set: AUG-CC-PVTZ
    Blend: AUG-CC-PVTZ
  Basis Set: (AUG-CC-PVTZ AUX)
    Blend: AUG-CC-PVTZ-JKFIT

    Orbital Energies [Eh]
    ---------------------

    Doubly Occupied:

       1A   -104.507259     2A    -10.230059     3A     -7.696123
       4A     -7.696112     5A     -7.696106     6A     -0.733465
       7A     -0.150311     8A     -0.150302     9A     -0.150298

  @DF-RHF Final Energy:  -459.57357546402159

   => Energetics <=

    Nuclear Repulsion Energy =              0.0000000000000000
    One-Electron Energy =                -641.1270948856014229
    Two-Electron Energy =                 181.5535194215798640
    Total Energy =                       -459.5735754640215873
 Dipole X            :          0.0000733            0.0000000            0.0000733
 Dipole Y            :          0.0000287            0.0000000            0.0000287
 Dipole Z            :          0.0004176            0.0000000            0.0004176
 Magnitude           :                                                    0.0004250
  Basis Set: (AUG-CC-PVTZ AUX)
    Blend: AUG-CC-PVTZ-RI
	 Reference Energy          =    -459.5735754640215873 [Eh]
	 Singles Energy            =      -0.0000000000000000 [Eh]
	 Same-Spin Energy          =      -0.0635098376800281 [Eh]
	 Opposite-Spin Energy      =      -0.1836480055656291 [Eh]
	 Correlation Energy        =      -0.2471578432456571 [Eh]
	 Total Energy              =    -459.8207333072672327 [Eh]

	 ================> DF-SCS-MP2 Energies <==================
	-----------------------------------------------------------
	 SCS Same-Spin Scale       =       0.3333333333333333 [-]
	 SCS Opposite-Spin Scale   =       1.2000000000000000 [-]
	 SCS Same-Spin Energy      =      -0.0211699458933427 [Eh]
	 SCS Opposite-Spin Energy  =      -0.2203776066787549 [Eh]
	 SCS Correlation Energy    =      -0.2415475525720976 [Eh]
	 SCS Total Energy          =    -459.8151230165937022 [Eh]
	-----------------------------------------------------------

*** Psi4 exiting successfully. Buy a developer a beer!
