                               Psi4 1.8.2 release

  ==> Input File <==

--------------------------------------------------------------------------
MEMORY 60 GB

molecule dimer {
0 1
Gh(Cl)     0.000000     0.000000     0.000000
Gh(O)      2.039085    -2.462644     0.200988
Gh(H)      1.844667    -1.848434    -0.539502
Gh(H)      2.791815    -2.941769    -0.104662
Gh(O)      2.498699     1.474611    -1.093244
Gh(H)      2.371003     1.199564    -1.994894
Gh(H)      1.745902     1.188647    -0.615483
Gh(O)      2.394840    -0.079249     2.053779
Gh(H)      1.775513     0.099764     2.735700
Gh(H)      1.874464    -0.207619     1.256205
Gh(O)     -0.383324     2.887532     1.419545
Gh(H)     -0.168626     2.055517     0.996479
Gh(H)      0.449266     3.337289     1.431516
O         -2.136232     0.804329    -2.001926
H         -2.664027     1.566950    -2.332419
H         -1.432285     1.115994    -1.486120

units ang
no_reorient
no_com
symmetry c1
}

set {
basis        aug-cc-pVTZ
scf_type     df
}

energy("mp2")
--------------------------------------------------------------------------

    Molecular point group: c1

    Geometry (in Angstrom), charge = 0, multiplicity = 1:

       Center              X                  Y                   Z               Mass
    ------------   -----------------  -----------------  -----------------  -----------------
      Gh(CL)          0.000000000000     0.000000000000     0.000000000000    34.968852682000
      Gh(O)           2.039085000000    -2.462644000000     0.200988000000    15.994914619570
      Gh(H)           1.844667000000    -1.848434000000    -0.539502000000     1.007825032230
      Gh(H)           2.791815000000    -2.941769000000    -0.104662000000     1.007825032230
      Gh(O)           2.498699000000     1.474611000000    -1.093244000000    15.994914619570
      Gh(H)           2.371003000000     1.199564000000    -1.994894000000     1.007825032230
      Gh(H)           1.745902000000     1.188647000000    -0.615483000000     1.007825032230
      Gh(O)           2.394840000000    -0.079249000000     2.053779000000    15.994914619570
      Gh(H)           1.775513000000     0.099764000000     2.735700000000     1.007825032230
      Gh(H)           1.874464000000    -0.207619000000     1.256205000000     1.007825032230
      Gh(O)          -0.383324000000     2.887532000000     1.419545000000    15.994914619570
      Gh(H)          -0.168626000000     2.055517000000     0.996479000000     1.007825032230
      Gh(H)           0.449266000000     3.337289000000     1.431516000000     1.007825032230
         O           -2.136232000000     0.804329000000    -2.001926000000    15.994914619570
         H           -2.664027000000     1.566950000000    -2.332419000000     1.007825032230
         H           -1.432285000000     1.115994000000    -1.486120000000     1.007825032230

  Charge       = 0
  Multiplicity = 1
  Basis Set: AUG-CC-PVTZ
    Blend: AUG-CC-PVTZ
  Basis Set: (AUG-CC-PVTZ AUX)
    Blend: AUG-CC-PVTZ-JKFIT

    Orbital Energies [Eh]
    ---------------------

    Doubly Occupied:

       1A    -20.564460     2A     -1.351730     3A     -0.728296
       4A     -0.575315     5A     -0.509078

  @DF-RHF Final Energy:   -76.05872876674864

   => Energetics <=

    Nuclear Repulsion Energy =              9.2071253359685130
    One-Electron Energy =                -123.0739464142492210
    Two-Electron Energy =                  37.8080923115320644
    Total Energy =                        -76.0587287667486436
 Dipole X            :         40.1623774          -40.0360552            0.1263223
 Dipole Y            :        -16.5046626           17.2297216            0.7250589
 Dipole Z            :         37.6109923          -37.4807278            0.1302645
 Magnitude           :                                                    0.7474200
  Basis Set: (AUG-CC-PVTZ AUX)
    Blend: AUG-CC-PVTZ-RI
	 Reference Energy          =     -76.0587287667486436 [Eh]
	 Singles Energy            =      -0.0000000000000000 [Eh]
	 Same-Spin Energy          =      -0.0682726808148131 [Eh]
	 Opposite-Spin Energy      =      -0.2152810624457844 [Eh]
	 Correlation Energy        =      -0.2835537432605975 [Eh]
	 Total Energy              =     -76.3422825100092410 [Eh]

	 ================> DF-SCS-MP2 Energies <==================
	-----------------------------------------------------------
	 SCS Same-Spin Scale       =       0.3333333333333333 [-]
	 SCS Opposite-Spin Scale   =       1.2000000000000000 [-]
	 SCS Same-Spin Energy      =      -0.0227575602716044 [Eh]
	 SCS Opposite-Spin Energy  =      -0.2583372749349413 [Eh]
	 SCS Correlation Energy    =      -0.2810948352065457 [Eh]
	 SCS Total Energy          =     -76.3398236019551888 [Eh]
	-----------------------------------------------------------

*** Psi4 exiting successfully. Buy a developer a beer!
