                               Psi4 1.8.2 release

  ==> Input File <==

--------------------------------------------------------------------------
MEMORY 60 GB

molecule dimer {
-1 1
Cl         0.000000     0.000000     0.000000
O         -2.041021    -2.196464    -1.333745
H         -1.300794    -2.029781    -0.728894
H         -2.698392    -2.708355    -0.840419
O          0.419223     0.084825    -3.085711
H         -0.280779     0.277678    -3.790691
H          0.077234     0.159042    -2.208543
O          3.090762    -0.717603    -0.627277
H          3.080613    -1.289849    -1.410804
H          2.118014    -0.454394    -0.575587
O          0.777671     3.142833     0.471574
H          1.633570     3.312266     0.051366
H          0.542632     2.198669     0.371825

units ang
no_reorient
no_com
symmetry c1
}

set {
basis        aug-cc-pVTZ
scf_type     df
}

energy("mp2")
--------------------------------------------------------------------------

    Molecular point group: c1

    Geometry (in Angstrom), charge = -1, multiplicity = 1:

       Center              X                  Y                   Z               Mass
    ------------   -----------------  -----------------  -----------------  -----------------
         CL           0.000000000000     0.000000000000     0.000000000000    34.968852682000
         O           -2.041021000000    -2.196464000000    -1.333745000000    15.994914619570
         H           -1.300794000000    -2.029781000000    -0.728894000000     1.007825032230
         H           -2.698392000000    -2.708355000000    -0.840419000000     1.007825032230
         O            0.419223000000     0.084825000000    -3.085711000000    15.994914619570
         H           -0.280779000000     0.277678000000    -3.790691000000     1.007825032230
         H            0.077234000000     0.159042000000    -2.208543000000     1.007825032230
         O            3.090762000000    -0.717603000000    -0.627277000000    15.994914619570
         H            3.080613000000    -1.289849000000    -1.410804000000     1.007825032230
         H            2.118014000000    -0.454394000000    -0.575587000000     1.007825032230
         O            0.777671000000     3.142833000000     0.471574000000    15.994914619570
         H            1.633570000000     3.312266000000     0.051366000000     1.007825032230
         H            0.542632000000     2.198669000000     0.371825000000     1.007825032230

  Charge       = -1
  Multiplicity = 1
  Basis Set: AUG-CC-PVTZ
    Blend: AUG-CC-PVTZ
  Basis Set: (AUG-CC-PVTZ AUX)
    Blend: AUG-CC-PVTZ-JKFIT

    Orbital Energies [Eh]
    ---------------------

    Doubly Occupied:

       1A   -104.574618     2A    -20.427245     3A    -20.406374
       4A    -20.404833     5A    -20.403286     6A    -10.299898
       7A     -7.765998     8A     -7.765987     9A     -7.765929
      10A     -1.206430    11A     -1.182618    12A     -1.181293
      13A     -1.174095    14A     -0.818821    15A     -0.576623
      16A     -0.565165    17A     -0.559878    18A     -0.528933
      19A     -0.440935    20A     -0.425959    21A     -0.417694
      22A     -0.411497    23A     -0.370206    24A     -0.350252
      25A     -0.348889    26A     -0.343385    27A     -0.231441
      28A     -0.229933    29A     -0.226803

  @DF-RHF Final Energy:  -763.85470602086866

   => Energetics <=

    Nuclear Repulsion Energy =            220.5791288622052946
    One-Electron Energy =               -1506.0576294694965327
    Two-Electron Energy =                 521.6237945864224912
    Total Energy =                       -763.8547060208686617
 Dipole X            :        -41.2087910           39.9585953           -1.2501957
 Dipole Y            :         -4.5753376            3.7303269           -0.8450106
 Dipole Z            :         86.9497331          -86.4228808            0.5268523
 Magnitude           :                                                    1.5983134
  Basis Set: (AUG-CC-PVTZ AUX)
    Blend: AUG-CC-PVTZ-RI
	 Reference Energy          =    -763.8547060208686617 [Eh]
	 Singles Energy            =      -0.0000000000000000 [Eh]
	 Same-Spin Energy          =      -0.3468218716195306 [Eh]
	 Opposite-Spin Energy      =      -1.0564415269788485 [Eh]
	 Correlation Energy        =      -1.4032633985983791 [Eh]
	 Total Energy              =    -765.2579694194670310 [Eh]

	 ================> DF-SCS-MP2 Energies <==================
	-----------------------------------------------------------
	 SCS Same-Spin Scale       =       0.3333333333333333 [-]
	 SCS Opposite-Spin Scale   =       1.2000000000000000 [-]
	 SCS Same-Spin Energy      =      -0.1156072905398435 [Eh]
	 SCS Opposite-Spin Energy  =      -1.2677298323746182 [Eh]
	 SCS Correlation Energy    =      -1.3833371229144618 [Eh]
	 SCS Total Energy          =    -765.2380431437831021 [Eh]
	-----------------------------------------------------------

*** Psi4 exiting successfully. Buy a developer a beer!
