                               Psi4 1.8.2 release

  ==> Input File <==

--------------------------------------------------------------------------
MEMORY 60 GB

molecule dimer {
0 1
Gh(Cl)     0.000000     0.000000     0.000000
Gh(O)     -3.038300     0.134622    -1.043661
Gh(H)     -3.193085    -0.817042    -1.081050
Gh(H)     -2.168895     0.204810    -0.622911
Gh(O)      0.823564     1.469194    -2.905263
Gh(H)      0.448094     2.356201    -2.904934
Gh(H)      0.575772     1.029626    -2.123683
Gh(O)      0.828626     1.168457     2.974264
Gh(H)      0.970257     2.138629     3.098186
Gh(H)      0.641650     1.018427     2.076444
Gh(O)     -0.318478    -2.578120     1.970563
Gh(H)     -0.430935    -1.762301     1.500686
Gh(H)      0.695700    -2.767996     1.959541
O         -0.851147     3.093003    -0.308058
H         -0.095872     3.522305     0.160168
H         -0.635313     2.177807    -0.311008

units ang
no_reorient
no_com
symmetry c1
}

set {
basis        aug-cc-pVTZ
scf_type     df
}

energy("mp2")
--------------------------------------------------------------------------

    Molecular point group: c1

    Geometry (in Angstrom), charge = 0, multiplicity = 1:

       Center              X                  Y                   Z               Mass
    ------------   -----------------  -----------------  -----------------  -----------------
      Gh(CL)          0.000000000000     0.000000000000     0.000000000000    34.968852682000
      Gh(O)          -3.038300000000     0.134622000000    -1.043661000000    15.994914619570
      Gh(H)          -3.193085000000    -0.817042000000    -1.081050000000     1.007825032230
      Gh(H)          -2.168895000000     0.204810000000    -0.622911000000     1.007825032230
      Gh(O)           0.823564000000     1.469194000000    -2.905263000000    15.994914619570
      Gh(H)           0.448094000000     2.356201000000    -2.904934000000     1.007825032230
      Gh(H)           0.575772000000     1.029626000000    -2.123683000000     1.007825032230
      Gh(O)           0.828626000000     1.168457000000     2.974264000000    15.994914619570
      Gh(H)           0.970257000000     2.138629000000     3.098186000000     1.007825032230
      Gh(H)           0.641650000000     1.018427000000     2.076444000000     1.007825032230
      Gh(O)          -0.318478000000    -2.578120000000     1.970563000000    15.994914619570
      Gh(H)          -0.430935000000    -1.762301000000     1.500686000000     1.007825032230
      Gh(H)           0.695700000000    -2.767996000000     1.959541000000     1.007825032230
         O           -0.851147000000     3.093003000000    -0.308058000000    15.994914619570
         H           -0.095872000000     3.522305000000     0.160168000000     1.007825032230
         H           -0.635313000000     2.177807000000    -0.311008000000     1.007825032230

  Charge       = 0
  Multiplicity = 1
  Basis Set: AUG-CC-PVTZ
    Blend: AUG-CC-PVTZ
  Basis Set: (AUG-CC-PVTZ AUX)
    Blend: AUG-CC-PVTZ-JKFIT

    Orbital Energies [Eh]
    ---------------------

    Doubly Occupied:

       1A    -20.568150     2A     -1.350838     3A     -0.714318
       4A     -0.583631     5A     -0.509878

  @DF-RHF Final Energy:   -76.05915603807264

   => Energetics <=

    Nuclear Repulsion Energy =              9.1391395151119266
    One-Electron Energy =                -122.9429574571614836
    Two-Electron Energy =                  37.7446619039769189
    Total Energy =                        -76.0591560380726435
 Dipole X            :         14.8897260          -14.2492172            0.6405089
 Dipole Y            :        -57.8605993           57.5310792           -0.3295201
 Dipole Z            :          5.2481319           -4.9422083            0.3059236
 Magnitude           :                                                    0.7825755
  Basis Set: (AUG-CC-PVTZ AUX)
    Blend: AUG-CC-PVTZ-RI
	 Reference Energy          =     -76.0591560380726435 [Eh]
	 Singles Energy            =      -0.0000000000000000 [Eh]
	 Same-Spin Energy          =      -0.0685110425080023 [Eh]
	 Opposite-Spin Energy      =      -0.2164248815415413 [Eh]
	 Correlation Energy        =      -0.2849359240495437 [Eh]
	 Total Energy              =     -76.3440919621221923 [Eh]

	 ================> DF-SCS-MP2 Energies <==================
	-----------------------------------------------------------
	 SCS Same-Spin Scale       =       0.3333333333333333 [-]
	 SCS Opposite-Spin Scale   =       1.2000000000000000 [-]
	 SCS Same-Spin Energy      =      -0.0228370141693341 [Eh]
	 SCS Opposite-Spin Energy  =      -0.2597098578498496 [Eh]
	 SCS Correlation Energy    =      -0.2825468720191837 [Eh]
	 SCS Total Energy          =     -76.3417029100918256 [Eh]
	-----------------------------------------------------------

*** Psi4 exiting successfully. Buy a developer a beer!
