                               Psi4 1.9 release

  ==> Input File <==

--------------------------------------------------------------------------
MEMORY 60 GB

molecule dimer {
-1 1
Cl     0.000000     0.000000     0.000000
--
0 1
O      1.897040     2.508472     0.302538
H      1.357854     1.760957     0.096876
H      1.821429     3.097428    -0.472561
O      1.468839    -2.859802     0.731682
H      0.736236    -2.305230     0.469404
H      1.608881    -2.605813     1.655215
O     -0.432860     1.202269     3.088280
H     -0.095501     0.925593     2.231419
H     -0.432197     2.174121     3.067087
O     -2.583472    -1.827415     0.818109
H     -3.021839    -1.220259     0.255210
H     -1.746720    -1.415553     1.142264
O     -2.492733     2.189682    -0.627088
H     -2.444094     2.136340    -1.579013
H     -2.056599     1.404262    -0.404676

units ang
no_reorient
no_com
symmetry c1
}

set {
basis        aug-cc-pVTZ
scf_type     df
}

energy("mp2", bsse_type="cp")
--------------------------------------------------------------------------

                               Psi4 1.9 release
    Molecular point group: c1
  Charge       = 0
  Multiplicity = 1
  Basis Set: AUG-CC-PVTZ
    Blend: AUG-CC-PVTZ
  Basis Set: (AUG-CC-PVTZ AUX)
    Blend: AUG-CC-PVTZ-JKFIT
  @DF-RHF Final Energy:  -380.29209243517499
    Total Energy =                       -380.2920924351749932
 Dipole X            :         40.4582881          -40.4742260           -0.0159378
 Dipole Y            :        -24.7367121           25.8089232            1.0722111
 Dipole Z            :        -78.8150363           77.4209323           -1.3941040
 Magnitude           :                                                    1.7588112
  Basis Set: (AUG-CC-PVTZ AUX)
    Blend: AUG-CC-PVTZ-RI
	 Reference Energy          =    -380.2920924351749932 [Eh]
	 Singles Energy            =      -0.0000000000000000 [Eh]
	 Same-Spin Energy          =      -0.3430648450640486 [Eh]
	 Opposite-Spin Energy      =      -1.0803590891247443 [Eh]
	 Correlation Energy        =      -1.4234239341887929 [Eh]
	 Total Energy              =    -381.7155163693637974 [Eh]
	 SCS Total Energy          =    -381.7028782904793616 [Eh]
                               Psi4 1.9 release
    Molecular point group: c1
  Multiplicity = 1
  Basis Set: AUG-CC-PVTZ
    Blend: AUG-CC-PVTZ
  Basis Set: (AUG-CC-PVTZ AUX)
    Blend: AUG-CC-PVTZ-JKFIT
  @DF-RHF Final Energy:  -459.57357121299339
    Total Energy =                       -459.5735712129933859
  Basis Set: (AUG-CC-PVTZ AUX)
	 Singles Energy            =      -0.0000000000000000 [Eh]
	 Same-Spin Energy          =      -0.0634214617931326 [Eh]
	 Opposite-Spin Energy      =      -0.1833275652248741 [Eh]
	 Correlation Energy        =      -0.2467490270180067 [Eh]
	 Total Energy              =    -459.8203202400113696 [Eh]
	 SCS Total Energy          =    -459.8147047785275845 [Eh]
                               Psi4 1.9 release
    Molecular point group: c1

    Geometry (in Bohr), charge = -1, multiplicity = 1:

       Center              X                  Y                   Z               Mass
    ------------   -----------------  -----------------  -----------------  -----------------
         CL           0.000000000000     0.000000000000     0.000000000000    34.968852682000
         O            3.584886049039     4.740325073379     0.571713962544    15.994914619570
         H            2.565972178357     3.327726448708     0.183069108130     1.007825032230
         H            3.442001966967     5.853290613325    -0.893010867572     1.007825032230
         O            2.775703432391    -5.404242553037     1.382678590927    15.994914619570
         H            1.391284403703    -4.356253356189     0.887045002194     1.007825032230
         H            3.040344458453    -4.924272904158     3.127903028750     1.007825032230
         O           -0.817986850666     2.271959139128     5.836003398729    15.994914619570
         H           -0.180470734707     1.749117273641     4.216770781143     1.007825032230
         H           -0.816733962244     4.108493253606     5.795954432952     1.007825032230
         O           -4.882054532789    -3.453313867554     1.546001950772    15.994914619570
         H           -5.710448105227    -2.305955312125     0.482277004478     1.007825032230
         H           -3.300822417860    -2.675007486070     2.158566122970     1.007825032230
         O           -4.710582673891     4.137899281845    -1.185024576561    15.994914619570
         H           -4.618668284875     4.037097510861    -2.983902118538     1.007825032230
         H           -3.886408859890     2.653670588388    -0.764726809546     1.007825032230

  Charge       = -1
  Multiplicity = 1
  Basis Set: AUG-CC-PVTZ
    Blend: AUG-CC-PVTZ
  Basis Set: (AUG-CC-PVTZ AUX)
    Blend: AUG-CC-PVTZ-JKFIT

    Orbital Energies [Eh]
    ---------------------

    Doubly Occupied:

       1A   -104.589727     2A    -20.433779     3A    -20.419460
       4A    -20.419003     5A    -20.418309     6A    -20.417944
       7A    -10.315041     8A     -7.781159     9A     -7.781112
      10A     -7.781089    11A     -1.235870    12A     -1.205711
      13A     -1.205608    14A     -1.204491    15A     -1.200420
      16A     -0.833667    17A     -0.587691    18A     -0.580687
      19A     -0.573199    20A     -0.568165    21A     -0.565620
      22A     -0.470863    23A     -0.445567    24A     -0.441950
      25A     -0.437809    26A     -0.435939    27A     -0.384187
      28A     -0.366657    29A     -0.365095    30A     -0.364733
      31A     -0.362627    32A     -0.246435    33A     -0.244547
      34A     -0.243261

  @DF-RHF Final Energy:  -839.93431202597139

   => Energetics <=

    Nuclear Repulsion Energy =            300.7381755591455317
    One-Electron Energy =               -1771.4901218003758459
    Two-Electron Energy =                 630.8176342152589768
    Total Energy =                       -839.9343120259713942
 Dipole X            :         40.6491739          -40.4742260            0.1749479
 Dipole Y            :        -24.9951563           25.8089232            0.8137669
 Dipole Z            :        -79.2296754           77.4209323           -1.8087431
 Magnitude           :                                                    1.9910738
  Basis Set: (AUG-CC-PVTZ AUX)
    Blend: AUG-CC-PVTZ-RI
	 Reference Energy          =    -839.9343120259713942 [Eh]
	 Singles Energy            =      -0.0000000000000000 [Eh]
	 Same-Spin Energy          =      -0.4143401606302555 [Eh]
	 Opposite-Spin Energy      =      -1.2688787061275573 [Eh]
	 Correlation Energy        =      -1.6832188667578127 [Eh]
	 Total Energy              =    -841.6175308927291780 [Eh]

	 ================> DF-SCS-MP2 Energies <==================
	-----------------------------------------------------------
	 SCS Same-Spin Scale       =       0.3333333333333333 [-]
	 SCS Opposite-Spin Scale   =       1.2000000000000000 [-]
	 SCS Same-Spin Energy      =      -0.1381133868767518 [Eh]
	 SCS Opposite-Spin Energy  =      -1.5226544473530688 [Eh]
	 SCS Correlation Energy    =      -1.6607678342298207 [Eh]
	 SCS Total Energy          =    -841.5950798602011673 [Eh]
	-----------------------------------------------------------

*** Psi4 exiting successfully. Buy a developer a beer!
