                               Psi4 1.8.2 release

  ==> Input File <==

--------------------------------------------------------------------------
MEMORY 60 GB

molecule dimer {
0 1
Gh(Cl)     0.000000     0.000000     0.000000
Gh(O)      1.407818     2.519133    -1.259393
Gh(H)      1.027117     2.592937    -2.117333
Gh(H)      0.994561     1.714342    -0.954582
Gh(O)      3.058161    -0.076353     0.562502
Gh(H)      2.147380     0.078030     0.450617
Gh(H)      3.076044    -0.918720     1.134947
Gh(O)      1.402074    -2.853236    -0.379833
Gh(H)      2.341986    -2.667971    -0.026692
Gh(H)      0.924122    -2.036659    -0.373298
O          1.041342     1.379260     2.538507
H          0.658961     0.767611     1.918648
H          0.313750     1.643816     3.141624
Gh(O)     -1.649480     2.733617     0.773527
Gh(H)     -0.887604     2.167739     0.492910
Gh(H)     -1.074723     3.432313     1.189528
Gh(O)     -1.197686    -2.589481     1.589581
Gh(H)     -1.610851    -2.489368     2.457896
Gh(H)     -0.710748    -1.803117     1.436687

units ang
no_reorient
no_com
symmetry c1
}

set {
basis        aug-cc-pVTZ
scf_type     df
}

energy("mp2")
--------------------------------------------------------------------------

    Molecular point group: c1

    Geometry (in Angstrom), charge = 0, multiplicity = 1:

       Center              X                  Y                   Z               Mass
    ------------   -----------------  -----------------  -----------------  -----------------
      Gh(CL)          0.000000000000     0.000000000000     0.000000000000    34.968852682000
      Gh(O)           1.407818000000     2.519133000000    -1.259393000000    15.994914619570
      Gh(H)           1.027117000000     2.592937000000    -2.117333000000     1.007825032230
      Gh(H)           0.994561000000     1.714342000000    -0.954582000000     1.007825032230
      Gh(O)           3.058161000000    -0.076353000000     0.562502000000    15.994914619570
      Gh(H)           2.147380000000     0.078030000000     0.450617000000     1.007825032230
      Gh(H)           3.076044000000    -0.918720000000     1.134947000000     1.007825032230
      Gh(O)           1.402074000000    -2.853236000000    -0.379833000000    15.994914619570
      Gh(H)           2.341986000000    -2.667971000000    -0.026692000000     1.007825032230
      Gh(H)           0.924122000000    -2.036659000000    -0.373298000000     1.007825032230
         O            1.041342000000     1.379260000000     2.538507000000    15.994914619570
         H            0.658961000000     0.767611000000     1.918648000000     1.007825032230
         H            0.313750000000     1.643816000000     3.141624000000     1.007825032230
      Gh(O)          -1.649480000000     2.733617000000     0.773527000000    15.994914619570
      Gh(H)          -0.887604000000     2.167739000000     0.492910000000     1.007825032230
      Gh(H)          -1.074723000000     3.432313000000     1.189528000000     1.007825032230
      Gh(O)          -1.197686000000    -2.589481000000     1.589581000000    15.994914619570
      Gh(H)          -1.610851000000    -2.489368000000     2.457896000000     1.007825032230
      Gh(H)          -0.710748000000    -1.803117000000     1.436687000000     1.007825032230

  Charge       = 0
  Multiplicity = 1
  Basis Set: AUG-CC-PVTZ
    Blend: AUG-CC-PVTZ
  Basis Set: (AUG-CC-PVTZ AUX)
    Blend: AUG-CC-PVTZ-JKFIT

    Orbital Energies [Eh]
    ---------------------

    Doubly Occupied:

       1A    -20.567927     2A     -1.348068     3A     -0.715751
       4A     -0.580140     5A     -0.509155

  @DF-RHF Final Energy:   -76.05956461923051

   => Energetics <=

    Nuclear Repulsion Energy =              9.1076808250793135
    One-Electron Energy =                -122.8924065452668515
    Two-Electron Energy =                  37.7251611009570240
    Total Energy =                        -76.0595646192305139
 Dipole X            :        -18.3175342           17.5809669           -0.7365673
 Dipole Y            :        -25.6423663           25.4083258           -0.2340404
 Dipole Z            :        -47.9542516           47.9391922           -0.0150594
 Magnitude           :                                                    0.7730027
  Basis Set: (AUG-CC-PVTZ AUX)
    Blend: AUG-CC-PVTZ-RI
	 Reference Energy          =     -76.0595646192305139 [Eh]
	 Singles Energy            =      -0.0000000000000000 [Eh]
	 Same-Spin Energy          =      -0.0685524773107564 [Eh]
	 Opposite-Spin Energy      =      -0.2165427336814075 [Eh]
	 Correlation Energy        =      -0.2850952109921639 [Eh]
	 Total Energy              =     -76.3446598302226818 [Eh]

	 ================> DF-SCS-MP2 Energies <==================
	-----------------------------------------------------------
	 SCS Same-Spin Scale       =       0.3333333333333333 [-]
	 SCS Opposite-Spin Scale   =       1.2000000000000000 [-]
	 SCS Same-Spin Energy      =      -0.0228508257702521 [Eh]
	 SCS Opposite-Spin Energy  =      -0.2598512804176890 [Eh]
	 SCS Correlation Energy    =      -0.2827021061879411 [Eh]
	 SCS Total Energy          =     -76.3422667254184546 [Eh]
	-----------------------------------------------------------

*** Psi4 exiting successfully. Buy a developer a beer!
