                               Psi4 1.8.2 release

  ==> Input File <==

--------------------------------------------------------------------------
MEMORY 60 GB

molecule dimer {
-1 1
Cl         0.000000     0.000000     0.000000
O         -1.229184    -2.993822     0.453137
H         -0.418614    -3.395812     0.092820
H         -1.013280    -2.074811     0.585463
O         -1.235222    -1.766810    -2.572586
H         -2.178163    -1.662201    -2.417220
H         -0.769873    -1.718371    -1.664414
O         -1.384432    -0.260144     2.883153
H         -0.766609    -0.589156     3.510778
H         -0.859119    -0.152996     2.083720
O          1.607896     0.813395    -2.710175
H          2.315273     1.449805    -2.414289
H          1.015105     0.595265    -1.995542
O          1.117807     2.673918     1.419992
H          1.158491     1.823418     1.031762
H          0.169419     2.693657     1.399060
O         -2.874762     0.414810    -1.653760
H         -2.035974     0.467676    -1.186949
H         -3.362591    -0.291211    -1.125177

units ang
no_reorient
no_com
symmetry c1
}

set {
basis        aug-cc-pVTZ
scf_type     df
}

energy("mp2")
--------------------------------------------------------------------------

    Molecular point group: c1

    Geometry (in Angstrom), charge = -1, multiplicity = 1:

       Center              X                  Y                   Z               Mass
    ------------   -----------------  -----------------  -----------------  -----------------
         CL           0.000000000000     0.000000000000     0.000000000000    34.968852682000
         O           -1.229184000000    -2.993822000000     0.453137000000    15.994914619570
         H           -0.418614000000    -3.395812000000     0.092820000000     1.007825032230
         H           -1.013280000000    -2.074811000000     0.585463000000     1.007825032230
         O           -1.235222000000    -1.766810000000    -2.572586000000    15.994914619570
         H           -2.178163000000    -1.662201000000    -2.417220000000     1.007825032230
         H           -0.769873000000    -1.718371000000    -1.664414000000     1.007825032230
         O           -1.384432000000    -0.260144000000     2.883153000000    15.994914619570
         H           -0.766609000000    -0.589156000000     3.510778000000     1.007825032230
         H           -0.859119000000    -0.152996000000     2.083720000000     1.007825032230
         O            1.607896000000     0.813395000000    -2.710175000000    15.994914619570
         H            2.315273000000     1.449805000000    -2.414289000000     1.007825032230
         H            1.015105000000     0.595265000000    -1.995542000000     1.007825032230
         O            1.117807000000     2.673918000000     1.419992000000    15.994914619570
         H            1.158491000000     1.823418000000     1.031762000000     1.007825032230
         H            0.169419000000     2.693657000000     1.399060000000     1.007825032230
         O           -2.874762000000     0.414810000000    -1.653760000000    15.994914619570
         H           -2.035974000000     0.467676000000    -1.186949000000     1.007825032230
         H           -3.362591000000    -0.291211000000    -1.125177000000     1.007825032230

  Charge       = -1
  Multiplicity = 1
  Basis Set: AUG-CC-PVTZ
    Blend: AUG-CC-PVTZ
  Basis Set: (AUG-CC-PVTZ AUX)
    Blend: AUG-CC-PVTZ-JKFIT

    Orbital Energies [Eh]
    ---------------------

    Doubly Occupied:

       1A   -104.616847     2A    -20.436885     3A    -20.434351
       4A    -20.431118     5A    -20.428520     6A    -20.419805
       7A    -20.413473     8A    -10.342728     9A     -7.808838
      10A     -7.808813    11A     -7.808747    12A     -1.233196
      13A     -1.226221    14A     -1.222884    15A     -1.209296
      16A     -1.195517    17A     -1.181755    18A     -0.865143
      19A     -0.592583    20A     -0.586851    21A     -0.576979
      22A     -0.567659    23A     -0.565072    24A     -0.553407
      25A     -0.480174    26A     -0.461559    27A     -0.459095
      28A     -0.455670    29A     -0.428563    30A     -0.427107
      31A     -0.387140    32A     -0.381227    33A     -0.378146
      34A     -0.375031    35A     -0.362949    36A     -0.345811
      37A     -0.275527    38A     -0.273808    39A     -0.271468

  @DF-RHF Final Energy:  -915.98886336887790

   => Energetics <=

    Nuclear Repulsion Energy =            403.8472590536104576
    One-Electron Energy =               -2083.0923177146428316
    Two-Electron Energy =                 763.2561952921544162
    Total Energy =                       -915.9888633688779009
 Dipole X            :         74.2865163          -73.1874129            1.0991035
 Dipole Y            :         22.0274581          -22.3062535           -0.2787954
 Dipole Z            :         38.4329158          -36.9288390            1.5040768
 Magnitude           :                                                    1.8836142
  Basis Set: (AUG-CC-PVTZ AUX)
    Blend: AUG-CC-PVTZ-RI
	 Reference Energy          =    -915.9888633688779009 [Eh]
	 Singles Energy            =      -0.0000000000000000 [Eh]
	 Same-Spin Energy          =      -0.4883523935978703 [Eh]
	 Opposite-Spin Energy      =      -1.4938057261605078 [Eh]
	 Correlation Energy        =      -1.9821581197583780 [Eh]
	 Total Energy              =    -917.9710214886363246 [Eh]

	 ================> DF-SCS-MP2 Energies <==================
	-----------------------------------------------------------
	 SCS Same-Spin Scale       =       0.3333333333333333 [-]
	 SCS Opposite-Spin Scale   =       1.2000000000000000 [-]
	 SCS Same-Spin Energy      =      -0.1627841311992901 [Eh]
	 SCS Opposite-Spin Energy  =      -1.7925668713926093 [Eh]
	 SCS Correlation Energy    =      -1.9553510025918994 [Eh]
	 SCS Total Energy          =    -917.9442143714697977 [Eh]
	-----------------------------------------------------------

*** Psi4 exiting successfully. Buy a developer a beer!
