                               Psi4 1.8.2 release

  ==> Input File <==

--------------------------------------------------------------------------
MEMORY 60 GB

molecule dimer {
0 1
Gh(Cl)     0.000000     0.000000     0.000000
Gh(O)      1.087017    -1.938826     2.134205
Gh(H)      1.242037    -1.061945     1.749816
Gh(H)      0.542211    -2.402701     1.471366
Gh(O)     -2.357560     1.098794     1.961526
Gh(H)     -1.852852     0.324910     1.716449
Gh(H)     -2.821126     1.412667     1.135968
Gh(O)     -1.308863     1.084084    -2.918475
Gh(H)     -0.877334     0.596674    -2.186330
Gh(H)     -2.054769     0.500763    -3.101511
Gh(O)      3.206515     0.353628    -1.306580
Gh(H)      2.420873     0.715524    -0.930580
Gh(H)      3.817413     0.545332    -0.612808
Gh(O)     -1.360642    -2.838085     0.606738
Gh(H)     -1.416503    -1.957719     0.217323
Gh(H)     -1.726871    -2.747994     1.472142
O          1.537381    -2.218729    -1.585335
H          2.389844    -1.888690    -1.756621
H          1.246941    -1.520306    -0.997139

units ang
no_reorient
no_com
symmetry c1
}

set {
basis        aug-cc-pVTZ
scf_type     df
}

energy("mp2")
--------------------------------------------------------------------------

    Molecular point group: c1

    Geometry (in Angstrom), charge = 0, multiplicity = 1:

       Center              X                  Y                   Z               Mass
    ------------   -----------------  -----------------  -----------------  -----------------
      Gh(CL)          0.000000000000     0.000000000000     0.000000000000    34.968852682000
      Gh(O)           1.087017000000    -1.938826000000     2.134205000000    15.994914619570
      Gh(H)           1.242037000000    -1.061945000000     1.749816000000     1.007825032230
      Gh(H)           0.542211000000    -2.402701000000     1.471366000000     1.007825032230
      Gh(O)          -2.357560000000     1.098794000000     1.961526000000    15.994914619570
      Gh(H)          -1.852852000000     0.324910000000     1.716449000000     1.007825032230
      Gh(H)          -2.821126000000     1.412667000000     1.135968000000     1.007825032230
      Gh(O)          -1.308863000000     1.084084000000    -2.918475000000    15.994914619570
      Gh(H)          -0.877334000000     0.596674000000    -2.186330000000     1.007825032230
      Gh(H)          -2.054769000000     0.500763000000    -3.101511000000     1.007825032230
      Gh(O)           3.206515000000     0.353628000000    -1.306580000000    15.994914619570
      Gh(H)           2.420873000000     0.715524000000    -0.930580000000     1.007825032230
      Gh(H)           3.817413000000     0.545332000000    -0.612808000000     1.007825032230
      Gh(O)          -1.360642000000    -2.838085000000     0.606738000000    15.994914619570
      Gh(H)          -1.416503000000    -1.957719000000     0.217323000000     1.007825032230
      Gh(H)          -1.726871000000    -2.747994000000     1.472142000000     1.007825032230
         O            1.537381000000    -2.218729000000    -1.585335000000    15.994914619570
         H            2.389844000000    -1.888690000000    -1.756621000000     1.007825032230
         H            1.246941000000    -1.520306000000    -0.997139000000     1.007825032230

  Charge       = 0
  Multiplicity = 1
  Basis Set: AUG-CC-PVTZ
    Blend: AUG-CC-PVTZ
  Basis Set: (AUG-CC-PVTZ AUX)
    Blend: AUG-CC-PVTZ-JKFIT

    Orbital Energies [Eh]
    ---------------------

    Doubly Occupied:

       1A    -20.567494     2A     -1.366004     3A     -0.710666
       4A     -0.601092     5A     -0.513382

  @DF-RHF Final Energy:   -76.05881357260446

   => Energetics <=

    Nuclear Repulsion Energy =              9.3425017000313915
    One-Electron Energy =                -123.2853533488202089
    Two-Electron Energy =                  37.8840380761843534
    Total Energy =                        -76.0588135726044641
 Dipole X            :        -29.7399900           30.1143600            0.3743699
 Dipole Y            :         40.6599061          -39.9843901            0.6755160
 Dipole Z            :         29.4420298          -29.1706440            0.2713859
 Magnitude           :                                                    0.8186116
  Basis Set: (AUG-CC-PVTZ AUX)
    Blend: AUG-CC-PVTZ-RI
	 Reference Energy          =     -76.0588135726044641 [Eh]
	 Singles Energy            =      -0.0000000000000000 [Eh]
	 Same-Spin Energy          =      -0.0683669646126161 [Eh]
	 Opposite-Spin Energy      =      -0.2158150916626913 [Eh]
	 Correlation Energy        =      -0.2841820562753075 [Eh]
	 Total Energy              =     -76.3429956288797769 [Eh]

	 ================> DF-SCS-MP2 Energies <==================
	-----------------------------------------------------------
	 SCS Same-Spin Scale       =       0.3333333333333333 [-]
	 SCS Opposite-Spin Scale   =       1.2000000000000000 [-]
	 SCS Same-Spin Energy      =      -0.0227889882042054 [Eh]
	 SCS Opposite-Spin Energy  =      -0.2589781099952296 [Eh]
	 SCS Correlation Energy    =      -0.2817670981994350 [Eh]
	 SCS Total Energy          =     -76.3405806708039023 [Eh]
	-----------------------------------------------------------

*** Psi4 exiting successfully. Buy a developer a beer!
