                               Psi4 1.8.2 release

  ==> Input File <==

--------------------------------------------------------------------------
MEMORY 60 GB

molecule dimer {
0 1
Gh(Cl)     0.000000     0.000000     0.000000
Gh(O)      2.976125    -0.550762     0.397420
Gh(H)      3.132872     0.391178     0.501278
Gh(H)      2.012343    -0.588243     0.284471
O         -1.163506    -2.546937     1.446773
H         -1.325678    -2.254056     2.392364
H         -0.300251    -2.204268     1.183553
Gh(O)     -0.221715    -2.704216    -1.930969
Gh(H)     -1.057768    -2.253285    -1.542346
Gh(H)      0.064879    -2.081925    -2.649334
Gh(O)     -2.291141     1.148067    -1.830105
Gh(H)     -1.493164     0.913587    -1.305973
Gh(H)     -1.983377     1.515748    -2.705823
Gh(O)      0.895961     1.894020     2.415542
Gh(H)      0.701813     1.480611     1.545901
Gh(H)      1.152438     2.807136     2.240683
Gh(O)      0.316353     2.781308    -1.575780
Gh(H)      0.288134     1.911789    -1.139865
Gh(H)      0.658674     3.383529    -0.879089

units ang
no_reorient
no_com
symmetry c1
}

set {
basis        aug-cc-pVTZ
scf_type     df
}

energy("mp2")
--------------------------------------------------------------------------

    Molecular point group: c1

    Geometry (in Angstrom), charge = 0, multiplicity = 1:

       Center              X                  Y                   Z               Mass
    ------------   -----------------  -----------------  -----------------  -----------------
      Gh(CL)          0.000000000000     0.000000000000     0.000000000000    34.968852682000
      Gh(O)           2.976125000000    -0.550762000000     0.397420000000    15.994914619570
      Gh(H)           3.132872000000     0.391178000000     0.501278000000     1.007825032230
      Gh(H)           2.012343000000    -0.588243000000     0.284471000000     1.007825032230
         O           -1.163506000000    -2.546937000000     1.446773000000    15.994914619570
         H           -1.325678000000    -2.254056000000     2.392364000000     1.007825032230
         H           -0.300251000000    -2.204268000000     1.183553000000     1.007825032230
      Gh(O)          -0.221715000000    -2.704216000000    -1.930969000000    15.994914619570
      Gh(H)          -1.057768000000    -2.253285000000    -1.542346000000     1.007825032230
      Gh(H)           0.064879000000    -2.081925000000    -2.649334000000     1.007825032230
      Gh(O)          -2.291141000000     1.148067000000    -1.830105000000    15.994914619570
      Gh(H)          -1.493164000000     0.913587000000    -1.305973000000     1.007825032230
      Gh(H)          -1.983377000000     1.515748000000    -2.705823000000     1.007825032230
      Gh(O)           0.895961000000     1.894020000000     2.415542000000    15.994914619570
      Gh(H)           0.701813000000     1.480611000000     1.545901000000     1.007825032230
      Gh(H)           1.152438000000     2.807136000000     2.240683000000     1.007825032230
      Gh(O)           0.316353000000     2.781308000000    -1.575780000000    15.994914619570
      Gh(H)           0.288134000000     1.911789000000    -1.139865000000     1.007825032230
      Gh(H)           0.658674000000     3.383529000000    -0.879089000000     1.007825032230

  Charge       = 0
  Multiplicity = 1
  Basis Set: AUG-CC-PVTZ
    Blend: AUG-CC-PVTZ
  Basis Set: (AUG-CC-PVTZ AUX)
    Blend: AUG-CC-PVTZ-JKFIT

    Orbital Energies [Eh]
    ---------------------

    Doubly Occupied:

       1A    -20.570391     2A     -1.338454     3A     -0.708440
       4A     -0.574164     5A     -0.507324

  @DF-RHF Final Energy:   -76.05680082621707

   => Energetics <=

    Nuclear Repulsion Energy =              8.9393125697775897
    One-Electron Energy =                -122.5946774560806602
    Two-Electron Energy =                  37.5985640600860123
    Total Energy =                        -76.0568008262170565
 Dipole X            :         21.1290773          -20.6622220            0.4668553
 Dipole Y            :         47.3485739          -46.9291184            0.4194554
 Dipole Z            :        -28.1838144           28.6295417            0.4457272
 Magnitude           :                                                    0.7697854
  Basis Set: (AUG-CC-PVTZ AUX)
    Blend: AUG-CC-PVTZ-RI
	 Reference Energy          =     -76.0568008262170707 [Eh]
	 Singles Energy            =      -0.0000000000000000 [Eh]
	 Same-Spin Energy          =      -0.0688034205726173 [Eh]
	 Opposite-Spin Energy      =      -0.2169685644780371 [Eh]
	 Correlation Energy        =      -0.2857719850506545 [Eh]
	 Total Energy              =     -76.3425728112677291 [Eh]

	 ================> DF-SCS-MP2 Energies <==================
	-----------------------------------------------------------
	 SCS Same-Spin Scale       =       0.3333333333333333 [-]
	 SCS Opposite-Spin Scale   =       1.2000000000000000 [-]
	 SCS Same-Spin Energy      =      -0.0229344735242058 [Eh]
	 SCS Opposite-Spin Energy  =      -0.2603622773736445 [Eh]
	 SCS Correlation Energy    =      -0.2832967508978503 [Eh]
	 SCS Total Energy          =     -76.3400975771149177 [Eh]
	-----------------------------------------------------------

*** Psi4 exiting successfully. Buy a developer a beer!
