                               Psi4 1.8.2 release

  ==> Input File <==

--------------------------------------------------------------------------
MEMORY 60 GB

molecule dimer {
0 1
Gh(Cl)     0.000000     0.000000     0.000000
Gh(O)     -0.530148    -2.541396     2.339857
Gh(H)      0.120897    -3.202570     2.327133
Gh(H)     -0.132628    -1.880997     1.716211
O         -3.000928    -1.352034     0.154153
H         -2.071433    -1.106112     0.036891
H         -3.306104    -0.958508     1.007444
Gh(O)      1.266958    -0.619388    -2.939972
Gh(H)      1.004602    -0.223763    -2.097255
Gh(H)      2.223231    -0.656263    -2.974201
Gh(O)      1.279146    -2.624031    -0.164319
Gh(H)      0.765925    -1.837237    -0.085508
Gh(H)      0.822661    -3.176240    -0.835511
Gh(O)      2.570326     0.754051     2.126946
Gh(H)      2.553981     1.080305     3.025190
Gh(H)      1.674012     0.429569     1.888366

units ang
no_reorient
no_com
symmetry c1
}

set {
basis        aug-cc-pVTZ
scf_type     df
}

energy("mp2")
--------------------------------------------------------------------------

    Molecular point group: c1

    Geometry (in Angstrom), charge = 0, multiplicity = 1:

       Center              X                  Y                   Z               Mass
    ------------   -----------------  -----------------  -----------------  -----------------
      Gh(CL)          0.000000000000     0.000000000000     0.000000000000    34.968852682000
      Gh(O)          -0.530148000000    -2.541396000000     2.339857000000    15.994914619570
      Gh(H)           0.120897000000    -3.202570000000     2.327133000000     1.007825032230
      Gh(H)          -0.132628000000    -1.880997000000     1.716211000000     1.007825032230
         O           -3.000928000000    -1.352034000000     0.154153000000    15.994914619570
         H           -2.071433000000    -1.106112000000     0.036891000000     1.007825032230
         H           -3.306104000000    -0.958508000000     1.007444000000     1.007825032230
      Gh(O)           1.266958000000    -0.619388000000    -2.939972000000    15.994914619570
      Gh(H)           1.004602000000    -0.223763000000    -2.097255000000     1.007825032230
      Gh(H)           2.223231000000    -0.656263000000    -2.974201000000     1.007825032230
      Gh(O)           1.279146000000    -2.624031000000    -0.164319000000    15.994914619570
      Gh(H)           0.765925000000    -1.837237000000    -0.085508000000     1.007825032230
      Gh(H)           0.822661000000    -3.176240000000    -0.835511000000     1.007825032230
      Gh(O)           2.570326000000     0.754051000000     2.126946000000    15.994914619570
      Gh(H)           2.553981000000     1.080305000000     3.025190000000     1.007825032230
      Gh(H)           1.674012000000     0.429569000000     1.888366000000     1.007825032230

  Charge       = 0
  Multiplicity = 1
  Basis Set: AUG-CC-PVTZ
    Blend: AUG-CC-PVTZ
  Basis Set: (AUG-CC-PVTZ AUX)
    Blend: AUG-CC-PVTZ-JKFIT

    Orbital Energies [Eh]
    ---------------------

    Doubly Occupied:

       1A    -20.569435     2A     -1.341018     3A     -0.711775
       4A     -0.575163     5A     -0.507738

  @DF-RHF Final Energy:   -76.05815387644127

   => Energetics <=

    Nuclear Repulsion Energy =              8.9910557555500183
    One-Electron Energy =                -122.6881566321456489
    Two-Electron Energy =                  37.6389470001543671
    Total Energy =                        -76.0581538764412528
 Dipole X            :         55.9457800          -55.5295285            0.4162515
 Dipole Y            :         24.7648488          -24.3413581            0.4234907
 Dipole Z            :         -3.8184305            4.3039627            0.4855323
 Magnitude           :                                                    0.7670406
  Basis Set: (AUG-CC-PVTZ AUX)
    Blend: AUG-CC-PVTZ-RI
	 Reference Energy          =     -76.0581538764412670 [Eh]
	 Singles Energy            =      -0.0000000000000000 [Eh]
	 Same-Spin Energy          =      -0.0687054576756412 [Eh]
	 Opposite-Spin Energy      =      -0.2168673896588944 [Eh]
	 Correlation Energy        =      -0.2855728473345356 [Eh]
	 Total Energy              =     -76.3437267237758022 [Eh]

	 ================> DF-SCS-MP2 Energies <==================
	-----------------------------------------------------------
	 SCS Same-Spin Scale       =       0.3333333333333333 [-]
	 SCS Opposite-Spin Scale   =       1.2000000000000000 [-]
	 SCS Same-Spin Energy      =      -0.0229018192252137 [Eh]
	 SCS Opposite-Spin Energy  =      -0.2602408675906733 [Eh]
	 SCS Correlation Energy    =      -0.2831426868158870 [Eh]
	 SCS Total Energy          =     -76.3412965632571598 [Eh]
	-----------------------------------------------------------

*** Psi4 exiting successfully. Buy a developer a beer!
