                               Psi4 1.9 release

  ==> Input File <==

--------------------------------------------------------------------------
MEMORY 60 GB

molecule dimer {
-1 1
Cl     0.000000     0.000000     0.000000
--
0 1
O     -1.296686    -0.789802     2.747488
H     -0.958037    -0.553647     1.932824
H     -0.724324    -1.377608     3.241656
O     -2.076983    -2.553794    -0.486353
H     -1.591041    -1.707135    -0.380617
H     -3.010769    -2.279472    -0.495510
O     -0.476781     2.792384     1.610098
H     -0.194248     1.959841     1.163400
H      0.285662     3.369797     1.728100
O      2.175372    -1.021934     2.331685
H      2.807418    -1.629194     1.955755
H      1.693498    -0.623625     1.563577
O     -2.432882     1.506271    -1.718991
H     -1.619892     1.326935    -1.279633
H     -2.709491     0.637243    -2.073644

units ang
no_reorient
no_com
symmetry c1
}

set {
basis        aug-cc-pVTZ
scf_type     df
}

energy("mp2", bsse_type="cp")
--------------------------------------------------------------------------

                               Psi4 1.9 release
    Molecular point group: c1
  Charge       = 0
  Multiplicity = 1
  Basis Set: AUG-CC-PVTZ
    Blend: AUG-CC-PVTZ
  Basis Set: (AUG-CC-PVTZ AUX)
    Blend: AUG-CC-PVTZ-JKFIT
  @DF-RHF Final Energy:  -380.28405710656256
    Total Energy =                       -380.2840571065625568
 Dipole X            :         74.9480422          -73.4818190            1.4662232
 Dipole Y            :          2.1639042           -2.6680382           -0.5041339
 Dipole Z            :        -82.6275585           81.6878035           -0.9397551
 Magnitude           :                                                    1.8130364
  Basis Set: (AUG-CC-PVTZ AUX)
    Blend: AUG-CC-PVTZ-RI
	 Reference Energy          =    -380.2840571065625568 [Eh]
	 Singles Energy            =      -0.0000000000000000 [Eh]
	 Same-Spin Energy          =      -0.3436941355272763 [Eh]
	 Opposite-Spin Energy      =      -1.0821719819637103 [Eh]
	 Correlation Energy        =      -1.4258661174909866 [Eh]
	 Total Energy              =    -381.7099232240535684 [Eh]
	 SCS Total Energy          =    -381.6972281967614435 [Eh]
                               Psi4 1.9 release
    Molecular point group: c1
  Multiplicity = 1
  Basis Set: AUG-CC-PVTZ
    Blend: AUG-CC-PVTZ
  Basis Set: (AUG-CC-PVTZ AUX)
    Blend: AUG-CC-PVTZ-JKFIT
  @DF-RHF Final Energy:  -459.57358116324627
    Total Energy =                       -459.5735811632462173
  Basis Set: (AUG-CC-PVTZ AUX)
	 Singles Energy            =      -0.0000000000000000 [Eh]
	 Same-Spin Energy          =      -0.0635721178049478 [Eh]
	 Opposite-Spin Energy      =      -0.1839741960778062 [Eh]
	 Correlation Energy        =      -0.2475463138827540 [Eh]
	 Total Energy              =    -459.8211274771290391 [Eh]
	 SCS Total Energy          =    -459.8155409044746307 [Eh]
                               Psi4 1.9 release
    Molecular point group: c1

    Geometry (in Bohr), charge = -1, multiplicity = 1:

       Center              X                  Y                   Z               Mass
    ------------   -----------------  -----------------  -----------------  -----------------
         CL           0.000000000000     0.000000000000     0.000000000000    34.968852682000
         O           -2.450381410715    -1.492509473339     5.191999852982    15.994914619570
         H           -1.810427548055    -1.046241200181     3.652508008712     1.007825032230
         H           -1.368773986096    -2.603301828240     6.125842032947     1.007825032230
         O           -3.924929037232    -4.825971240837    -0.919073970295    15.994914619570
         H           -3.006631744375    -3.226017609183    -0.719261888693     1.007825032230
         H           -5.689528837019    -4.307577790650    -0.936378192426     1.007825032230
         O           -0.900985511822     5.276840997110     3.042644255147    15.994914619570
         H           -0.367075520418     3.703562739443     2.198507374358     1.007825032230
         H            0.539822944451     6.367993428389     3.265635717404     1.007825032230
         O            4.110857300989    -1.931175378294     4.406246060838    15.994914619570
         H            5.305251139681    -3.078730465239     3.695841318495     1.007825032230
         H            3.200247414011    -1.178480454989     2.954732306065     1.007825032230
         O           -4.597480675556     2.846439660719    -3.248422202127    15.994914619570
         H           -3.061152232820     2.507543736284    -2.418155911098     1.007825032230
         H           -5.120195929393     1.204214745365    -3.918619241699     1.007825032230

  Charge       = -1
  Multiplicity = 1
  Basis Set: AUG-CC-PVTZ
    Blend: AUG-CC-PVTZ
  Basis Set: (AUG-CC-PVTZ AUX)
    Blend: AUG-CC-PVTZ-JKFIT

    Orbital Energies [Eh]
    ---------------------

    Doubly Occupied:

       1A   -104.597714     2A    -20.431118     3A    -20.425795
       4A    -20.422324     5A    -20.411710     6A    -20.391085
       7A    -10.323177     8A     -7.789287     9A     -7.789250
      10A     -7.789237    11A     -1.210755    12A     -1.209272
      13A     -1.201634    14A     -1.194275    15A     -1.188617
      16A     -0.843557    17A     -0.584389    18A     -0.578527
      19A     -0.573288    20A     -0.566435    21A     -0.562542
      22A     -0.449302    23A     -0.446792    24A     -0.443061
      25A     -0.422410    26A     -0.412486    27A     -0.374196
      28A     -0.368225    29A     -0.367829    30A     -0.355297
      31A     -0.344688    32A     -0.255487    33A     -0.253266
      34A     -0.251759

  @DF-RHF Final Energy:  -839.93227919389301

   => Energetics <=

    Nuclear Repulsion Energy =            305.2655225701143991
    One-Electron Energy =               -1780.7380197236977892
    Two-Electron Energy =                 635.5402179596903807
    Total Energy =                       -839.9322791938930095
 Dipole X            :         75.3131112          -73.4818190            1.8312922
 Dipole Y            :          2.1636735           -2.6680382           -0.5043647
 Dipole Z            :        -83.1479657           81.6878035           -1.4601622
 Magnitude           :                                                    2.3958482
  Basis Set: (AUG-CC-PVTZ AUX)
    Blend: AUG-CC-PVTZ-RI
	 Reference Energy          =    -839.9322791938930095 [Eh]
	 Singles Energy            =      -0.0000000000000000 [Eh]
	 Same-Spin Energy          =      -0.4160454938427181 [Eh]
	 Opposite-Spin Energy      =      -1.2720400438717916 [Eh]
	 Correlation Energy        =      -1.6880855377145096 [Eh]
	 Total Energy              =    -841.6203647316075376 [Eh]

	 ================> DF-SCS-MP2 Energies <==================
	-----------------------------------------------------------
	 SCS Same-Spin Scale       =       0.3333333333333333 [-]
	 SCS Opposite-Spin Scale   =       1.2000000000000000 [-]
	 SCS Same-Spin Energy      =      -0.1386818312809060 [Eh]
	 SCS Opposite-Spin Energy  =      -1.5264480526461499 [Eh]
	 SCS Correlation Energy    =      -1.6651298839270559 [Eh]
	 SCS Total Energy          =    -841.5974090778200889 [Eh]
	-----------------------------------------------------------

*** Psi4 exiting successfully. Buy a developer a beer!
