                               Psi4 1.8.2 release

  ==> Input File <==

--------------------------------------------------------------------------
MEMORY 60 GB

molecule dimer {
0 1
Gh(Cl)     0.000000     0.000000     0.000000
O          2.463279    -1.637242     1.524697
H          2.153801    -1.174206     0.704797
H          3.424703    -1.765351     1.439217
Gh(O)     -3.116776     0.013193     0.922660
Gh(H)     -3.430576    -0.157029     0.005481
Gh(H)     -2.173003    -0.131358     0.884899
Gh(O)     -0.255395    -0.965558     3.259253
Gh(H)      0.115940    -0.895008     2.380767
Gh(H)     -0.515949    -0.061156     3.400927
Gh(O)      0.593896     2.305977    -1.825798
Gh(H)      1.456929     2.664655    -1.817872
Gh(H)      0.413740     1.886953    -0.968415
Gh(O)     -0.301908    -2.719564    -1.155955
Gh(H)     -0.223765    -1.800429    -0.769036
Gh(H)      0.140094    -2.598246    -2.035538
Gh(O)     -2.739786     0.110883    -1.903292
Gh(H)     -3.291889     0.616513    -2.564165
Gh(H)     -1.849346     0.283247    -1.934967

units ang
no_reorient
no_com
symmetry c1
}

set {
basis        aug-cc-pVTZ
scf_type     df
}

energy("mp2")
--------------------------------------------------------------------------

    Molecular point group: c1

    Geometry (in Angstrom), charge = 0, multiplicity = 1:

       Center              X                  Y                   Z               Mass
    ------------   -----------------  -----------------  -----------------  -----------------
      Gh(CL)          0.000000000000     0.000000000000     0.000000000000    34.968852682000
         O            2.463279000000    -1.637242000000     1.524697000000    15.994914619570
         H            2.153801000000    -1.174206000000     0.704797000000     1.007825032230
         H            3.424703000000    -1.765351000000     1.439217000000     1.007825032230
      Gh(O)          -3.116776000000     0.013193000000     0.922660000000    15.994914619570
      Gh(H)          -3.430576000000    -0.157029000000     0.005481000000     1.007825032230
      Gh(H)          -2.173003000000    -0.131358000000     0.884899000000     1.007825032230
      Gh(O)          -0.255395000000    -0.965558000000     3.259253000000    15.994914619570
      Gh(H)           0.115940000000    -0.895008000000     2.380767000000     1.007825032230
      Gh(H)          -0.515949000000    -0.061156000000     3.400927000000     1.007825032230
      Gh(O)           0.593896000000     2.305977000000    -1.825798000000    15.994914619570
      Gh(H)           1.456929000000     2.664655000000    -1.817872000000     1.007825032230
      Gh(H)           0.413740000000     1.886953000000    -0.968415000000     1.007825032230
      Gh(O)          -0.301908000000    -2.719564000000    -1.155955000000    15.994914619570
      Gh(H)          -0.223765000000    -1.800429000000    -0.769036000000     1.007825032230
      Gh(H)           0.140094000000    -2.598246000000    -2.035538000000     1.007825032230
      Gh(O)          -2.739786000000     0.110883000000    -1.903292000000    15.994914619570
      Gh(H)          -3.291889000000     0.616513000000    -2.564165000000     1.007825032230
      Gh(H)          -1.849346000000     0.283247000000    -1.934967000000     1.007825032230

  Charge       = 0
  Multiplicity = 1
  Basis Set: AUG-CC-PVTZ
    Blend: AUG-CC-PVTZ
  Basis Set: (AUG-CC-PVTZ AUX)
    Blend: AUG-CC-PVTZ-JKFIT

    Orbital Energies [Eh]
    ---------------------

    Doubly Occupied:

       1A    -20.570184     2A     -1.339104     3A     -0.709240
       4A     -0.574707     5A     -0.507444

  @DF-RHF Final Energy:   -76.05757058093008

   => Energetics <=

    Nuclear Repulsion Energy =              8.9533991080736737
    One-Electron Energy =                -122.6205781992166806
    Two-Electron Energy =                  37.6096085102129294
    Total Energy =                        -76.0575705809300757
 Dipole X            :        -47.3484761           47.7812262            0.4327501
 Dipole Y            :         30.5265326          -30.3064695            0.2200631
 Dipole Z            :        -27.6986328           27.1016773           -0.5969555
 Magnitude           :                                                    0.7694519
  Basis Set: (AUG-CC-PVTZ AUX)
    Blend: AUG-CC-PVTZ-RI
	 Reference Energy          =     -76.0575705809300757 [Eh]
	 Singles Energy            =      -0.0000000000000000 [Eh]
	 Same-Spin Energy          =      -0.0687745882566148 [Eh]
	 Opposite-Spin Energy      =      -0.2168241737652306 [Eh]
	 Correlation Energy        =      -0.2855987620218454 [Eh]
	 Total Energy              =     -76.3431693429519242 [Eh]

	 ================> DF-SCS-MP2 Energies <==================
	-----------------------------------------------------------
	 SCS Same-Spin Scale       =       0.3333333333333333 [-]
	 SCS Opposite-Spin Scale   =       1.2000000000000000 [-]
	 SCS Same-Spin Energy      =      -0.0229248627522049 [Eh]
	 SCS Opposite-Spin Energy  =      -0.2601890085182767 [Eh]
	 SCS Correlation Energy    =      -0.2831138712704816 [Eh]
	 SCS Total Energy          =     -76.3406844522005628 [Eh]
	-----------------------------------------------------------

*** Psi4 exiting successfully. Buy a developer a beer!
