                               Psi4 1.8.2 release

  ==> Input File <==

--------------------------------------------------------------------------
MEMORY 60 GB

molecule dimer {
0 1
Gh(Cl)     0.000000     0.000000     0.000000
O         -1.878402    -1.080531     2.342565
H         -1.026969    -1.166506     1.772713
H         -2.580579    -0.523875     1.890567
Gh(O)      0.502856     0.086028    -3.057688
Gh(H)      1.102609    -0.631082    -3.406849
Gh(H)      0.164913    -0.155801    -2.188960
Gh(O)     -2.049806    -2.242880    -1.432389
Gh(H)     -1.691531    -2.297651    -2.291878
Gh(H)     -1.607052    -1.510032    -1.003034
Gh(O)      1.381966    -2.850193    -0.519008
Gh(H)      0.939692    -1.998758    -0.423708
Gh(H)      2.117352    -2.631893     0.024183

units ang
no_reorient
no_com
symmetry c1
}

set {
basis        aug-cc-pVTZ
scf_type     df
}

energy("mp2")
--------------------------------------------------------------------------

    Molecular point group: c1

    Geometry (in Angstrom), charge = 0, multiplicity = 1:

       Center              X                  Y                   Z               Mass
    ------------   -----------------  -----------------  -----------------  -----------------
      Gh(CL)          0.000000000000     0.000000000000     0.000000000000    34.968852682000
         O           -1.878402000000    -1.080531000000     2.342565000000    15.994914619570
         H           -1.026969000000    -1.166506000000     1.772713000000     1.007825032230
         H           -2.580579000000    -0.523875000000     1.890567000000     1.007825032230
      Gh(O)           0.502856000000     0.086028000000    -3.057688000000    15.994914619570
      Gh(H)           1.102609000000    -0.631082000000    -3.406849000000     1.007825032230
      Gh(H)           0.164913000000    -0.155801000000    -2.188960000000     1.007825032230
      Gh(O)          -2.049806000000    -2.242880000000    -1.432389000000    15.994914619570
      Gh(H)          -1.691531000000    -2.297651000000    -2.291878000000     1.007825032230
      Gh(H)          -1.607052000000    -1.510032000000    -1.003034000000     1.007825032230
      Gh(O)           1.381966000000    -2.850193000000    -0.519008000000    15.994914619570
      Gh(H)           0.939692000000    -1.998758000000    -0.423708000000     1.007825032230
      Gh(H)           2.117352000000    -2.631893000000     0.024183000000     1.007825032230

  Charge       = 0
  Multiplicity = 1
  Basis Set: AUG-CC-PVTZ
    Blend: AUG-CC-PVTZ
  Basis Set: (AUG-CC-PVTZ AUX)
    Blend: AUG-CC-PVTZ-JKFIT

    Orbital Energies [Eh]
    ---------------------

    Doubly Occupied:

       1A    -20.573128     2A     -1.320760     3A     -0.699257
       4A     -0.559423     5A     -0.503300

  @DF-RHF Final Energy:   -76.04894706205076

   => Energetics <=

    Nuclear Repulsion Energy =              8.6497641576173372
    One-Electron Energy =                -122.0856821856795165
    Two-Electron Energy =                  37.3869709660114324
    Total Energy =                        -76.0489470620507433
 Dipole X            :         35.3099724          -35.2146004            0.0953720
 Dipole Y            :         19.8397247          -19.5296184            0.3101063
 Dipole Z            :        -43.0076507           42.3370462           -0.6706046
 Magnitude           :                                                    0.7449646
  Basis Set: (AUG-CC-PVTZ AUX)
    Blend: AUG-CC-PVTZ-RI
	 Reference Energy          =     -76.0489470620507575 [Eh]
	 Singles Energy            =      -0.0000000000000000 [Eh]
	 Same-Spin Energy          =      -0.0692970756322864 [Eh]
	 Opposite-Spin Energy      =      -0.2184197439507636 [Eh]
	 Correlation Energy        =      -0.2877168195830500 [Eh]
	 Total Energy              =     -76.3366638816338110 [Eh]

	 ================> DF-SCS-MP2 Energies <==================
	-----------------------------------------------------------
	 SCS Same-Spin Scale       =       0.3333333333333333 [-]
	 SCS Opposite-Spin Scale   =       1.2000000000000000 [-]
	 SCS Same-Spin Energy      =      -0.0230990252107621 [Eh]
	 SCS Opposite-Spin Energy  =      -0.2621036927409163 [Eh]
	 SCS Correlation Energy    =      -0.2852027179516784 [Eh]
	 SCS Total Energy          =     -76.3341497800024342 [Eh]
	-----------------------------------------------------------

*** Psi4 exiting successfully. Buy a developer a beer!
