                               Psi4 1.8.2 release

  ==> Input File <==

--------------------------------------------------------------------------
MEMORY 60 GB

molecule dimer {
0 1
Gh(Cl)     0.000000     0.000000     0.000000
Gh(O)      1.087017    -1.938826     2.134205
Gh(H)      1.242037    -1.061945     1.749816
Gh(H)      0.542211    -2.402701     1.471366
Gh(O)     -2.357560     1.098794     1.961526
Gh(H)     -1.852852     0.324910     1.716449
Gh(H)     -2.821126     1.412667     1.135968
O         -1.308863     1.084084    -2.918475
H         -0.877334     0.596674    -2.186330
H         -2.054769     0.500763    -3.101511
Gh(O)      3.206515     0.353628    -1.306580
Gh(H)      2.420873     0.715524    -0.930580
Gh(H)      3.817413     0.545332    -0.612808
Gh(O)     -1.360642    -2.838085     0.606738
Gh(H)     -1.416503    -1.957719     0.217323
Gh(H)     -1.726871    -2.747994     1.472142
Gh(O)      1.537381    -2.218729    -1.585335
Gh(H)      2.389844    -1.888690    -1.756621
Gh(H)      1.246941    -1.520306    -0.997139

units ang
no_reorient
no_com
symmetry c1
}

set {
basis        aug-cc-pVTZ
scf_type     df
}

energy("mp2")
--------------------------------------------------------------------------

    Molecular point group: c1

    Geometry (in Angstrom), charge = 0, multiplicity = 1:

       Center              X                  Y                   Z               Mass
    ------------   -----------------  -----------------  -----------------  -----------------
      Gh(CL)          0.000000000000     0.000000000000     0.000000000000    34.968852682000
      Gh(O)           1.087017000000    -1.938826000000     2.134205000000    15.994914619570
      Gh(H)           1.242037000000    -1.061945000000     1.749816000000     1.007825032230
      Gh(H)           0.542211000000    -2.402701000000     1.471366000000     1.007825032230
      Gh(O)          -2.357560000000     1.098794000000     1.961526000000    15.994914619570
      Gh(H)          -1.852852000000     0.324910000000     1.716449000000     1.007825032230
      Gh(H)          -2.821126000000     1.412667000000     1.135968000000     1.007825032230
         O           -1.308863000000     1.084084000000    -2.918475000000    15.994914619570
         H           -0.877334000000     0.596674000000    -2.186330000000     1.007825032230
         H           -2.054769000000     0.500763000000    -3.101511000000     1.007825032230
      Gh(O)           3.206515000000     0.353628000000    -1.306580000000    15.994914619570
      Gh(H)           2.420873000000     0.715524000000    -0.930580000000     1.007825032230
      Gh(H)           3.817413000000     0.545332000000    -0.612808000000     1.007825032230
      Gh(O)          -1.360642000000    -2.838085000000     0.606738000000    15.994914619570
      Gh(H)          -1.416503000000    -1.957719000000     0.217323000000     1.007825032230
      Gh(H)          -1.726871000000    -2.747994000000     1.472142000000     1.007825032230
      Gh(O)           1.537381000000    -2.218729000000    -1.585335000000    15.994914619570
      Gh(H)           2.389844000000    -1.888690000000    -1.756621000000     1.007825032230
      Gh(H)           1.246941000000    -1.520306000000    -0.997139000000     1.007825032230

  Charge       = 0
  Multiplicity = 1
  Basis Set: AUG-CC-PVTZ
    Blend: AUG-CC-PVTZ
  Basis Set: (AUG-CC-PVTZ AUX)
    Blend: AUG-CC-PVTZ-JKFIT

    Orbital Energies [Eh]
    ---------------------

    Doubly Occupied:

       1A    -20.571513     2A     -1.348963     3A     -0.701903
       4A     -0.589947     5A     -0.510349

  @DF-RHF Final Energy:   -76.05857820587973

   => Energetics <=

    Nuclear Repulsion Energy =              9.0647469462519314
    One-Electron Energy =                -122.8012983183338491
    Two-Electron Energy =                  37.6779731662021931
    Total Energy =                        -76.0585782058797264
 Dipole X            :         25.1210019          -25.3280125           -0.2070106
 Dipole Y            :        -19.1611938           18.4628302           -0.6983635
 Dipole Z            :         54.4697740          -54.1135189            0.3562551
 Magnitude           :                                                    0.8108531
  Basis Set: (AUG-CC-PVTZ AUX)
    Blend: AUG-CC-PVTZ-RI
	 Reference Energy          =     -76.0585782058797264 [Eh]
	 Singles Energy            =      -0.0000000000000000 [Eh]
	 Same-Spin Energy          =      -0.0687436600663617 [Eh]
	 Opposite-Spin Energy      =      -0.2167872611149464 [Eh]
	 Correlation Energy        =      -0.2855309211813082 [Eh]
	 Total Energy              =     -76.3441091270610315 [Eh]

	 ================> DF-SCS-MP2 Energies <==================
	-----------------------------------------------------------
	 SCS Same-Spin Scale       =       0.3333333333333333 [-]
	 SCS Opposite-Spin Scale   =       1.2000000000000000 [-]
	 SCS Same-Spin Energy      =      -0.0229145533554539 [Eh]
	 SCS Opposite-Spin Energy  =      -0.2601447133379357 [Eh]
	 SCS Correlation Energy    =      -0.2830592666933896 [Eh]
	 SCS Total Energy          =     -76.3416374725731117 [Eh]
	-----------------------------------------------------------

*** Psi4 exiting successfully. Buy a developer a beer!
