                               Psi4 1.8.2 release

  ==> Input File <==

--------------------------------------------------------------------------
MEMORY 60 GB

molecule dimer {
0 1
Gh(Cl)     0.000000     0.000000     0.000000
Gh(O)      0.523611    -3.326317    -0.270829
Gh(H)      1.371760    -3.541864    -0.752050
Gh(H)      0.520142    -2.413760    -0.485172
O         -0.566034    -1.015128    -2.856991
H         -1.423681    -1.463563    -2.743114
H         -0.308453    -0.737514    -1.960884
Gh(O)      1.763372     1.458735    -2.322450
Gh(H)      1.440294     0.911291    -1.581146
Gh(H)      2.304948     0.879717    -2.772692
Gh(O)     -2.397826    -1.807276     1.763323
Gh(H)     -1.510550    -2.113811     1.658959
Gh(H)     -2.434657    -1.289060     0.981632

units ang
no_reorient
no_com
symmetry c1
}

set {
basis        aug-cc-pVTZ
scf_type     df
}

energy("mp2")
--------------------------------------------------------------------------

    Molecular point group: c1

    Geometry (in Angstrom), charge = 0, multiplicity = 1:

       Center              X                  Y                   Z               Mass
    ------------   -----------------  -----------------  -----------------  -----------------
      Gh(CL)          0.000000000000     0.000000000000     0.000000000000    34.968852682000
      Gh(O)           0.523611000000    -3.326317000000    -0.270829000000    15.994914619570
      Gh(H)           1.371760000000    -3.541864000000    -0.752050000000     1.007825032230
      Gh(H)           0.520142000000    -2.413760000000    -0.485172000000     1.007825032230
         O           -0.566034000000    -1.015128000000    -2.856991000000    15.994914619570
         H           -1.423681000000    -1.463563000000    -2.743114000000     1.007825032230
         H           -0.308453000000    -0.737514000000    -1.960884000000     1.007825032230
      Gh(O)           1.763372000000     1.458735000000    -2.322450000000    15.994914619570
      Gh(H)           1.440294000000     0.911291000000    -1.581146000000     1.007825032230
      Gh(H)           2.304948000000     0.879717000000    -2.772692000000     1.007825032230
      Gh(O)          -2.397826000000    -1.807276000000     1.763323000000    15.994914619570
      Gh(H)          -1.510550000000    -2.113811000000     1.658959000000     1.007825032230
      Gh(H)          -2.434657000000    -1.289060000000     0.981632000000     1.007825032230

  Charge       = 0
  Multiplicity = 1
  Basis Set: AUG-CC-PVTZ
    Blend: AUG-CC-PVTZ
  Basis Set: (AUG-CC-PVTZ AUX)
    Blend: AUG-CC-PVTZ-JKFIT

    Orbital Energies [Eh]
    ---------------------

    Doubly Occupied:

       1A    -20.569840     2A     -1.344954     3A     -0.709537
       4A     -0.581031     5A     -0.508894

  @DF-RHF Final Energy:   -76.05910863715712

   => Energetics <=

    Nuclear Repulsion Energy =              9.0386686450368163
    One-Electron Energy =                -122.7670387738667017
    Two-Electron Energy =                  37.6692614916727564
    Total Energy =                        -76.0591086371571237
 Dipole X            :         11.4350905          -11.8304528           -0.3953622
 Dipole Y            :         19.3938555          -19.5059439           -0.1120884
 Dipole Z            :         52.7469648          -52.0807122            0.6662527
 Magnitude           :                                                    0.7827948
  Basis Set: (AUG-CC-PVTZ AUX)
    Blend: AUG-CC-PVTZ-RI
	 Reference Energy          =     -76.0591086371571237 [Eh]
	 Singles Energy            =      -0.0000000000000000 [Eh]
	 Same-Spin Energy          =      -0.0686811148399874 [Eh]
	 Opposite-Spin Energy      =      -0.2168696614748115 [Eh]
	 Correlation Energy        =      -0.2855507763147990 [Eh]
	 Total Energy              =     -76.3446594134719163 [Eh]

	 ================> DF-SCS-MP2 Energies <==================
	-----------------------------------------------------------
	 SCS Same-Spin Scale       =       0.3333333333333333 [-]
	 SCS Opposite-Spin Scale   =       1.2000000000000000 [-]
	 SCS Same-Spin Energy      =      -0.0228937049466625 [Eh]
	 SCS Opposite-Spin Energy  =      -0.2602435937697739 [Eh]
	 SCS Correlation Energy    =      -0.2831372987164363 [Eh]
	 SCS Total Energy          =     -76.3422459358735637 [Eh]
	-----------------------------------------------------------

*** Psi4 exiting successfully. Buy a developer a beer!
