                               Psi4 1.8.2 release

  ==> Input File <==

--------------------------------------------------------------------------
MEMORY 60 GB

molecule dimer {
0 1
Gh(Cl)     0.000000     0.000000     0.000000
Gh(O)      1.179099    -2.702793    -1.094667
Gh(H)      0.929403    -2.029129    -0.462359
Gh(H)      1.092980    -3.573515    -0.633220
Gh(O)      0.081134    -0.715370     3.048829
Gh(H)      0.119206    -0.799922     2.117339
Gh(H)      0.247800     0.236344     3.210993
Gh(O)      3.112573     0.441417     0.245605
Gh(H)      3.060093     0.433467     1.176247
Gh(H)      2.153407     0.499648    -0.068952
O          1.136783     3.068748     0.881171
H          0.679395     2.461157     0.268662
H          1.062669     3.915090     0.427493

units ang
no_reorient
no_com
symmetry c1
}

set {
basis        aug-cc-pVTZ
scf_type     df
}

energy("mp2")
--------------------------------------------------------------------------

    Molecular point group: c1

    Geometry (in Angstrom), charge = 0, multiplicity = 1:

       Center              X                  Y                   Z               Mass
    ------------   -----------------  -----------------  -----------------  -----------------
      Gh(CL)          0.000000000000     0.000000000000     0.000000000000    34.968852682000
      Gh(O)           1.179099000000    -2.702793000000    -1.094667000000    15.994914619570
      Gh(H)           0.929403000000    -2.029129000000    -0.462359000000     1.007825032230
      Gh(H)           1.092980000000    -3.573515000000    -0.633220000000     1.007825032230
      Gh(O)           0.081134000000    -0.715370000000     3.048829000000    15.994914619570
      Gh(H)           0.119206000000    -0.799922000000     2.117339000000     1.007825032230
      Gh(H)           0.247800000000     0.236344000000     3.210993000000     1.007825032230
      Gh(O)           3.112573000000     0.441417000000     0.245605000000    15.994914619570
      Gh(H)           3.060093000000     0.433467000000     1.176247000000     1.007825032230
      Gh(H)           2.153407000000     0.499648000000    -0.068952000000     1.007825032230
         O            1.136783000000     3.068748000000     0.881171000000    15.994914619570
         H            0.679395000000     2.461157000000     0.268662000000     1.007825032230
         H            1.062669000000     3.915090000000     0.427493000000     1.007825032230

  Charge       = 0
  Multiplicity = 1
  Basis Set: AUG-CC-PVTZ
    Blend: AUG-CC-PVTZ
  Basis Set: (AUG-CC-PVTZ AUX)
    Blend: AUG-CC-PVTZ-JKFIT

    Orbital Energies [Eh]
    ---------------------

    Doubly Occupied:

       1A    -20.570294     2A     -1.348694     3A     -0.706994
       4A     -0.586556     5A     -0.509951

  @DF-RHF Final Energy:   -76.05924192897118

   => Energetics <=

    Nuclear Repulsion Energy =              9.0808201121821881
    One-Electron Energy =                -122.8351436440629527
    Two-Electron Energy =                  37.6950816029096032
    Total Energy =                        -76.0592419289711756
 Dipole X            :        -20.8262635           20.4776921           -0.3485714
 Dipole Y            :        -58.2829693           58.4421067            0.1591374
 Dipole Z            :        -15.3367320           14.6369172           -0.6998148
 Magnitude           :                                                    0.7978518
  Basis Set: (AUG-CC-PVTZ AUX)
    Blend: AUG-CC-PVTZ-RI
	 Reference Energy          =     -76.0592419289711756 [Eh]
	 Singles Energy            =      -0.0000000000000000 [Eh]
	 Same-Spin Energy          =      -0.0686389614063062 [Eh]
	 Opposite-Spin Energy      =      -0.2163070388635303 [Eh]
	 Correlation Energy        =      -0.2849460002698365 [Eh]
	 Total Energy              =     -76.3441879292410164 [Eh]

	 ================> DF-SCS-MP2 Energies <==================
	-----------------------------------------------------------
	 SCS Same-Spin Scale       =       0.3333333333333333 [-]
	 SCS Opposite-Spin Scale   =       1.2000000000000000 [-]
	 SCS Same-Spin Energy      =      -0.0228796538021021 [Eh]
	 SCS Opposite-Spin Energy  =      -0.2595684466362363 [Eh]
	 SCS Correlation Energy    =      -0.2824481004383384 [Eh]
	 SCS Total Energy          =     -76.3416900294095200 [Eh]
	-----------------------------------------------------------

*** Psi4 exiting successfully. Buy a developer a beer!
