                               Psi4 1.8.2 release

  ==> Input File <==

--------------------------------------------------------------------------
MEMORY 60 GB

molecule dimer {
-1 1
Cl         0.000000     0.000000     0.000000
O          2.306524     0.633217    -2.188513
H          1.570454     0.370574    -1.615926
H          2.887146    -0.151513    -2.257538
O          0.078149     0.201119     3.270859
H          0.255800     0.302782     2.290721
H         -0.317832     0.962546     3.712858
O          0.602014    -3.026089     0.733427
H         -0.271511    -3.137610     1.226318
H          0.722809    -2.074794     0.669439
O          2.057172     1.804508     1.691988
H          1.703814     1.155732     1.058885
H          2.867329     1.350957     1.953438

units ang
no_reorient
no_com
symmetry c1
}

set {
basis        aug-cc-pVTZ
scf_type     df
}

energy("mp2")
--------------------------------------------------------------------------

    Molecular point group: c1

    Geometry (in Angstrom), charge = -1, multiplicity = 1:

       Center              X                  Y                   Z               Mass
    ------------   -----------------  -----------------  -----------------  -----------------
         CL           0.000000000000     0.000000000000     0.000000000000    34.968852682000
         O            2.306524000000     0.633217000000    -2.188513000000    15.994914619570
         H            1.570454000000     0.370574000000    -1.615926000000     1.007825032230
         H            2.887146000000    -0.151513000000    -2.257538000000     1.007825032230
         O            0.078149000000     0.201119000000     3.270859000000    15.994914619570
         H            0.255800000000     0.302782000000     2.290721000000     1.007825032230
         H           -0.317832000000     0.962546000000     3.712858000000     1.007825032230
         O            0.602014000000    -3.026089000000     0.733427000000    15.994914619570
         H           -0.271511000000    -3.137610000000     1.226318000000     1.007825032230
         H            0.722809000000    -2.074794000000     0.669439000000     1.007825032230
         O            2.057172000000     1.804508000000     1.691988000000    15.994914619570
         H            1.703814000000     1.155732000000     1.058885000000     1.007825032230
         H            2.867329000000     1.350957000000     1.953438000000     1.007825032230

  Charge       = -1
  Multiplicity = 1
  Basis Set: AUG-CC-PVTZ
    Blend: AUG-CC-PVTZ
  Basis Set: (AUG-CC-PVTZ AUX)
    Blend: AUG-CC-PVTZ-JKFIT

    Orbital Energies [Eh]
    ---------------------

    Doubly Occupied:

       1A   -104.579289     2A    -20.413932     3A    -20.413617
       4A    -20.410901     5A    -20.401524     6A    -10.304531
       7A     -7.770625     8A     -7.770586     9A     -7.770551
      10A     -1.199157    11A     -1.192153    12A     -1.182672
      13A     -1.173021    14A     -0.823280    15A     -0.568118
      16A     -0.560608    17A     -0.549334    18A     -0.547304
      19A     -0.443267    20A     -0.431488    21A     -0.428018
      22A     -0.404230    23A     -0.365820    24A     -0.357330
      25A     -0.352484    26A     -0.336776    27A     -0.235445
      28A     -0.233931    29A     -0.231253

  @DF-RHF Final Energy:  -763.85192574230769

   => Energetics <=

    Nuclear Repulsion Energy =            225.5734170836196881
    One-Electron Energy =               -1515.9481882914915332
    Two-Electron Energy =                 526.5228454655641599
    Total Energy =                       -763.8519257423076851
 Dipole X            :        -95.1192464           94.0495547           -1.0696917
 Dipole Y            :          8.0402660           -8.1622676           -0.1220016
 Dipole Z            :        -66.7198963           66.3299218           -0.3899745
 Magnitude           :                                                    1.1450786
  Basis Set: (AUG-CC-PVTZ AUX)
    Blend: AUG-CC-PVTZ-RI
	 Reference Energy          =    -763.8519257423076851 [Eh]
	 Singles Energy            =      -0.0000000000000000 [Eh]
	 Same-Spin Energy          =      -0.3475450579749095 [Eh]
	 Opposite-Spin Energy      =      -1.0575557387508498 [Eh]
	 Correlation Energy        =      -1.4051007967257594 [Eh]
	 Total Energy              =    -765.2570265390334043 [Eh]

	 ================> DF-SCS-MP2 Energies <==================
	-----------------------------------------------------------
	 SCS Same-Spin Scale       =       0.3333333333333333 [-]
	 SCS Opposite-Spin Scale   =       1.2000000000000000 [-]
	 SCS Same-Spin Energy      =      -0.1158483526583032 [Eh]
	 SCS Opposite-Spin Energy  =      -1.2690668865010197 [Eh]
	 SCS Correlation Energy    =      -1.3849152391593229 [Eh]
	 SCS Total Energy          =    -765.2368409814670258 [Eh]
	-----------------------------------------------------------

*** Psi4 exiting successfully. Buy a developer a beer!
