                               Psi4 1.8.2 release

  ==> Input File <==

--------------------------------------------------------------------------
MEMORY 60 GB

molecule dimer {
0 1
Gh(Cl)     0.000000     0.000000     0.000000
Gh(O)     -2.639249    -2.043355    -0.424183
Gh(H)     -1.808856    -1.471762    -0.429724
Gh(H)     -2.641062    -2.333764    -1.316977
O          0.403629    -2.390235     2.477646
H         -0.432481    -2.907837     2.347215
H          0.412111    -1.672041     1.879690
Gh(O)     -0.714179     0.377929    -3.329396
Gh(H)     -1.198332    -0.133274    -2.628707
Gh(H)     -0.377953     1.213673    -2.933940
Gh(O)     -2.634641     1.896873     0.738049
Gh(H)     -1.800704     1.389428     0.628177
Gh(H)     -2.528308     2.751205     0.372104
Gh(O)      0.783633    -2.645861    -1.980641
Gh(H)      0.893785    -2.060143    -2.776260
Gh(H)      0.469594    -2.121247    -1.272007

units ang
no_reorient
no_com
symmetry c1
}

set {
basis        aug-cc-pVTZ
scf_type     df
}

energy("mp2")
--------------------------------------------------------------------------

    Molecular point group: c1

    Geometry (in Angstrom), charge = 0, multiplicity = 1:

       Center              X                  Y                   Z               Mass
    ------------   -----------------  -----------------  -----------------  -----------------
      Gh(CL)          0.000000000000     0.000000000000     0.000000000000    34.968852682000
      Gh(O)          -2.639249000000    -2.043355000000    -0.424183000000    15.994914619570
      Gh(H)          -1.808856000000    -1.471762000000    -0.429724000000     1.007825032230
      Gh(H)          -2.641062000000    -2.333764000000    -1.316977000000     1.007825032230
         O            0.403629000000    -2.390235000000     2.477646000000    15.994914619570
         H           -0.432481000000    -2.907837000000     2.347215000000     1.007825032230
         H            0.412111000000    -1.672041000000     1.879690000000     1.007825032230
      Gh(O)          -0.714179000000     0.377929000000    -3.329396000000    15.994914619570
      Gh(H)          -1.198332000000    -0.133274000000    -2.628707000000     1.007825032230
      Gh(H)          -0.377953000000     1.213673000000    -2.933940000000     1.007825032230
      Gh(O)          -2.634641000000     1.896873000000     0.738049000000    15.994914619570
      Gh(H)          -1.800704000000     1.389428000000     0.628177000000     1.007825032230
      Gh(H)          -2.528308000000     2.751205000000     0.372104000000     1.007825032230
      Gh(O)           0.783633000000    -2.645861000000    -1.980641000000    15.994914619570
      Gh(H)           0.893785000000    -2.060143000000    -2.776260000000     1.007825032230
      Gh(H)           0.469594000000    -2.121247000000    -1.272007000000     1.007825032230

  Charge       = 0
  Multiplicity = 1
  Basis Set: AUG-CC-PVTZ
    Blend: AUG-CC-PVTZ
  Basis Set: (AUG-CC-PVTZ AUX)
    Blend: AUG-CC-PVTZ-JKFIT

    Orbital Energies [Eh]
    ---------------------

    Doubly Occupied:

       1A    -20.566043     2A     -1.348179     3A     -0.722971
       4A     -0.574945     5A     -0.508570

  @DF-RHF Final Energy:   -76.05832304559937

   => Energetics <=

    Nuclear Repulsion Energy =              9.1349306323284463
    One-Electron Energy =                -122.9450873683768890
    Two-Electron Energy =                  37.7518336904490894
    Total Energy =                        -76.0583230455993515
 Dipole X            :         -6.6151237            6.0634924           -0.5516313
 Dipole Y            :         44.9317566          -44.7898313            0.1419253
 Dipole Z            :        -45.9366477           45.4442718           -0.4923759
 Magnitude           :                                                    0.7529103
  Basis Set: (AUG-CC-PVTZ AUX)
    Blend: AUG-CC-PVTZ-RI
	 Reference Energy          =     -76.0583230455993657 [Eh]
	 Singles Energy            =      -0.0000000000000000 [Eh]
	 Same-Spin Energy          =      -0.0684058648727798 [Eh]
	 Opposite-Spin Energy      =      -0.2158931597756044 [Eh]
	 Correlation Energy        =      -0.2842990246483842 [Eh]
	 Total Energy              =     -76.3426220702477565 [Eh]

	 ================> DF-SCS-MP2 Energies <==================
	-----------------------------------------------------------
	 SCS Same-Spin Scale       =       0.3333333333333333 [-]
	 SCS Opposite-Spin Scale   =       1.2000000000000000 [-]
	 SCS Same-Spin Energy      =      -0.0228019549575933 [Eh]
	 SCS Opposite-Spin Energy  =      -0.2590717917307253 [Eh]
	 SCS Correlation Energy    =      -0.2818737466883185 [Eh]
	 SCS Total Energy          =     -76.3401967922876850 [Eh]
	-----------------------------------------------------------

*** Psi4 exiting successfully. Buy a developer a beer!
