                               Psi4 1.8.2 release

  ==> Input File <==

--------------------------------------------------------------------------
MEMORY 60 GB

molecule dimer {
0 1
Gh(Cl)     0.000000     0.000000     0.000000
Gh(O)     -2.041021    -2.196464    -1.333745
Gh(H)     -1.300794    -2.029781    -0.728894
Gh(H)     -2.698392    -2.708355    -0.840419
Gh(O)      0.419223     0.084825    -3.085711
Gh(H)     -0.280779     0.277678    -3.790691
Gh(H)      0.077234     0.159042    -2.208543
O          3.090762    -0.717603    -0.627277
H          3.080613    -1.289849    -1.410804
H          2.118014    -0.454394    -0.575587
Gh(O)      0.777671     3.142833     0.471574
Gh(H)      1.633570     3.312266     0.051366
Gh(H)      0.542632     2.198669     0.371825

units ang
no_reorient
no_com
symmetry c1
}

set {
basis        aug-cc-pVTZ
scf_type     df
}

energy("mp2")
--------------------------------------------------------------------------

    Molecular point group: c1

    Geometry (in Angstrom), charge = 0, multiplicity = 1:

       Center              X                  Y                   Z               Mass
    ------------   -----------------  -----------------  -----------------  -----------------
      Gh(CL)          0.000000000000     0.000000000000     0.000000000000    34.968852682000
      Gh(O)          -2.041021000000    -2.196464000000    -1.333745000000    15.994914619570
      Gh(H)          -1.300794000000    -2.029781000000    -0.728894000000     1.007825032230
      Gh(H)          -2.698392000000    -2.708355000000    -0.840419000000     1.007825032230
      Gh(O)           0.419223000000     0.084825000000    -3.085711000000    15.994914619570
      Gh(H)          -0.280779000000     0.277678000000    -3.790691000000     1.007825032230
      Gh(H)           0.077234000000     0.159042000000    -2.208543000000     1.007825032230
         O            3.090762000000    -0.717603000000    -0.627277000000    15.994914619570
         H            3.080613000000    -1.289849000000    -1.410804000000     1.007825032230
         H            2.118014000000    -0.454394000000    -0.575587000000     1.007825032230
      Gh(O)           0.777671000000     3.142833000000     0.471574000000    15.994914619570
      Gh(H)           1.633570000000     3.312266000000     0.051366000000     1.007825032230
      Gh(H)           0.542632000000     2.198669000000     0.371825000000     1.007825032230

  Charge       = 0
  Multiplicity = 1
  Basis Set: AUG-CC-PVTZ
    Blend: AUG-CC-PVTZ
  Basis Set: (AUG-CC-PVTZ AUX)
    Blend: AUG-CC-PVTZ-JKFIT

    Orbital Energies [Eh]
    ---------------------

    Doubly Occupied:

       1A    -20.574435     2A     -1.340410     3A     -0.693386
       4A     -0.585939     5A     -0.508988

  @DF-RHF Final Energy:   -76.05559432247678

   => Energetics <=

    Nuclear Repulsion Energy =              8.9056892852745246
    One-Electron Energy =                -122.5162475611153923
    Two-Electron Energy =                  37.5549639533641013
    Total Energy =                        -76.0555943224767645
 Dipole X            :        -57.1793819           56.5495309           -0.6298511
 Dipole Y            :         13.9413463          -14.1447267           -0.2033804
 Dipole Z            :         12.7603581          -13.2367888           -0.4764308
 Magnitude           :                                                    0.8155135
  Basis Set: (AUG-CC-PVTZ AUX)
    Blend: AUG-CC-PVTZ-RI
	 Reference Energy          =     -76.0555943224767788 [Eh]
	 Singles Energy            =      -0.0000000000000000 [Eh]
	 Same-Spin Energy          =      -0.0690432080570674 [Eh]
	 Opposite-Spin Energy      =      -0.2177748593475030 [Eh]
	 Correlation Energy        =      -0.2868180674045705 [Eh]
	 Total Energy              =     -76.3424123898813463 [Eh]

	 ================> DF-SCS-MP2 Energies <==================
	-----------------------------------------------------------
	 SCS Same-Spin Scale       =       0.3333333333333333 [-]
	 SCS Opposite-Spin Scale   =       1.2000000000000000 [-]
	 SCS Same-Spin Energy      =      -0.0230144026856891 [Eh]
	 SCS Opposite-Spin Energy  =      -0.2613298312170036 [Eh]
	 SCS Correlation Energy    =      -0.2843442339026928 [Eh]
	 SCS Total Energy          =     -76.3399385563794652 [Eh]
	-----------------------------------------------------------

*** Psi4 exiting successfully. Buy a developer a beer!
