                               Psi4 1.8.2 release

  ==> Input File <==

--------------------------------------------------------------------------
MEMORY 60 GB

molecule dimer {
0 1
Gh(Cl)     0.000000     0.000000     0.000000
Gh(O)     -0.492503    -3.205237    -1.072721
Gh(H)     -0.160426    -3.707051    -0.306645
Gh(H)     -0.669682    -2.344857    -0.639707
Gh(O)      1.175860     2.754777    -0.846269
Gh(H)      0.509189     2.080200    -0.680117
Gh(H)      0.850151     3.534482    -0.372311
O          1.094463     2.253006     1.985402
H          0.167817     2.461694     2.105720
H          1.107492     1.486664     1.400269
Gh(O)     -2.181360    -0.134466     2.316522
Gh(H)     -2.488476    -0.815776     1.739941
Gh(H)     -1.316019     0.166729     1.976239
Gh(O)      2.825452    -0.879212     0.944999
Gh(H)      1.891967    -0.727444     0.892758
Gh(H)      3.307089    -0.017689     1.010326

units ang
no_reorient
no_com
symmetry c1
}

set {
basis        aug-cc-pVTZ
scf_type     df
}

energy("mp2")
--------------------------------------------------------------------------

    Molecular point group: c1

    Geometry (in Angstrom), charge = 0, multiplicity = 1:

       Center              X                  Y                   Z               Mass
    ------------   -----------------  -----------------  -----------------  -----------------
      Gh(CL)          0.000000000000     0.000000000000     0.000000000000    34.968852682000
      Gh(O)          -0.492503000000    -3.205237000000    -1.072721000000    15.994914619570
      Gh(H)          -0.160426000000    -3.707051000000    -0.306645000000     1.007825032230
      Gh(H)          -0.669682000000    -2.344857000000    -0.639707000000     1.007825032230
      Gh(O)           1.175860000000     2.754777000000    -0.846269000000    15.994914619570
      Gh(H)           0.509189000000     2.080200000000    -0.680117000000     1.007825032230
      Gh(H)           0.850151000000     3.534482000000    -0.372311000000     1.007825032230
         O            1.094463000000     2.253006000000     1.985402000000    15.994914619570
         H            0.167817000000     2.461694000000     2.105720000000     1.007825032230
         H            1.107492000000     1.486664000000     1.400269000000     1.007825032230
      Gh(O)          -2.181360000000    -0.134466000000     2.316522000000    15.994914619570
      Gh(H)          -2.488476000000    -0.815776000000     1.739941000000     1.007825032230
      Gh(H)          -1.316019000000     0.166729000000     1.976239000000     1.007825032230
      Gh(O)           2.825452000000    -0.879212000000     0.944999000000    15.994914619570
      Gh(H)           1.891967000000    -0.727444000000     0.892758000000     1.007825032230
      Gh(H)           3.307089000000    -0.017689000000     1.010326000000     1.007825032230

  Charge       = 0
  Multiplicity = 1
  Basis Set: AUG-CC-PVTZ
    Blend: AUG-CC-PVTZ
  Basis Set: (AUG-CC-PVTZ AUX)
    Blend: AUG-CC-PVTZ-JKFIT

    Orbital Energies [Eh]
    ---------------------

    Doubly Occupied:

       1A    -20.567383     2A     -1.351138     3A     -0.717122
       4A     -0.582771     5A     -0.509819

  @DF-RHF Final Energy:   -76.06046886705903

   => Energetics <=

    Nuclear Repulsion Energy =              9.1584065986375585
    One-Electron Energy =                -122.9812836404316130
    Two-Electron Energy =                  37.7624081747350218
    Total Energy =                        -76.0604688670590292
 Dipole X            :        -19.5639877           18.9558673           -0.6081204
 Dipole Y            :        -41.8921342           41.5218297           -0.3703045
 Dipole Z            :        -36.9489004           36.6402872           -0.3086132
 Magnitude           :                                                    0.7760012
  Basis Set: (AUG-CC-PVTZ AUX)
    Blend: AUG-CC-PVTZ-RI
	 Reference Energy          =     -76.0604688670590292 [Eh]
	 Singles Energy            =      -0.0000000000000000 [Eh]
	 Same-Spin Energy          =      -0.0684656887776275 [Eh]
	 Opposite-Spin Energy      =      -0.2162289120640646 [Eh]
	 Correlation Energy        =      -0.2846946008416920 [Eh]
	 Total Energy              =     -76.3451634679007185 [Eh]

	 ================> DF-SCS-MP2 Energies <==================
	-----------------------------------------------------------
	 SCS Same-Spin Scale       =       0.3333333333333333 [-]
	 SCS Opposite-Spin Scale   =       1.2000000000000000 [-]
	 SCS Same-Spin Energy      =      -0.0228218962592092 [Eh]
	 SCS Opposite-Spin Energy  =      -0.2594746944768774 [Eh]
	 SCS Correlation Energy    =      -0.2822965907360866 [Eh]
	 SCS Total Energy          =     -76.3427654577951103 [Eh]
	-----------------------------------------------------------

*** Psi4 exiting successfully. Buy a developer a beer!
