                               Psi4 1.8.2 release

  ==> Input File <==

--------------------------------------------------------------------------
MEMORY 60 GB

molecule dimer {
-1 1
Cl         0.000000     0.000000     0.000000
Gh(O)      1.843131    -2.928078     0.028869
Gh(H)      1.734144    -3.339101    -0.815892
Gh(H)      1.476043    -2.034862    -0.124140
Gh(O)     -0.739325     0.185713     3.270818
Gh(H)     -0.593132     0.273354     2.341271
Gh(H)     -1.651095     0.407133     3.553063
Gh(O)      3.026441     0.116813     0.654019
Gh(H)      3.740367    -0.459401     0.917951
Gh(H)      2.256261    -0.016604     1.231702
Gh(O)     -3.062313     1.140314    -0.135008
Gh(H)     -3.441508     1.597141     0.629278
Gh(H)     -2.174978     0.899555     0.162993
Gh(O)      0.894047     2.914112    -0.227527
Gh(H)      1.684458     3.103862     0.278795
Gh(H)      0.585305     2.078635     0.100756

units ang
no_reorient
no_com
symmetry c1
}

set {
basis        aug-cc-pVTZ
scf_type     df
}

energy("mp2")
--------------------------------------------------------------------------

    Molecular point group: c1

    Geometry (in Angstrom), charge = -1, multiplicity = 1:

       Center              X                  Y                   Z               Mass
    ------------   -----------------  -----------------  -----------------  -----------------
         CL           0.000000000000     0.000000000000     0.000000000000    34.968852682000
      Gh(O)           1.843131000000    -2.928078000000     0.028869000000    15.994914619570
      Gh(H)           1.734144000000    -3.339101000000    -0.815892000000     1.007825032230
      Gh(H)           1.476043000000    -2.034862000000    -0.124140000000     1.007825032230
      Gh(O)          -0.739325000000     0.185713000000     3.270818000000    15.994914619570
      Gh(H)          -0.593132000000     0.273354000000     2.341271000000     1.007825032230
      Gh(H)          -1.651095000000     0.407133000000     3.553063000000     1.007825032230
      Gh(O)           3.026441000000     0.116813000000     0.654019000000    15.994914619570
      Gh(H)           3.740367000000    -0.459401000000     0.917951000000     1.007825032230
      Gh(H)           2.256261000000    -0.016604000000     1.231702000000     1.007825032230
      Gh(O)          -3.062313000000     1.140314000000    -0.135008000000    15.994914619570
      Gh(H)          -3.441508000000     1.597141000000     0.629278000000     1.007825032230
      Gh(H)          -2.174978000000     0.899555000000     0.162993000000     1.007825032230
      Gh(O)           0.894047000000     2.914112000000    -0.227527000000    15.994914619570
      Gh(H)           1.684458000000     3.103862000000     0.278795000000     1.007825032230
      Gh(H)           0.585305000000     2.078635000000     0.100756000000     1.007825032230

  Charge       = -1
  Multiplicity = 1
  Basis Set: AUG-CC-PVTZ
    Blend: AUG-CC-PVTZ
  Basis Set: (AUG-CC-PVTZ AUX)
    Blend: AUG-CC-PVTZ-JKFIT

    Orbital Energies [Eh]
    ---------------------

    Doubly Occupied:

       1A   -104.507233     2A    -10.230051     3A     -7.696122
       4A     -7.696107     5A     -7.696093     6A     -0.733465
       7A     -0.150310     8A     -0.150303     9A     -0.150301

  @DF-RHF Final Energy:  -459.57357539777649

   => Energetics <=

    Nuclear Repulsion Energy =              0.0000000000000000
    One-Electron Energy =                -641.1271939862000409
    Two-Electron Energy =                 181.5536185884236033
    Total Energy =                       -459.5735753977764375
 Dipole X            :          0.0000700            0.0000000            0.0000700
 Dipole Y            :          0.0001762            0.0000000            0.0001762
 Dipole Z            :          0.0003736            0.0000000            0.0003736
 Magnitude           :                                                    0.0004189
  Basis Set: (AUG-CC-PVTZ AUX)
    Blend: AUG-CC-PVTZ-RI
	 Reference Energy          =    -459.5735753977764944 [Eh]
	 Singles Energy            =      -0.0000000000000000 [Eh]
	 Same-Spin Energy          =      -0.0635013732328397 [Eh]
	 Opposite-Spin Energy      =      -0.1836373329221679 [Eh]
	 Correlation Energy        =      -0.2471387061550076 [Eh]
	 Total Energy              =    -459.8207141039314934 [Eh]

	 ================> DF-SCS-MP2 Energies <==================
	-----------------------------------------------------------
	 SCS Same-Spin Scale       =       0.3333333333333333 [-]
	 SCS Opposite-Spin Scale   =       1.2000000000000000 [-]
	 SCS Same-Spin Energy      =      -0.0211671244109466 [Eh]
	 SCS Opposite-Spin Energy  =      -0.2203647995066015 [Eh]
	 SCS Correlation Energy    =      -0.2415319239175480 [Eh]
	 SCS Total Energy          =    -459.8151073216940290 [Eh]
	-----------------------------------------------------------

*** Psi4 exiting successfully. Buy a developer a beer!
