                               Psi4 1.8.2 release

  ==> Input File <==

--------------------------------------------------------------------------
MEMORY 60 GB

molecule dimer {
0 1
Gh(Cl)     0.000000     0.000000     0.000000
O         -1.699511    -2.602859     1.388887
H         -1.009799    -3.281339     1.476309
H         -1.370004    -1.833268     0.834273
Gh(O)      2.047824    -2.283636     1.627081
Gh(H)      2.928790    -2.527615     1.228704
Gh(H)      2.063927    -1.332444     1.617770
Gh(O)     -2.694511     1.035503     1.396479
Gh(H)     -3.182629     0.216460     1.160035
Gh(H)     -1.779856     0.860726     1.190389
Gh(O)      1.374557    -2.211274    -1.879035
Gh(H)      1.185050    -3.173037    -1.766271
Gh(H)      1.030023    -1.776112    -1.054907
Gh(O)     -1.324787    -2.152761    -2.403691
Gh(H)     -0.760749    -1.736481    -1.759069
Gh(H)     -0.832269    -2.768136    -2.931446

units ang
no_reorient
no_com
symmetry c1
}

set {
basis        aug-cc-pVTZ
scf_type     df
}

energy("mp2")
--------------------------------------------------------------------------

    Molecular point group: c1

    Geometry (in Angstrom), charge = 0, multiplicity = 1:

       Center              X                  Y                   Z               Mass
    ------------   -----------------  -----------------  -----------------  -----------------
      Gh(CL)          0.000000000000     0.000000000000     0.000000000000    34.968852682000
         O           -1.699511000000    -2.602859000000     1.388887000000    15.994914619570
         H           -1.009799000000    -3.281339000000     1.476309000000     1.007825032230
         H           -1.370004000000    -1.833268000000     0.834273000000     1.007825032230
      Gh(O)           2.047824000000    -2.283636000000     1.627081000000    15.994914619570
      Gh(H)           2.928790000000    -2.527615000000     1.228704000000     1.007825032230
      Gh(H)           2.063927000000    -1.332444000000     1.617770000000     1.007825032230
      Gh(O)          -2.694511000000     1.035503000000     1.396479000000    15.994914619570
      Gh(H)          -3.182629000000     0.216460000000     1.160035000000     1.007825032230
      Gh(H)          -1.779856000000     0.860726000000     1.190389000000     1.007825032230
      Gh(O)           1.374557000000    -2.211274000000    -1.879035000000    15.994914619570
      Gh(H)           1.185050000000    -3.173037000000    -1.766271000000     1.007825032230
      Gh(H)           1.030023000000    -1.776112000000    -1.054907000000     1.007825032230
      Gh(O)          -1.324787000000    -2.152761000000    -2.403691000000    15.994914619570
      Gh(H)          -0.760749000000    -1.736481000000    -1.759069000000     1.007825032230
      Gh(H)          -0.832269000000    -2.768136000000    -2.931446000000     1.007825032230

  Charge       = 0
  Multiplicity = 1
  Basis Set: AUG-CC-PVTZ
    Blend: AUG-CC-PVTZ
  Basis Set: (AUG-CC-PVTZ AUX)
    Blend: AUG-CC-PVTZ-JKFIT

    Orbital Energies [Eh]
    ---------------------

    Doubly Occupied:

       1A    -20.569371     2A     -1.334495     3A     -0.712031
       4A     -0.567290     5A     -0.505960

  @DF-RHF Final Energy:   -76.05564899147242

   => Energetics <=

    Nuclear Repulsion Energy =              8.8993310719088399
    One-Electron Energy =                -122.5316616397088580
    Two-Electron Energy =                  37.5766815763275943
    Total Energy =                        -76.0556489914724239
 Dipole X            :         30.8688855          -30.1900586            0.6788269
 Dipole Y            :         49.0715668          -49.0147317            0.0568351
 Dipole Z            :        -25.6722870           25.3632956           -0.3089914
 Magnitude           :                                                    0.7480053
  Basis Set: (AUG-CC-PVTZ AUX)
    Blend: AUG-CC-PVTZ-RI
	 Reference Energy          =     -76.0556489914724239 [Eh]
	 Singles Energy            =      -0.0000000000000000 [Eh]
	 Same-Spin Energy          =      -0.0688439408684402 [Eh]
	 Opposite-Spin Energy      =      -0.2172331367576910 [Eh]
	 Correlation Energy        =      -0.2860770776261312 [Eh]
	 Total Energy              =     -76.3417260690985557 [Eh]

	 ================> DF-SCS-MP2 Energies <==================
	-----------------------------------------------------------
	 SCS Same-Spin Scale       =       0.3333333333333333 [-]
	 SCS Opposite-Spin Scale   =       1.2000000000000000 [-]
	 SCS Same-Spin Energy      =      -0.0229479802894801 [Eh]
	 SCS Opposite-Spin Energy  =      -0.2606797641092292 [Eh]
	 SCS Correlation Energy    =      -0.2836277443987093 [Eh]
	 SCS Total Energy          =     -76.3392767358711382 [Eh]
	-----------------------------------------------------------

*** Psi4 exiting successfully. Buy a developer a beer!
