                               Psi4 1.8.2 release

  ==> Input File <==

--------------------------------------------------------------------------
MEMORY 60 GB

molecule dimer {
0 1
Gh(Cl)     0.000000     0.000000     0.000000
Gh(O)      2.347456    -0.658120     1.836924
Gh(H)      1.503461    -0.342108     1.498010
Gh(H)      3.023913    -0.371611     1.184006
Gh(O)      1.476974    -2.981181    -0.401283
Gh(H)      1.428877    -2.124141     0.044335
Gh(H)      0.987391    -2.973805    -1.261521
Gh(O)      1.221048    -0.028193    -3.177290
Gh(H)      0.809868    -0.267015    -2.372466
Gh(H)      1.740949     0.746334    -2.920550
Gh(O)     -0.343156     1.510349     2.607781
Gh(H)     -0.163751     0.855136     1.877864
Gh(H)      0.291671     2.275670     2.361551
O         -1.949830    -2.734697     0.889703
H         -2.584009    -2.204144     1.367376
H         -1.302316    -2.065112     0.692981

units ang
no_reorient
no_com
symmetry c1
}

set {
basis        aug-cc-pVTZ
scf_type     df
}

energy("mp2")
--------------------------------------------------------------------------

    Molecular point group: c1

    Geometry (in Angstrom), charge = 0, multiplicity = 1:

       Center              X                  Y                   Z               Mass
    ------------   -----------------  -----------------  -----------------  -----------------
      Gh(CL)          0.000000000000     0.000000000000     0.000000000000    34.968852682000
      Gh(O)           2.347456000000    -0.658120000000     1.836924000000    15.994914619570
      Gh(H)           1.503461000000    -0.342108000000     1.498010000000     1.007825032230
      Gh(H)           3.023913000000    -0.371611000000     1.184006000000     1.007825032230
      Gh(O)           1.476974000000    -2.981181000000    -0.401283000000    15.994914619570
      Gh(H)           1.428877000000    -2.124141000000     0.044335000000     1.007825032230
      Gh(H)           0.987391000000    -2.973805000000    -1.261521000000     1.007825032230
      Gh(O)           1.221048000000    -0.028193000000    -3.177290000000    15.994914619570
      Gh(H)           0.809868000000    -0.267015000000    -2.372466000000     1.007825032230
      Gh(H)           1.740949000000     0.746334000000    -2.920550000000     1.007825032230
      Gh(O)          -0.343156000000     1.510349000000     2.607781000000    15.994914619570
      Gh(H)          -0.163751000000     0.855136000000     1.877864000000     1.007825032230
      Gh(H)           0.291671000000     2.275670000000     2.361551000000     1.007825032230
         O           -1.949830000000    -2.734697000000     0.889703000000    15.994914619570
         H           -2.584009000000    -2.204144000000     1.367376000000     1.007825032230
         H           -1.302316000000    -2.065112000000     0.692981000000     1.007825032230

  Charge       = 0
  Multiplicity = 1
  Basis Set: AUG-CC-PVTZ
    Blend: AUG-CC-PVTZ
  Basis Set: (AUG-CC-PVTZ AUX)
    Blend: AUG-CC-PVTZ-JKFIT

    Orbital Energies [Eh]
    ---------------------

    Doubly Occupied:

       1A    -20.568618     2A     -1.359337     3A     -0.709641
       4A     -0.595651     5A     -0.512105

  @DF-RHF Final Energy:   -76.05980276353392

   => Energetics <=

    Nuclear Repulsion Energy =              9.2438868703379935
    One-Electron Energy =                -123.1166698941615181
    Two-Electron Energy =                  37.8129802602896063
    Total Energy =                        -76.0598027635339236
 Dipole X            :         36.8306646          -36.8212474            0.0094172
 Dipole Y            :         50.1998253          -49.4103515            0.7894738
 Dipole Z            :        -17.1594775           17.3438705            0.1843930
 Magnitude           :                                                    0.8107763
  Basis Set: (AUG-CC-PVTZ AUX)
    Blend: AUG-CC-PVTZ-RI
	 Reference Energy          =     -76.0598027635339236 [Eh]
	 Singles Energy            =      -0.0000000000000000 [Eh]
	 Same-Spin Energy          =      -0.0684435230512673 [Eh]
	 Opposite-Spin Energy      =      -0.2158865843917151 [Eh]
	 Correlation Energy        =      -0.2843301074429824 [Eh]
	 Total Energy              =     -76.3441328709769067 [Eh]

	 ================> DF-SCS-MP2 Energies <==================
	-----------------------------------------------------------
	 SCS Same-Spin Scale       =       0.3333333333333333 [-]
	 SCS Opposite-Spin Scale   =       1.2000000000000000 [-]
	 SCS Same-Spin Energy      =      -0.0228145076837558 [Eh]
	 SCS Opposite-Spin Energy  =      -0.2590639012700581 [Eh]
	 SCS Correlation Energy    =      -0.2818784089538139 [Eh]
	 SCS Total Energy          =     -76.3416811724877391 [Eh]
	-----------------------------------------------------------

*** Psi4 exiting successfully. Buy a developer a beer!
