                               Psi4 1.8.2 release

  ==> Input File <==

--------------------------------------------------------------------------
MEMORY 60 GB

molecule dimer {
-1 1
Cl         0.000000     0.000000     0.000000
Gh(O)     -2.143902     2.687894     0.369827
Gh(H)     -1.751923     1.916157    -0.042508
Gh(H)     -1.445437     3.008980     0.964821
Gh(O)      1.417822     2.683757    -0.963726
Gh(H)      1.031224     1.892839    -0.638075
Gh(H)      2.176857     2.933195    -0.408350
Gh(O)      2.157044    -1.948549     1.619987
Gh(H)      1.520347    -1.260861     1.273406
Gh(H)      3.039464    -1.804037     1.249342
Gh(O)      0.806693     1.251237     2.760041
Gh(H)      1.460046     1.848920     2.529623
Gh(H)      0.603623     0.876975     1.911660
Gh(O)     -0.281475     0.477673    -3.053473
Gh(H)     -0.340130     0.334391    -2.127821
Gh(H)      0.648817     0.768530    -3.252626
Gh(O)      2.027069    -1.802246    -1.829283
Gh(H)      1.495188    -2.466996    -2.164289
Gh(H)      1.704265    -1.376629    -1.005788

units ang
no_reorient
no_com
symmetry c1
}

set {
basis        aug-cc-pVTZ
scf_type     df
}

energy("mp2")
--------------------------------------------------------------------------

    Molecular point group: c1

    Geometry (in Angstrom), charge = -1, multiplicity = 1:

       Center              X                  Y                   Z               Mass
    ------------   -----------------  -----------------  -----------------  -----------------
         CL           0.000000000000     0.000000000000     0.000000000000    34.968852682000
      Gh(O)          -2.143902000000     2.687894000000     0.369827000000    15.994914619570
      Gh(H)          -1.751923000000     1.916157000000    -0.042508000000     1.007825032230
      Gh(H)          -1.445437000000     3.008980000000     0.964821000000     1.007825032230
      Gh(O)           1.417822000000     2.683757000000    -0.963726000000    15.994914619570
      Gh(H)           1.031224000000     1.892839000000    -0.638075000000     1.007825032230
      Gh(H)           2.176857000000     2.933195000000    -0.408350000000     1.007825032230
      Gh(O)           2.157044000000    -1.948549000000     1.619987000000    15.994914619570
      Gh(H)           1.520347000000    -1.260861000000     1.273406000000     1.007825032230
      Gh(H)           3.039464000000    -1.804037000000     1.249342000000     1.007825032230
      Gh(O)           0.806693000000     1.251237000000     2.760041000000    15.994914619570
      Gh(H)           1.460046000000     1.848920000000     2.529623000000     1.007825032230
      Gh(H)           0.603623000000     0.876975000000     1.911660000000     1.007825032230
      Gh(O)          -0.281475000000     0.477673000000    -3.053473000000    15.994914619570
      Gh(H)          -0.340130000000     0.334391000000    -2.127821000000     1.007825032230
      Gh(H)           0.648817000000     0.768530000000    -3.252626000000     1.007825032230
      Gh(O)           2.027069000000    -1.802246000000    -1.829283000000    15.994914619570
      Gh(H)           1.495188000000    -2.466996000000    -2.164289000000     1.007825032230
      Gh(H)           1.704265000000    -1.376629000000    -1.005788000000     1.007825032230

  Charge       = -1
  Multiplicity = 1
  Basis Set: AUG-CC-PVTZ
    Blend: AUG-CC-PVTZ
  Basis Set: (AUG-CC-PVTZ AUX)
    Blend: AUG-CC-PVTZ-JKFIT

    Orbital Energies [Eh]
    ---------------------

    Doubly Occupied:

       1A   -104.507493     2A    -10.230121     3A     -7.696204
       4A     -7.696173     5A     -7.696164     6A     -0.733462
       7A     -0.150307     8A     -0.150303     9A     -0.150299

  @DF-RHF Final Energy:  -459.57359558268615

   => Energetics <=

    Nuclear Repulsion Energy =              0.0000000000000000
    One-Electron Energy =                -641.1261487515729414
    Two-Electron Energy =                 181.5525531688867886
    Total Energy =                       -459.5735955826861527
 Dipole X            :          0.0002793            0.0000000            0.0002793
 Dipole Y            :          0.0002280            0.0000000            0.0002280
 Dipole Z            :         -0.0000382            0.0000000           -0.0000382
 Magnitude           :                                                    0.0003626
  Basis Set: (AUG-CC-PVTZ AUX)
    Blend: AUG-CC-PVTZ-RI
	 Reference Energy          =    -459.5735955826861527 [Eh]
	 Singles Energy            =      -0.0000000000000000 [Eh]
	 Same-Spin Energy          =      -0.0638089775802535 [Eh]
	 Opposite-Spin Energy      =      -0.1849921112739158 [Eh]
	 Correlation Energy        =      -0.2488010888541693 [Eh]
	 Total Energy              =    -459.8223966715403321 [Eh]

	 ================> DF-SCS-MP2 Energies <==================
	-----------------------------------------------------------
	 SCS Same-Spin Scale       =       0.3333333333333333 [-]
	 SCS Opposite-Spin Scale   =       1.2000000000000000 [-]
	 SCS Same-Spin Energy      =      -0.0212696591934178 [Eh]
	 SCS Opposite-Spin Energy  =      -0.2219905335286990 [Eh]
	 SCS Correlation Energy    =      -0.2432601927221169 [Eh]
	 SCS Total Energy          =    -459.8168557754082713 [Eh]
	-----------------------------------------------------------

*** Psi4 exiting successfully. Buy a developer a beer!
