                               Psi4 1.8.2 release

  ==> Input File <==

--------------------------------------------------------------------------
MEMORY 60 GB

molecule dimer {
0 1
Gh(Cl)     0.000000     0.000000     0.000000
Gh(O)      0.492480     2.119925     2.296583
Gh(H)      1.238518     2.643439     2.041108
Gh(H)      0.428501     1.470490     1.595291
Gh(O)      1.846097    -0.277742    -2.537849
Gh(H)      1.865917     0.411947    -1.809728
Gh(H)      2.620355    -0.119265    -3.081945
Gh(O)      3.187083    -0.808910     0.753096
Gh(H)      3.837814    -1.275304     0.218624
Gh(H)      2.304602    -0.967605     0.432768
Gh(O)      0.003568    -2.530042     1.974166
Gh(H)      0.083099    -2.248155     2.894335
Gh(H)     -0.019839    -1.660895     1.441275
O         -3.021706     1.403988     0.981928
H         -3.587380     0.629525     1.177356
H         -2.182889     0.987880     0.753889

units ang
no_reorient
no_com
symmetry c1
}

set {
basis        aug-cc-pVTZ
scf_type     df
}

energy("mp2")
--------------------------------------------------------------------------

    Molecular point group: c1

    Geometry (in Angstrom), charge = 0, multiplicity = 1:

       Center              X                  Y                   Z               Mass
    ------------   -----------------  -----------------  -----------------  -----------------
      Gh(CL)          0.000000000000     0.000000000000     0.000000000000    34.968852682000
      Gh(O)           0.492480000000     2.119925000000     2.296583000000    15.994914619570
      Gh(H)           1.238518000000     2.643439000000     2.041108000000     1.007825032230
      Gh(H)           0.428501000000     1.470490000000     1.595291000000     1.007825032230
      Gh(O)           1.846097000000    -0.277742000000    -2.537849000000    15.994914619570
      Gh(H)           1.865917000000     0.411947000000    -1.809728000000     1.007825032230
      Gh(H)           2.620355000000    -0.119265000000    -3.081945000000     1.007825032230
      Gh(O)           3.187083000000    -0.808910000000     0.753096000000    15.994914619570
      Gh(H)           3.837814000000    -1.275304000000     0.218624000000     1.007825032230
      Gh(H)           2.304602000000    -0.967605000000     0.432768000000     1.007825032230
      Gh(O)           0.003568000000    -2.530042000000     1.974166000000    15.994914619570
      Gh(H)           0.083099000000    -2.248155000000     2.894335000000     1.007825032230
      Gh(H)          -0.019839000000    -1.660895000000     1.441275000000     1.007825032230
         O           -3.021706000000     1.403988000000     0.981928000000    15.994914619570
         H           -3.587380000000     0.629525000000     1.177356000000     1.007825032230
         H           -2.182889000000     0.987880000000     0.753889000000     1.007825032230

  Charge       = 0
  Multiplicity = 1
  Basis Set: AUG-CC-PVTZ
    Blend: AUG-CC-PVTZ
  Basis Set: (AUG-CC-PVTZ AUX)
    Blend: AUG-CC-PVTZ-JKFIT

    Orbital Energies [Eh]
    ---------------------

    Doubly Occupied:

       1A    -20.570726     2A     -1.348254     3A     -0.705472
       4A     -0.587028     5A     -0.509952

  @DF-RHF Final Energy:   -76.05900390082667

   => Energetics <=

    Nuclear Repulsion Energy =              9.0684901217686402
    One-Electron Energy =                -122.8121217287111051
    Two-Electron Energy =                  37.6846277061157977
    Total Energy =                        -76.0590039008266672
 Dipole X            :         56.7675595          -56.5858023            0.1817572
 Dipole Y            :        -25.0611731           24.2816749           -0.7794982
 Dipole Z            :        -18.5164346           18.4941241           -0.0223105
 Magnitude           :                                                    0.8007189
  Basis Set: (AUG-CC-PVTZ AUX)
    Blend: AUG-CC-PVTZ-RI
	 Reference Energy          =     -76.0590039008266672 [Eh]
	 Singles Energy            =      -0.0000000000000000 [Eh]
	 Same-Spin Energy          =      -0.0686787507497994 [Eh]
	 Opposite-Spin Energy      =      -0.2166395269501822 [Eh]
	 Correlation Energy        =      -0.2853182776999816 [Eh]
	 Total Energy              =     -76.3443221785266530 [Eh]

	 ================> DF-SCS-MP2 Energies <==================
	-----------------------------------------------------------
	 SCS Same-Spin Scale       =       0.3333333333333333 [-]
	 SCS Opposite-Spin Scale   =       1.2000000000000000 [-]
	 SCS Same-Spin Energy      =      -0.0228929169165998 [Eh]
	 SCS Opposite-Spin Energy  =      -0.2599674323402186 [Eh]
	 SCS Correlation Energy    =      -0.2828603492568184 [Eh]
	 SCS Total Energy          =     -76.3418642500834892 [Eh]
	-----------------------------------------------------------

*** Psi4 exiting successfully. Buy a developer a beer!
