                               Psi4 1.8.2 release

  ==> Input File <==

--------------------------------------------------------------------------
MEMORY 60 GB

molecule dimer {
0 1
Gh(Cl)     0.000000     0.000000     0.000000
Gh(O)     -2.452431     1.179516    -1.383822
Gh(H)     -1.837991     0.632158    -0.895002
Gh(H)     -2.120427     2.027958    -1.619128
Gh(O)     -1.167744    -2.919915    -0.939325
Gh(H)     -1.764740    -2.860149    -0.192311
Gh(H)     -0.702783    -2.092863    -0.831785
Gh(O)      1.116976     2.890657    -0.274401
Gh(H)      1.074806     1.920461    -0.397918
Gh(H)      1.908259     3.184212    -0.701728
O          1.222605    -0.362937    -3.063516
H          2.064077    -0.758243    -2.722188
H          0.654956    -0.035259    -2.271002

units ang
no_reorient
no_com
symmetry c1
}

set {
basis        aug-cc-pVTZ
scf_type     df
}

energy("mp2")
--------------------------------------------------------------------------

    Molecular point group: c1

    Geometry (in Angstrom), charge = 0, multiplicity = 1:

       Center              X                  Y                   Z               Mass
    ------------   -----------------  -----------------  -----------------  -----------------
      Gh(CL)          0.000000000000     0.000000000000     0.000000000000    34.968852682000
      Gh(O)          -2.452431000000     1.179516000000    -1.383822000000    15.994914619570
      Gh(H)          -1.837991000000     0.632158000000    -0.895002000000     1.007825032230
      Gh(H)          -2.120427000000     2.027958000000    -1.619128000000     1.007825032230
      Gh(O)          -1.167744000000    -2.919915000000    -0.939325000000    15.994914619570
      Gh(H)          -1.764740000000    -2.860149000000    -0.192311000000     1.007825032230
      Gh(H)          -0.702783000000    -2.092863000000    -0.831785000000     1.007825032230
      Gh(O)           1.116976000000     2.890657000000    -0.274401000000    15.994914619570
      Gh(H)           1.074806000000     1.920461000000    -0.397918000000     1.007825032230
      Gh(H)           1.908259000000     3.184212000000    -0.701728000000     1.007825032230
         O            1.222605000000    -0.362937000000    -3.063516000000    15.994914619570
         H            2.064077000000    -0.758243000000    -2.722188000000     1.007825032230
         H            0.654956000000    -0.035259000000    -2.271002000000     1.007825032230

  Charge       = 0
  Multiplicity = 1
  Basis Set: AUG-CC-PVTZ
    Blend: AUG-CC-PVTZ
  Basis Set: (AUG-CC-PVTZ AUX)
    Blend: AUG-CC-PVTZ-JKFIT

    Orbital Energies [Eh]
    ---------------------

    Doubly Occupied:

       1A    -20.573531     2A     -1.325509     3A     -0.698346
       4A     -0.565712     5A     -0.504766

  @DF-RHF Final Energy:   -76.05125466509793

   => Energetics <=

    Nuclear Repulsion Energy =              8.7122635176673242
    One-Electron Energy =                -122.1913038952036459
    Two-Electron Energy =                  37.4277857124383928
    Total Energy =                        -76.0512546650979289
 Dipole X            :        -23.4380540           23.6213366            0.1832826
 Dipole Y            :          6.9399770           -6.9863137           -0.0463367
 Dipole Z            :         56.4888232          -55.7494114            0.7394118
 Magnitude           :                                                    0.7631969
  Basis Set: (AUG-CC-PVTZ AUX)
    Blend: AUG-CC-PVTZ-RI
	 Reference Energy          =     -76.0512546650979289 [Eh]
	 Singles Energy            =      -0.0000000000000000 [Eh]
	 Same-Spin Energy          =      -0.0692127437227766 [Eh]
	 Opposite-Spin Energy      =      -0.2183475316786597 [Eh]
	 Correlation Energy        =      -0.2875602754014364 [Eh]
	 Total Energy              =     -76.3388149404993612 [Eh]

	 ================> DF-SCS-MP2 Energies <==================
	-----------------------------------------------------------
	 SCS Same-Spin Scale       =       0.3333333333333333 [-]
	 SCS Opposite-Spin Scale   =       1.2000000000000000 [-]
	 SCS Same-Spin Energy      =      -0.0230709145742589 [Eh]
	 SCS Opposite-Spin Energy  =      -0.2620170380143916 [Eh]
	 SCS Correlation Energy    =      -0.2850879525886505 [Eh]
	 SCS Total Energy          =     -76.3363426176865829 [Eh]
	-----------------------------------------------------------

*** Psi4 exiting successfully. Buy a developer a beer!
