                               Psi4 1.9 release

  ==> Input File <==

--------------------------------------------------------------------------
MEMORY 60 GB

molecule dimer {
-1 1
Cl     0.000000     0.000000     0.000000
--
0 1
O     -2.071837    -1.566407    -2.094834
H     -2.804132    -1.909173    -1.581457
H     -1.575661    -1.017210    -1.506295
O     -2.835162    -1.380871     1.365181
H     -2.100127    -0.901437     0.939824
H     -3.623037    -0.817636     1.359899
O     -0.436252     1.643652    -2.926169
H     -0.441176     1.305425    -2.001804
H     -0.243187     0.850829    -3.475916
O      2.956243     0.741991     0.983113
H      2.865237     1.197444     0.143693
H      2.115532     0.354191     1.203109

units ang
no_reorient
no_com
symmetry c1
}

set {
basis        aug-cc-pVTZ
scf_type     df
}

energy("mp2", bsse_type="cp")
--------------------------------------------------------------------------

                               Psi4 1.9 release
    Molecular point group: c1
  Charge       = 0
  Multiplicity = 1
  Basis Set: AUG-CC-PVTZ
    Blend: AUG-CC-PVTZ
  Basis Set: (AUG-CC-PVTZ AUX)
    Blend: AUG-CC-PVTZ-JKFIT
  @DF-RHF Final Energy:  -304.23409835506504
    Total Energy =                       -304.2340983550650435
 Dipole X            :         46.2984241          -47.0591222           -0.7606981
 Dipole Y            :         10.3613968          -10.2624355            0.0989613
 Dipole Z            :         49.9716185          -49.7009668            0.2706517
 Magnitude           :                                                    0.8134539
  Basis Set: (AUG-CC-PVTZ AUX)
    Blend: AUG-CC-PVTZ-RI
	 Reference Energy          =    -304.2340983550650435 [Eh]
	 Singles Energy            =      -0.0000000000000000 [Eh]
	 Same-Spin Energy          =      -0.2747872900812221 [Eh]
	 Opposite-Spin Energy      =      -0.8651174849803880 [Eh]
	 Correlation Energy        =      -1.1399047750616100 [Eh]
	 Total Energy              =    -305.3740031301266526 [Eh]
	 SCS Total Energy          =    -305.3638351004019000 [Eh]
                               Psi4 1.9 release
    Molecular point group: c1
  Multiplicity = 1
  Basis Set: AUG-CC-PVTZ
    Blend: AUG-CC-PVTZ
  Basis Set: (AUG-CC-PVTZ AUX)
    Blend: AUG-CC-PVTZ-JKFIT
  @DF-RHF Final Energy:  -459.57355297940461
    Total Energy =                       -459.5735529794046101
  Basis Set: (AUG-CC-PVTZ AUX)
	 Singles Energy            =      -0.0000000000000000 [Eh]
	 Same-Spin Energy          =      -0.0631676849952439 [Eh]
	 Opposite-Spin Energy      =      -0.1823816596336396 [Eh]
	 Correlation Energy        =      -0.2455493446288834 [Eh]
	 Total Energy              =    -459.8191023240335085 [Eh]
	 SCS Total Energy          =    -459.8134668659633917 [Eh]
                               Psi4 1.9 release
    Molecular point group: c1

    Geometry (in Bohr), charge = -1, multiplicity = 1:

       Center              X                  Y                   Z               Mass
    ------------   -----------------  -----------------  -----------------  -----------------
         CL           0.000000000000     0.000000000000     0.000000000000    34.968852682000
         O           -3.915204506590    -2.960080231000    -3.958662538297    15.994914619570
         H           -5.299041499632    -3.607814096119    -2.988520609188     1.007825032230
         H           -2.977567756565    -1.922248312077    -2.846485014146     1.007825032230
         O           -5.357679701305    -2.609468004587     2.579818201679    15.994914619570
         H           -3.968664858679    -1.703469049354     1.776009966132     1.007825032230
         H           -6.846547672400    -1.545108110315     2.569836668284     1.007825032230
         O           -0.824396801683     3.106052125561    -5.529658006805    15.994914619570
         H           -0.833701813125     2.466895727326    -3.782861316846     1.007825032230
         H           -0.459556827272     1.607833789597    -6.568529275097     1.007825032230
         O            5.586489630302     1.402159777555     1.857814320377    15.994914619570
         H            5.414513214528     2.262841210573     0.271540416145     1.007825032230
         H            3.997776089642     0.669323986102     2.273546509073     1.007825032230

  Charge       = -1
  Multiplicity = 1
  Basis Set: AUG-CC-PVTZ
    Blend: AUG-CC-PVTZ
  Basis Set: (AUG-CC-PVTZ AUX)
    Blend: AUG-CC-PVTZ-JKFIT

    Orbital Energies [Eh]
    ---------------------

    Doubly Occupied:

       1A   -104.579517     2A    -20.433502     3A    -20.418121
       4A    -20.415564     5A    -20.409423     6A    -10.304359
       7A     -7.770501     8A     -7.770439     9A     -7.770392
      10A     -1.211755    11A     -1.207931    12A     -1.198471
      13A     -1.189562    14A     -0.819226    15A     -0.586247
      16A     -0.577789    17A     -0.573547    18A     -0.553595
      19A     -0.446208    20A     -0.440281    21A     -0.434661
      22A     -0.431126    23A     -0.376556    24A     -0.365330
      25A     -0.357924    26A     -0.357848    27A     -0.235476
      28A     -0.232893    29A     -0.228397

  @DF-RHF Final Energy:  -763.87083180657703

   => Energetics <=

    Nuclear Repulsion Energy =            214.7447262742457212
    One-Electron Energy =               -1493.8378296373186913
    Two-Electron Energy =                 515.2222715564959117
    Total Energy =                       -763.8708318065770300
 Dipole X            :         46.6818037          -47.0591222           -0.3773184
 Dipole Y            :         10.3912741          -10.2624355            0.1288385
 Dipole Z            :         50.2866850          -49.7009668            0.5857181
 Magnitude           :                                                    0.7085438
  Basis Set: (AUG-CC-PVTZ AUX)
    Blend: AUG-CC-PVTZ-RI
	 Reference Energy          =    -763.8708318065770300 [Eh]
	 Singles Energy            =      -0.0000000000000000 [Eh]
	 Same-Spin Energy          =      -0.3441424497249489 [Eh]
	 Opposite-Spin Energy      =      -1.0513993357663620 [Eh]
	 Correlation Energy        =      -1.3955417854913108 [Eh]
	 Total Energy              =    -765.2663735920683621 [Eh]

	 ================> DF-SCS-MP2 Energies <==================
	-----------------------------------------------------------
	 SCS Same-Spin Scale       =       0.3333333333333333 [-]
	 SCS Opposite-Spin Scale   =       1.2000000000000000 [-]
	 SCS Same-Spin Energy      =      -0.1147141499083163 [Eh]
	 SCS Opposite-Spin Energy  =      -1.2616792029196344 [Eh]
	 SCS Correlation Energy    =      -1.3763933528279506 [Eh]
	 SCS Total Energy          =    -765.2472251594049339 [Eh]
	-----------------------------------------------------------

*** Psi4 exiting successfully. Buy a developer a beer!
