                               Psi4 1.8.2 release

  ==> Input File <==

--------------------------------------------------------------------------
MEMORY 60 GB

molecule dimer {
-1 1
Cl         0.000000     0.000000     0.000000
O         -0.722002    -3.248013     0.354964
H         -0.613309    -2.289253     0.433906
H         -1.574971    -3.503131     0.680548
O         -1.526330     2.399946     1.544144
H         -1.173898     2.409457     2.433870
H         -1.098273     1.621727     1.168734
O          3.178802    -0.106216     0.211667
H          3.377119    -0.828001     0.797087
H          2.256728     0.086519     0.321265
O          1.888706     2.928582     0.086703
H          1.196918     2.292193     0.279175
H          1.627389     3.844402     0.410362
O          0.992794    -0.592290     3.268874
H          1.905677    -0.231051     3.156662
H          0.406310    -0.199508     2.620077

units ang
no_reorient
no_com
symmetry c1
}

set {
basis        aug-cc-pVTZ
scf_type     df
}

energy("mp2")
--------------------------------------------------------------------------

    Molecular point group: c1

    Geometry (in Angstrom), charge = -1, multiplicity = 1:

       Center              X                  Y                   Z               Mass
    ------------   -----------------  -----------------  -----------------  -----------------
         CL           0.000000000000     0.000000000000     0.000000000000    34.968852682000
         O           -0.722002000000    -3.248013000000     0.354964000000    15.994914619570
         H           -0.613309000000    -2.289253000000     0.433906000000     1.007825032230
         H           -1.574971000000    -3.503131000000     0.680548000000     1.007825032230
         O           -1.526330000000     2.399946000000     1.544144000000    15.994914619570
         H           -1.173898000000     2.409457000000     2.433870000000     1.007825032230
         H           -1.098273000000     1.621727000000     1.168734000000     1.007825032230
         O            3.178802000000    -0.106216000000     0.211667000000    15.994914619570
         H            3.377119000000    -0.828001000000     0.797087000000     1.007825032230
         H            2.256728000000     0.086519000000     0.321265000000     1.007825032230
         O            1.888706000000     2.928582000000     0.086703000000    15.994914619570
         H            1.196918000000     2.292193000000     0.279175000000     1.007825032230
         H            1.627389000000     3.844402000000     0.410362000000     1.007825032230
         O            0.992794000000    -0.592290000000     3.268874000000    15.994914619570
         H            1.905677000000    -0.231051000000     3.156662000000     1.007825032230
         H            0.406310000000    -0.199508000000     2.620077000000     1.007825032230

  Charge       = -1
  Multiplicity = 1
  Basis Set: AUG-CC-PVTZ
    Blend: AUG-CC-PVTZ
  Basis Set: (AUG-CC-PVTZ AUX)
    Blend: AUG-CC-PVTZ-JKFIT

    Orbital Energies [Eh]
    ---------------------

    Doubly Occupied:

       1A   -104.588121     2A    -20.439296     3A    -20.428273
       4A    -20.427930     5A    -20.418351     6A    -20.405487
       7A    -10.313106     8A     -7.779214     9A     -7.779172
      10A     -7.779141    11A     -1.216801    12A     -1.215481
      13A     -1.205299    14A     -1.200625    15A     -1.197589
      16A     -0.830634    17A     -0.592937    18A     -0.583845
      19A     -0.579192    20A     -0.574995    21A     -0.568001
      22A     -0.457168    23A     -0.449067    24A     -0.433683
      25A     -0.432410    26A     -0.427631    27A     -0.382066
      28A     -0.374245    29A     -0.368701    30A     -0.365055
      31A     -0.354211    32A     -0.245102    33A     -0.241366
      34A     -0.240089

  @DF-RHF Final Energy:  -839.92646358013531

   => Energetics <=

    Nuclear Repulsion Energy =            303.2261332051626255
    One-Electron Energy =               -1776.5166185769635376
    Two-Electron Energy =                 633.3640217916656638
    Total Energy =                       -839.9264635801353052
 Dipole X            :        -70.6844845           69.5522204           -1.1322641
 Dipole Y            :        -26.8312947           26.9464098            0.1151152
 Dipole Z            :       -105.6855730          105.8860829            0.2005099
 Magnitude           :                                                    1.1556287
  Basis Set: (AUG-CC-PVTZ AUX)
    Blend: AUG-CC-PVTZ-RI
	 Reference Energy          =    -839.9264635801353052 [Eh]
	 Singles Energy            =      -0.0000000000000000 [Eh]
	 Same-Spin Energy          =      -0.4154502487184517 [Eh]
	 Opposite-Spin Energy      =      -1.2715834770235994 [Eh]
	 Correlation Energy        =      -1.6870337257420511 [Eh]
	 Total Energy              =    -841.6134973058773312 [Eh]

	 ================> DF-SCS-MP2 Energies <==================
	-----------------------------------------------------------
	 SCS Same-Spin Scale       =       0.3333333333333333 [-]
	 SCS Opposite-Spin Scale   =       1.2000000000000000 [-]
	 SCS Same-Spin Energy      =      -0.1384834162394839 [Eh]
	 SCS Opposite-Spin Energy  =      -1.5259001724283192 [Eh]
	 SCS Correlation Energy    =      -1.6643835886678031 [Eh]
	 SCS Total Energy          =    -841.5908471688030659 [Eh]
	-----------------------------------------------------------

*** Psi4 exiting successfully. Buy a developer a beer!
