                               Psi4 1.8.2 release

  ==> Input File <==

--------------------------------------------------------------------------
MEMORY 60 GB

molecule dimer {
0 1
Gh(Cl)     0.000000     0.000000     0.000000
O          1.786944     1.711555     1.976520
H          1.111820     1.133941     1.610336
H          1.229781     2.396537     2.442747
Gh(O)      1.278940     2.444591    -1.619882
Gh(H)      0.965176     1.877241    -0.966811
Gh(H)      1.460854     3.349589    -1.319799
Gh(O)     -0.467110     0.733530    -3.068056
Gh(H)     -0.325138    -0.146267    -3.313972
Gh(H)     -1.312864     0.680258    -2.644071
Gh(O)      2.465554    -1.889270     0.290668
Gh(H)      3.217113    -1.488307     0.658887
Gh(H)      1.814208    -1.180145     0.387811
Gh(O)     -0.519821    -0.088559     3.075289
Gh(H)     -0.722845     0.815865     3.291041
Gh(H)     -0.491445    -0.012457     2.085786
Gh(O)     -2.750066     0.488210    -1.600511
Gh(H)     -2.980126    -0.008406    -0.777965
Gh(H)     -3.594984     0.525279    -2.067696

units ang
no_reorient
no_com
symmetry c1
}

set {
basis        aug-cc-pVTZ
scf_type     df
}

energy("mp2")
--------------------------------------------------------------------------

    Molecular point group: c1

    Geometry (in Angstrom), charge = 0, multiplicity = 1:

       Center              X                  Y                   Z               Mass
    ------------   -----------------  -----------------  -----------------  -----------------
      Gh(CL)          0.000000000000     0.000000000000     0.000000000000    34.968852682000
         O            1.786944000000     1.711555000000     1.976520000000    15.994914619570
         H            1.111820000000     1.133941000000     1.610336000000     1.007825032230
         H            1.229781000000     2.396537000000     2.442747000000     1.007825032230
      Gh(O)           1.278940000000     2.444591000000    -1.619882000000    15.994914619570
      Gh(H)           0.965176000000     1.877241000000    -0.966811000000     1.007825032230
      Gh(H)           1.460854000000     3.349589000000    -1.319799000000     1.007825032230
      Gh(O)          -0.467110000000     0.733530000000    -3.068056000000    15.994914619570
      Gh(H)          -0.325138000000    -0.146267000000    -3.313972000000     1.007825032230
      Gh(H)          -1.312864000000     0.680258000000    -2.644071000000     1.007825032230
      Gh(O)           2.465554000000    -1.889270000000     0.290668000000    15.994914619570
      Gh(H)           3.217113000000    -1.488307000000     0.658887000000     1.007825032230
      Gh(H)           1.814208000000    -1.180145000000     0.387811000000     1.007825032230
      Gh(O)          -0.519821000000    -0.088559000000     3.075289000000    15.994914619570
      Gh(H)          -0.722845000000     0.815865000000     3.291041000000     1.007825032230
      Gh(H)          -0.491445000000    -0.012457000000     2.085786000000     1.007825032230
      Gh(O)          -2.750066000000     0.488210000000    -1.600511000000    15.994914619570
      Gh(H)          -2.980126000000    -0.008406000000    -0.777965000000     1.007825032230
      Gh(H)          -3.594984000000     0.525279000000    -2.067696000000     1.007825032230

  Charge       = 0
  Multiplicity = 1
  Basis Set: AUG-CC-PVTZ
    Blend: AUG-CC-PVTZ
  Basis Set: (AUG-CC-PVTZ AUX)
    Blend: AUG-CC-PVTZ-JKFIT

    Orbital Energies [Eh]
    ---------------------

    Doubly Occupied:

       1A    -20.572304     2A     -1.344652     3A     -0.699902
       4A     -0.586379     5A     -0.509478

  @DF-RHF Final Energy:   -76.05736793656804

   => Energetics <=

    Nuclear Repulsion Energy =              8.9938617855903811
    One-Electron Energy =                -122.6770257797682575
    Two-Electron Energy =                  37.6257960576098327
    Total Energy =                        -76.0573679365680420
 Dipole X            :        -32.2417168           31.4396627           -0.8020542
 Dipole Y            :        -32.4831704           32.5465981            0.0634277
 Dipole Z            :        -37.4786551           37.5398687            0.0612136
 Magnitude           :                                                    0.8068835
  Basis Set: (AUG-CC-PVTZ AUX)
    Blend: AUG-CC-PVTZ-RI
	 Reference Energy          =     -76.0573679365680420 [Eh]
	 Singles Energy            =      -0.0000000000000000 [Eh]
	 Same-Spin Energy          =      -0.0688792821779766 [Eh]
	 Opposite-Spin Energy      =      -0.2175235379928533 [Eh]
	 Correlation Energy        =      -0.2864028201708299 [Eh]
	 Total Energy              =     -76.3437707567388770 [Eh]

	 ================> DF-SCS-MP2 Energies <==================
	-----------------------------------------------------------
	 SCS Same-Spin Scale       =       0.3333333333333333 [-]
	 SCS Opposite-Spin Scale   =       1.2000000000000000 [-]
	 SCS Same-Spin Energy      =      -0.0229597607259922 [Eh]
	 SCS Opposite-Spin Energy  =      -0.2610282455914239 [Eh]
	 SCS Correlation Energy    =      -0.2839880063174161 [Eh]
	 SCS Total Energy          =     -76.3413559428854569 [Eh]
	-----------------------------------------------------------

*** Psi4 exiting successfully. Buy a developer a beer!
