                               Psi4 1.8.2 release

  ==> Input File <==

--------------------------------------------------------------------------
MEMORY 60 GB

molecule dimer {
-1 1
Cl         0.000000     0.000000     0.000000
O          1.771129     2.489187     0.169336
H          1.379107     1.608893     0.191284
H          1.074826     3.009005    -0.305359
O         -0.595761    -2.485321     1.681379
H         -0.839779    -2.280443     2.596276
H         -0.383113    -1.560361     1.328127
O         -3.305344     0.023545    -0.246950
H         -3.552244    -0.023220    -1.134455
H         -2.322919     0.116370    -0.213788

units ang
no_reorient
no_com
symmetry c1
}

set {
basis        aug-cc-pVTZ
scf_type     df
}

energy("mp2")
--------------------------------------------------------------------------

    Molecular point group: c1

    Geometry (in Angstrom), charge = -1, multiplicity = 1:

       Center              X                  Y                   Z               Mass
    ------------   -----------------  -----------------  -----------------  -----------------
         CL           0.000000000000     0.000000000000     0.000000000000    34.968852682000
         O            1.771129000000     2.489187000000     0.169336000000    15.994914619570
         H            1.379107000000     1.608893000000     0.191284000000     1.007825032230
         H            1.074826000000     3.009005000000    -0.305359000000     1.007825032230
         O           -0.595761000000    -2.485321000000     1.681379000000    15.994914619570
         H           -0.839779000000    -2.280443000000     2.596276000000     1.007825032230
         H           -0.383113000000    -1.560361000000     1.328127000000     1.007825032230
         O           -3.305344000000     0.023545000000    -0.246950000000    15.994914619570
         H           -3.552244000000    -0.023220000000    -1.134455000000     1.007825032230
         H           -2.322919000000     0.116370000000    -0.213788000000     1.007825032230

  Charge       = -1
  Multiplicity = 1
  Basis Set: AUG-CC-PVTZ
    Blend: AUG-CC-PVTZ
  Basis Set: (AUG-CC-PVTZ AUX)
    Blend: AUG-CC-PVTZ-JKFIT

    Orbital Energies [Eh]
    ---------------------

    Doubly Occupied:

       1A   -104.571311     2A    -20.407150     3A    -20.399073
       4A    -20.395644     5A    -10.296871     6A     -7.762986
       7A     -7.762921     8A     -7.762865     9A     -1.199304
      10A     -1.178114    11A     -1.167511    12A     -0.816680
      13A     -0.571463    14A     -0.537805    15A     -0.523176
      16A     -0.429378    17A     -0.426669    18A     -0.418051
      19A     -0.356046    20A     -0.343433    21A     -0.336368
      22A     -0.228183    23A     -0.226003    24A     -0.222573

  @DF-RHF Final Energy:  -687.79128971522994

   => Energetics <=

    Nuclear Repulsion Energy =            148.0759226320045912
    One-Electron Energy =               -1255.0552662205163870
    Two-Electron Energy =                 419.1880538732817740
    Total Energy =                       -687.7912897152299365
 Dipole X            :         40.9887639          -40.9766890            0.0120749
 Dipole Y            :         -1.6031267            2.0589171            0.4557904
 Dipole Z            :        -29.6788831           28.8980793           -0.7808038
 Magnitude           :                                                    0.9041821
  Basis Set: (AUG-CC-PVTZ AUX)
    Blend: AUG-CC-PVTZ-RI
	 Reference Energy          =    -687.7912897152299365 [Eh]
	 Singles Energy            =      -0.0000000000000000 [Eh]
	 Same-Spin Energy          =      -0.2769958171591159 [Eh]
	 Opposite-Spin Energy      =      -0.8383344884080026 [Eh]
	 Correlation Energy        =      -1.1153303055671184 [Eh]
	 Total Energy              =    -688.9066200207970496 [Eh]

	 ================> DF-SCS-MP2 Energies <==================
	-----------------------------------------------------------
	 SCS Same-Spin Scale       =       0.3333333333333333 [-]
	 SCS Opposite-Spin Scale   =       1.2000000000000000 [-]
	 SCS Same-Spin Energy      =      -0.0923319390530386 [Eh]
	 SCS Opposite-Spin Energy  =      -1.0060013860896031 [Eh]
	 SCS Correlation Energy    =      -1.0983333251426417 [Eh]
	 SCS Total Energy          =    -688.8896230403726122 [Eh]
	-----------------------------------------------------------

*** Psi4 exiting successfully. Buy a developer a beer!
