                               Psi4 1.8.2 release

  ==> Input File <==

--------------------------------------------------------------------------
MEMORY 60 GB

molecule dimer {
0 1
Gh(Cl)     0.000000     0.000000     0.000000
Gh(O)     -0.492503    -3.205237    -1.072721
Gh(H)     -0.160426    -3.707051    -0.306645
Gh(H)     -0.669682    -2.344857    -0.639707
Gh(O)      1.175860     2.754777    -0.846269
Gh(H)      0.509189     2.080200    -0.680117
Gh(H)      0.850151     3.534482    -0.372311
Gh(O)      1.094463     2.253006     1.985402
Gh(H)      0.167817     2.461694     2.105720
Gh(H)      1.107492     1.486664     1.400269
Gh(O)     -2.181360    -0.134466     2.316522
Gh(H)     -2.488476    -0.815776     1.739941
Gh(H)     -1.316019     0.166729     1.976239
O          2.825452    -0.879212     0.944999
H          1.891967    -0.727444     0.892758
H          3.307089    -0.017689     1.010326

units ang
no_reorient
no_com
symmetry c1
}

set {
basis        aug-cc-pVTZ
scf_type     df
}

energy("mp2")
--------------------------------------------------------------------------

    Molecular point group: c1

    Geometry (in Angstrom), charge = 0, multiplicity = 1:

       Center              X                  Y                   Z               Mass
    ------------   -----------------  -----------------  -----------------  -----------------
      Gh(CL)          0.000000000000     0.000000000000     0.000000000000    34.968852682000
      Gh(O)          -0.492503000000    -3.205237000000    -1.072721000000    15.994914619570
      Gh(H)          -0.160426000000    -3.707051000000    -0.306645000000     1.007825032230
      Gh(H)          -0.669682000000    -2.344857000000    -0.639707000000     1.007825032230
      Gh(O)           1.175860000000     2.754777000000    -0.846269000000    15.994914619570
      Gh(H)           0.509189000000     2.080200000000    -0.680117000000     1.007825032230
      Gh(H)           0.850151000000     3.534482000000    -0.372311000000     1.007825032230
      Gh(O)           1.094463000000     2.253006000000     1.985402000000    15.994914619570
      Gh(H)           0.167817000000     2.461694000000     2.105720000000     1.007825032230
      Gh(H)           1.107492000000     1.486664000000     1.400269000000     1.007825032230
      Gh(O)          -2.181360000000    -0.134466000000     2.316522000000    15.994914619570
      Gh(H)          -2.488476000000    -0.815776000000     1.739941000000     1.007825032230
      Gh(H)          -1.316019000000     0.166729000000     1.976239000000     1.007825032230
         O            2.825452000000    -0.879212000000     0.944999000000    15.994914619570
         H            1.891967000000    -0.727444000000     0.892758000000     1.007825032230
         H            3.307089000000    -0.017689000000     1.010326000000     1.007825032230

  Charge       = 0
  Multiplicity = 1
  Basis Set: AUG-CC-PVTZ
    Blend: AUG-CC-PVTZ
  Basis Set: (AUG-CC-PVTZ AUX)
    Blend: AUG-CC-PVTZ-JKFIT

    Orbital Energies [Eh]
    ---------------------

    Doubly Occupied:

       1A    -20.566344     2A     -1.344519     3A     -0.722172
       4A     -0.571845     5A     -0.507751

  @DF-RHF Final Energy:   -76.05835445877504

   => Energetics <=

    Nuclear Repulsion Energy =              9.0825734975881254
    One-Electron Energy =                -122.8565888214738493
    Two-Electron Energy =                  37.7156608651106779
    Total Energy =                        -76.0583544587750424
 Dipole X            :        -52.8490370           52.5394356           -0.3096013
 Dipole Y            :         15.3785315          -14.6998564            0.6786751
 Dipole Z            :        -17.8742250           17.8826219            0.0083969
 Magnitude           :                                                    0.7460049
  Basis Set: (AUG-CC-PVTZ AUX)
    Blend: AUG-CC-PVTZ-RI
	 Reference Energy          =     -76.0583544587750424 [Eh]
	 Singles Energy            =      -0.0000000000000000 [Eh]
	 Same-Spin Energy          =      -0.0685067370181205 [Eh]
	 Opposite-Spin Energy      =      -0.2162363144572059 [Eh]
	 Correlation Energy        =      -0.2847430514753264 [Eh]
	 Total Energy              =     -76.3430975102503737 [Eh]

	 ================> DF-SCS-MP2 Energies <==================
	-----------------------------------------------------------
	 SCS Same-Spin Scale       =       0.3333333333333333 [-]
	 SCS Opposite-Spin Scale   =       1.2000000000000000 [-]
	 SCS Same-Spin Energy      =      -0.0228355790060402 [Eh]
	 SCS Opposite-Spin Energy  =      -0.2594835773486470 [Eh]
	 SCS Correlation Energy    =      -0.2823191563546872 [Eh]
	 SCS Total Energy          =     -76.3406736151297309 [Eh]
	-----------------------------------------------------------

*** Psi4 exiting successfully. Buy a developer a beer!
