                               Psi4 1.8.2 release

  ==> Input File <==

--------------------------------------------------------------------------
MEMORY 60 GB

molecule dimer {
-1 1
Cl         0.000000     0.000000     0.000000
O         -1.646482     1.636033    -2.118452
H         -1.306755     2.527241    -2.068860
H         -1.347572     1.202892    -1.318347
O          0.358450    -3.254429     0.454156
H          0.170382    -2.323902     0.612073
H         -0.522232    -3.667292     0.173894
O         -1.946055    -0.590932     2.381757
H         -1.388639    -0.387392     1.592721
H         -2.499547     0.181910     2.276099
O          2.703315     1.660936     0.446614
H          1.911369     1.537530    -0.062756
H          3.335061     2.181112     0.003027

units ang
no_reorient
no_com
symmetry c1
}

set {
basis        aug-cc-pVTZ
scf_type     df
}

energy("mp2")
--------------------------------------------------------------------------

    Molecular point group: c1

    Geometry (in Angstrom), charge = -1, multiplicity = 1:

       Center              X                  Y                   Z               Mass
    ------------   -----------------  -----------------  -----------------  -----------------
         CL           0.000000000000     0.000000000000     0.000000000000    34.968852682000
         O           -1.646482000000     1.636033000000    -2.118452000000    15.994914619570
         H           -1.306755000000     2.527241000000    -2.068860000000     1.007825032230
         H           -1.347572000000     1.202892000000    -1.318347000000     1.007825032230
         O            0.358450000000    -3.254429000000     0.454156000000    15.994914619570
         H            0.170382000000    -2.323902000000     0.612073000000     1.007825032230
         H           -0.522232000000    -3.667292000000     0.173894000000     1.007825032230
         O           -1.946055000000    -0.590932000000     2.381757000000    15.994914619570
         H           -1.388639000000    -0.387392000000     1.592721000000     1.007825032230
         H           -2.499547000000     0.181910000000     2.276099000000     1.007825032230
         O            2.703315000000     1.660936000000     0.446614000000    15.994914619570
         H            1.911369000000     1.537530000000    -0.062756000000     1.007825032230
         H            3.335061000000     2.181112000000     0.003027000000     1.007825032230

  Charge       = -1
  Multiplicity = 1
  Basis Set: AUG-CC-PVTZ
    Blend: AUG-CC-PVTZ
  Basis Set: (AUG-CC-PVTZ AUX)
    Blend: AUG-CC-PVTZ-JKFIT

    Orbital Energies [Eh]
    ---------------------

    Doubly Occupied:

       1A   -104.574742     2A    -20.417242     3A    -20.412735
       4A    -20.411685     5A    -20.405671     6A    -10.300202
       7A     -7.766332     8A     -7.766279     9A     -7.766197
      10A     -1.214986    11A     -1.202195    12A     -1.191577
      13A     -1.181386    14A     -0.819861    15A     -0.599873
      16A     -0.570400    17A     -0.548288    18A     -0.529155
      19A     -0.446172    20A     -0.437128    21A     -0.431490
      22A     -0.424061    23A     -0.367829    24A     -0.360249
      25A     -0.352229    26A     -0.350281    27A     -0.233574
      28A     -0.230273    29A     -0.225939

  @DF-RHF Final Energy:  -763.85457119604973

   => Energetics <=

    Nuclear Repulsion Energy =            215.9481525126369377
    One-Electron Energy =               -1496.5293783253841866
    Two-Electron Energy =                 516.7266546166976013
    Total Energy =                       -763.8545711960497329
 Dipole X            :         11.1206151          -11.1382518           -0.0176367
 Dipole Y            :          7.3959401           -5.9243613            1.4715788
 Dipole Z            :        -20.7563128           19.8807711           -0.8755417
 Magnitude           :                                                    1.7124334
  Basis Set: (AUG-CC-PVTZ AUX)
    Blend: AUG-CC-PVTZ-RI
	 Reference Energy          =    -763.8545711960497329 [Eh]
	 Singles Energy            =      -0.0000000000000000 [Eh]
	 Same-Spin Energy          =      -0.3460425712007327 [Eh]
	 Opposite-Spin Energy      =      -1.0541823543380586 [Eh]
	 Correlation Energy        =      -1.4002249255387913 [Eh]
	 Total Energy              =    -765.2547961215884698 [Eh]

	 ================> DF-SCS-MP2 Energies <==================
	-----------------------------------------------------------
	 SCS Same-Spin Scale       =       0.3333333333333333 [-]
	 SCS Opposite-Spin Scale   =       1.2000000000000000 [-]
	 SCS Same-Spin Energy      =      -0.1153475237335776 [Eh]
	 SCS Opposite-Spin Energy  =      -1.2650188252056702 [Eh]
	 SCS Correlation Energy    =      -1.3803663489392477 [Eh]
	 SCS Total Energy          =    -765.2349375449889521 [Eh]
	-----------------------------------------------------------

*** Psi4 exiting successfully. Buy a developer a beer!
