                               Psi4 1.8.2 release

  ==> Input File <==

--------------------------------------------------------------------------
MEMORY 60 GB

molecule dimer {
-1 1
Cl         0.000000     0.000000     0.000000
O         -1.296686    -0.789802     2.747488
H         -0.958037    -0.553647     1.932824
H         -0.724324    -1.377608     3.241656
O         -2.076983    -2.553794    -0.486353
H         -1.591041    -1.707135    -0.380617
H         -3.010769    -2.279472    -0.495510
O         -0.476781     2.792384     1.610098
H         -0.194248     1.959841     1.163400
H          0.285662     3.369797     1.728100
O          2.175372    -1.021934     2.331685
H          2.807418    -1.629194     1.955755
H          1.693498    -0.623625     1.563577
O         -2.432882     1.506271    -1.718991
H         -1.619892     1.326935    -1.279633
H         -2.709491     0.637243    -2.073644

units ang
no_reorient
no_com
symmetry c1
}

set {
basis        aug-cc-pVTZ
scf_type     df
}

energy("mp2")
--------------------------------------------------------------------------

    Molecular point group: c1

    Geometry (in Angstrom), charge = -1, multiplicity = 1:

       Center              X                  Y                   Z               Mass
    ------------   -----------------  -----------------  -----------------  -----------------
         CL           0.000000000000     0.000000000000     0.000000000000    34.968852682000
         O           -1.296686000000    -0.789802000000     2.747488000000    15.994914619570
         H           -0.958037000000    -0.553647000000     1.932824000000     1.007825032230
         H           -0.724324000000    -1.377608000000     3.241656000000     1.007825032230
         O           -2.076983000000    -2.553794000000    -0.486353000000    15.994914619570
         H           -1.591041000000    -1.707135000000    -0.380617000000     1.007825032230
         H           -3.010769000000    -2.279472000000    -0.495510000000     1.007825032230
         O           -0.476781000000     2.792384000000     1.610098000000    15.994914619570
         H           -0.194248000000     1.959841000000     1.163400000000     1.007825032230
         H            0.285662000000     3.369797000000     1.728100000000     1.007825032230
         O            2.175372000000    -1.021934000000     2.331685000000    15.994914619570
         H            2.807418000000    -1.629194000000     1.955755000000     1.007825032230
         H            1.693498000000    -0.623625000000     1.563577000000     1.007825032230
         O           -2.432882000000     1.506271000000    -1.718991000000    15.994914619570
         H           -1.619892000000     1.326935000000    -1.279633000000     1.007825032230
         H           -2.709491000000     0.637243000000    -2.073644000000     1.007825032230

  Charge       = -1
  Multiplicity = 1
  Basis Set: AUG-CC-PVTZ
    Blend: AUG-CC-PVTZ
  Basis Set: (AUG-CC-PVTZ AUX)
    Blend: AUG-CC-PVTZ-JKFIT

    Orbital Energies [Eh]
    ---------------------

    Doubly Occupied:

       1A   -104.597714     2A    -20.431118     3A    -20.425795
       4A    -20.422324     5A    -20.411710     6A    -20.391085
       7A    -10.323177     8A     -7.789287     9A     -7.789250
      10A     -7.789237    11A     -1.210755    12A     -1.209272
      13A     -1.201634    14A     -1.194275    15A     -1.188617
      16A     -0.843557    17A     -0.584389    18A     -0.578527
      19A     -0.573288    20A     -0.566435    21A     -0.562542
      22A     -0.449302    23A     -0.446792    24A     -0.443061
      25A     -0.422410    26A     -0.412486    27A     -0.374196
      28A     -0.368225    29A     -0.367829    30A     -0.355297
      31A     -0.344688    32A     -0.255487    33A     -0.253266
      34A     -0.251759

  @DF-RHF Final Energy:  -839.93227919373408

   => Energetics <=

    Nuclear Repulsion Energy =            305.2655225701143991
    One-Electron Energy =               -1780.7380197236725508
    Two-Electron Energy =                 635.5402179598240764
    Total Energy =                       -839.9322791937340753
 Dipole X            :         75.3131112          -73.4818190            1.8312922
 Dipole Y            :          2.1636735           -2.6680382           -0.5043647
 Dipole Z            :        -83.1479657           81.6878035           -1.4601622
 Magnitude           :                                                    2.3958482
  Basis Set: (AUG-CC-PVTZ AUX)
    Blend: AUG-CC-PVTZ-RI
	 Reference Energy          =    -839.9322791937340753 [Eh]
	 Singles Energy            =      -0.0000000000000000 [Eh]
	 Same-Spin Energy          =      -0.4160454938425972 [Eh]
	 Opposite-Spin Energy      =      -1.2720400438723967 [Eh]
	 Correlation Energy        =      -1.6880855377149939 [Eh]
	 Total Energy              =    -841.6203647314490581 [Eh]

	 ================> DF-SCS-MP2 Energies <==================
	-----------------------------------------------------------
	 SCS Same-Spin Scale       =       0.3333333333333333 [-]
	 SCS Opposite-Spin Scale   =       1.2000000000000000 [-]
	 SCS Same-Spin Energy      =      -0.1386818312808657 [Eh]
	 SCS Opposite-Spin Energy  =      -1.5264480526468760 [Eh]
	 SCS Correlation Energy    =      -1.6651298839277417 [Eh]
	 SCS Total Energy          =    -841.5974090776618368 [Eh]
	-----------------------------------------------------------

*** Psi4 exiting successfully. Buy a developer a beer!
