                               Psi4 1.8.2 release

  ==> Input File <==

--------------------------------------------------------------------------
MEMORY 60 GB

molecule dimer {
0 1
Gh(Cl)     0.000000     0.000000     0.000000
O          0.492480     2.119925     2.296583
H          1.238518     2.643439     2.041108
H          0.428501     1.470490     1.595291
Gh(O)      1.846097    -0.277742    -2.537849
Gh(H)      1.865917     0.411947    -1.809728
Gh(H)      2.620355    -0.119265    -3.081945
Gh(O)      3.187083    -0.808910     0.753096
Gh(H)      3.837814    -1.275304     0.218624
Gh(H)      2.304602    -0.967605     0.432768
Gh(O)      0.003568    -2.530042     1.974166
Gh(H)      0.083099    -2.248155     2.894335
Gh(H)     -0.019839    -1.660895     1.441275
Gh(O)     -3.021706     1.403988     0.981928
Gh(H)     -3.587380     0.629525     1.177356
Gh(H)     -2.182889     0.987880     0.753889

units ang
no_reorient
no_com
symmetry c1
}

set {
basis        aug-cc-pVTZ
scf_type     df
}

energy("mp2")
--------------------------------------------------------------------------

    Molecular point group: c1

    Geometry (in Angstrom), charge = 0, multiplicity = 1:

       Center              X                  Y                   Z               Mass
    ------------   -----------------  -----------------  -----------------  -----------------
      Gh(CL)          0.000000000000     0.000000000000     0.000000000000    34.968852682000
         O            0.492480000000     2.119925000000     2.296583000000    15.994914619570
         H            1.238518000000     2.643439000000     2.041108000000     1.007825032230
         H            0.428501000000     1.470490000000     1.595291000000     1.007825032230
      Gh(O)           1.846097000000    -0.277742000000    -2.537849000000    15.994914619570
      Gh(H)           1.865917000000     0.411947000000    -1.809728000000     1.007825032230
      Gh(H)           2.620355000000    -0.119265000000    -3.081945000000     1.007825032230
      Gh(O)           3.187083000000    -0.808910000000     0.753096000000    15.994914619570
      Gh(H)           3.837814000000    -1.275304000000     0.218624000000     1.007825032230
      Gh(H)           2.304602000000    -0.967605000000     0.432768000000     1.007825032230
      Gh(O)           0.003568000000    -2.530042000000     1.974166000000    15.994914619570
      Gh(H)           0.083099000000    -2.248155000000     2.894335000000     1.007825032230
      Gh(H)          -0.019839000000    -1.660895000000     1.441275000000     1.007825032230
      Gh(O)          -3.021706000000     1.403988000000     0.981928000000    15.994914619570
      Gh(H)          -3.587380000000     0.629525000000     1.177356000000     1.007825032230
      Gh(H)          -2.182889000000     0.987880000000     0.753889000000     1.007825032230

  Charge       = 0
  Multiplicity = 1
  Basis Set: AUG-CC-PVTZ
    Blend: AUG-CC-PVTZ
  Basis Set: (AUG-CC-PVTZ AUX)
    Blend: AUG-CC-PVTZ-JKFIT

    Orbital Energies [Eh]
    ---------------------

    Doubly Occupied:

       1A    -20.566792     2A     -1.357100     3A     -0.718167
       4A     -0.588245     5A     -0.511124

  @DF-RHF Final Energy:   -76.06074232345357

   => Energetics <=

    Nuclear Repulsion Energy =              9.2461477698647183
    One-Electron Energy =                -123.1309206686517399
    Two-Electron Energy =                  37.8240305753334525
    Total Energy =                        -76.0607423234535673
 Dipole X            :        -10.1403927           10.5954279            0.4550352
 Dipole Y            :        -39.9051410           39.8228204           -0.0823206
 Dipole Z            :        -42.2273065           41.5911013           -0.6362052
 Magnitude           :                                                    0.7865054
  Basis Set: (AUG-CC-PVTZ AUX)
    Blend: AUG-CC-PVTZ-RI
	 Reference Energy          =     -76.0607423234535673 [Eh]
	 Singles Energy            =      -0.0000000000000000 [Eh]
	 Same-Spin Energy          =      -0.0683286110140150 [Eh]
	 Opposite-Spin Energy      =      -0.2156860551358411 [Eh]
	 Correlation Energy        =      -0.2840146661498562 [Eh]
	 Total Energy              =     -76.3447569896034253 [Eh]

	 ================> DF-SCS-MP2 Energies <==================
	-----------------------------------------------------------
	 SCS Same-Spin Scale       =       0.3333333333333333 [-]
	 SCS Opposite-Spin Scale   =       1.2000000000000000 [-]
	 SCS Same-Spin Energy      =      -0.0227762036713383 [Eh]
	 SCS Opposite-Spin Energy  =      -0.2588232661630093 [Eh]
	 SCS Correlation Energy    =      -0.2815994698343477 [Eh]
	 SCS Total Energy          =     -76.3423417932879147 [Eh]
	-----------------------------------------------------------

*** Psi4 exiting successfully. Buy a developer a beer!
