                               Psi4 1.9 release

  ==> Input File <==

--------------------------------------------------------------------------
MEMORY 60 GB

molecule dimer {
-1 1
Cl     0.000000     0.000000     0.000000
--
0 1
O      2.217451     0.173132    -2.196728
H      1.450489     0.085813    -1.601960
H      2.136415     1.036921    -2.632012
O     -3.104951     1.312552    -0.666533
H     -2.224123     0.928576    -0.487843
H     -3.617532     0.562843    -0.908656
O      1.272227     2.966293     0.141325
H      0.856129     3.522110     0.878231
H      0.642780     2.184762     0.155358
O      0.216100     0.918779     3.064477
H      0.501188     0.528894     2.252647
H     -0.506248     0.390525     3.374447
O      1.294073    -2.891435     1.095122
H      1.863156    -3.654697     1.184616
H      1.395565    -2.604001     0.149232
O     -1.460884    -1.361846    -2.351721
H     -0.940849    -0.704004    -1.930802
H     -1.693945    -0.968444    -3.207386

units ang
no_reorient
no_com
symmetry c1
}

set {
basis        aug-cc-pVTZ
scf_type     df
}

energy("mp2", bsse_type="cp")
--------------------------------------------------------------------------

                               Psi4 1.9 release
    Molecular point group: c1
  Charge       = 0
  Multiplicity = 1
  Basis Set: AUG-CC-PVTZ
    Blend: AUG-CC-PVTZ
  Basis Set: (AUG-CC-PVTZ AUX)
    Blend: AUG-CC-PVTZ-JKFIT
  @DF-RHF Final Energy:  -456.34755281108642
    Total Energy =                       -456.3475528110864161
 Dipole X            :         -6.9056200            6.3025258           -0.6030942
 Dipole Y            :        -19.9939775           19.3679883           -0.6259893
 Dipole Z            :         18.4123916          -19.0608964           -0.6485048
 Magnitude           :                                                    1.0845016
  Basis Set: (AUG-CC-PVTZ AUX)
    Blend: AUG-CC-PVTZ-RI
	 Reference Energy          =    -456.3475528110864161 [Eh]
	 Singles Energy            =      -0.0000000000000000 [Eh]
	 Same-Spin Energy          =      -0.4130849852618895 [Eh]
	 Opposite-Spin Energy      =      -1.3001978936880589 [Eh]
	 Correlation Energy        =      -1.7132828789499484 [Eh]
	 Total Energy              =    -458.0608356900363560 [Eh]
	 SCS Total Energy          =    -458.0454852785993580 [Eh]
                               Psi4 1.9 release
    Molecular point group: c1
  Multiplicity = 1
  Basis Set: AUG-CC-PVTZ
    Blend: AUG-CC-PVTZ
  Basis Set: (AUG-CC-PVTZ AUX)
    Blend: AUG-CC-PVTZ-JKFIT
  @DF-RHF Final Energy:  -459.57359110564596
    Total Energy =                       -459.5735911056459599
  Basis Set: (AUG-CC-PVTZ AUX)
	 Singles Energy            =      -0.0000000000000000 [Eh]
	 Same-Spin Energy          =      -0.0636817282315628 [Eh]
	 Opposite-Spin Energy      =      -0.1844580979205305 [Eh]
	 Correlation Energy        =      -0.2481398261520933 [Eh]
	 Total Energy              =    -459.8217309317980721 [Eh]
	 SCS Total Energy          =    -459.8161680658944306 [Eh]
                               Psi4 1.9 release
    Molecular point group: c1

    Geometry (in Bohr), charge = -1, multiplicity = 1:

       Center              X                  Y                   Z               Mass
    ------------   -----------------  -----------------  -----------------  -----------------
         CL           0.000000000000     0.000000000000     0.000000000000    34.968852682000
         O            4.190375086623     0.327172063553    -4.151214292125    15.994914619570
         H            2.741026957989     0.162163068004    -3.027265663938     1.007825032230
         H            4.037239240320     1.959496703736    -4.973781838919     1.007825032230
         O           -5.867507022966     2.480363805422    -1.259564823580    15.994914619570
         H           -4.202983339332     1.754754326673    -0.921889662222     1.007825032230
         H           -6.836144730080     1.063619121631    -1.717110982254     1.007825032230
         O            2.404160599413     5.605481377863     0.267065544680    15.994914619570
         H            1.617849338062     6.655823283736     1.659616064887     1.007825032230
         H            1.214678158922     4.128601829307     0.293584071399     1.007825032230
         O            0.408369815711     1.736240679822     5.791022247765    15.994914619570
         H            0.947108057366     0.999464809398     4.256885887334     1.007825032230
         H           -0.956670071561     0.737985295144     6.376780654873     1.007825032230
         O            2.445443556350    -5.464020259563     2.069480653964    15.994914619570
         H            3.520854569004    -6.906376401532     2.238599803835     1.007825032230
         H            2.637235640275    -4.920848720418     0.282007609154     1.007825032230
         O           -2.760670661063    -2.573515965050    -4.444108613488    15.994914619570
         H           -1.777946935411    -1.330374751227    -3.648686982486     1.007825032230
         H           -3.201092121589    -1.830093927843    -6.061081118628     1.007825032230

  Charge       = -1
  Multiplicity = 1
  Basis Set: AUG-CC-PVTZ
    Blend: AUG-CC-PVTZ
  Basis Set: (AUG-CC-PVTZ AUX)
    Blend: AUG-CC-PVTZ-JKFIT

    Orbital Energies [Eh]
    ---------------------

    Doubly Occupied:

       1A   -104.592493     2A    -20.443642     3A    -20.425660
       4A    -20.425091     5A    -20.420100     6A    -20.412661
       7A    -20.409106     8A    -10.318470     9A     -7.784587
      10A     -7.784502    11A     -7.784485    12A     -1.218444
      13A     -1.217758    14A     -1.213932    15A     -1.209190
      16A     -1.189528    17A     -1.178436    18A     -0.842136
      19A     -0.583693    20A     -0.582295    21A     -0.578881
      22A     -0.574747    23A     -0.561067    24A     -0.529658
      25A     -0.454213    26A     -0.452763    27A     -0.450088
      28A     -0.439877    29A     -0.435992    30A     -0.428228
      31A     -0.382593    32A     -0.376292    33A     -0.368991
      34A     -0.363991    35A     -0.355217    36A     -0.353376
      37A     -0.252426    38A     -0.250132    39A     -0.247380

  @DF-RHF Final Energy:  -915.98577956498275

   => Energetics <=

    Nuclear Repulsion Energy =            394.5332123845936394
    One-Electron Energy =               -2065.2537351751157075
    Two-Electron Energy =                 754.7347432255392050
    Total Energy =                       -915.9857795649827494
 Dipole X            :         -6.9289064            6.3025258           -0.6263807
 Dipole Y            :        -20.3827085           19.3679883           -1.0147202
 Dipole Z            :         18.7806168          -19.0608964           -0.2802796
 Magnitude           :                                                    1.2249761
  Basis Set: (AUG-CC-PVTZ AUX)
    Blend: AUG-CC-PVTZ-RI
	 Reference Energy          =    -915.9857795649827494 [Eh]
	 Singles Energy            =      -0.0000000000000000 [Eh]
	 Same-Spin Energy          =      -0.4877701758049469 [Eh]
	 Opposite-Spin Energy      =      -1.4930788275014584 [Eh]
	 Correlation Energy        =      -1.9808490033064052 [Eh]
	 Total Energy              =    -917.9666285682891385 [Eh]

	 ================> DF-SCS-MP2 Energies <==================
	-----------------------------------------------------------
	 SCS Same-Spin Scale       =       0.3333333333333333 [-]
	 SCS Opposite-Spin Scale   =       1.2000000000000000 [-]
	 SCS Same-Spin Energy      =      -0.1625900586016489 [Eh]
	 SCS Opposite-Spin Energy  =      -1.7916945930017500 [Eh]
	 SCS Correlation Energy    =      -1.9542846516033989 [Eh]
	 SCS Total Energy          =    -917.9400642165861655 [Eh]
	-----------------------------------------------------------

*** Psi4 exiting successfully. Buy a developer a beer!
