                               Psi4 1.9 release

  ==> Input File <==

--------------------------------------------------------------------------
MEMORY 60 GB

molecule dimer {
-1 1
Cl     0.000000     0.000000     0.000000
--
0 1
O      1.786944     1.711555     1.976520
H      1.111820     1.133941     1.610336
H      1.229781     2.396537     2.442747
O      1.278940     2.444591    -1.619882
H      0.965176     1.877241    -0.966811
H      1.460854     3.349589    -1.319799
O     -0.467110     0.733530    -3.068056
H     -0.325138    -0.146267    -3.313972
H     -1.312864     0.680258    -2.644071
O      2.465554    -1.889270     0.290668
H      3.217113    -1.488307     0.658887
H      1.814208    -1.180145     0.387811
O     -0.519821    -0.088559     3.075289
H     -0.722845     0.815865     3.291041
H     -0.491445    -0.012457     2.085786
O     -2.750066     0.488210    -1.600511
H     -2.980126    -0.008406    -0.777965
H     -3.594984     0.525279    -2.067696

units ang
no_reorient
no_com
symmetry c1
}

set {
basis        aug-cc-pVTZ
scf_type     df
}

energy("mp2", bsse_type="cp")
--------------------------------------------------------------------------

                               Psi4 1.9 release
    Molecular point group: c1
  Charge       = 0
  Multiplicity = 1
  Basis Set: AUG-CC-PVTZ
    Blend: AUG-CC-PVTZ
  Basis Set: (AUG-CC-PVTZ AUX)
    Blend: AUG-CC-PVTZ-JKFIT
  @DF-RHF Final Energy:  -456.33541063029355
    Total Energy =                       -456.3354106302935520
 Dipole X            :        -30.0808581           27.8301440           -2.2507140
 Dipole Y            :        -65.7053917           66.4117488            0.7063571
 Dipole Z            :         16.4985030          -15.4607603            1.0377428
 Magnitude           :                                                    2.5771232
  Basis Set: (AUG-CC-PVTZ AUX)
    Blend: AUG-CC-PVTZ-RI
	 Reference Energy          =    -456.3354106302935520 [Eh]
	 Singles Energy            =      -0.0000000000000000 [Eh]
	 Same-Spin Energy          =      -0.4153648101060661 [Eh]
	 Opposite-Spin Energy      =      -1.3016054099826464 [Eh]
	 Correlation Energy        =      -1.7169702200887125 [Eh]
	 Total Energy              =    -458.0523808503822920 [Eh]
	 SCS Total Energy          =    -458.0357920589747778 [Eh]
                               Psi4 1.9 release
    Molecular point group: c1
  Multiplicity = 1
  Basis Set: AUG-CC-PVTZ
    Blend: AUG-CC-PVTZ
  Basis Set: (AUG-CC-PVTZ AUX)
    Blend: AUG-CC-PVTZ-JKFIT
  @DF-RHF Final Energy:  -459.57358741702245
    Total Energy =                       -459.5735874170225088
  Basis Set: (AUG-CC-PVTZ AUX)
	 Singles Energy            =      -0.0000000000000000 [Eh]
	 Same-Spin Energy          =      -0.0636971682954523 [Eh]
	 Opposite-Spin Energy      =      -0.1844665656906604 [Eh]
	 Correlation Energy        =      -0.2481637339861127 [Eh]
	 Total Energy              =    -459.8217511510085842 [Eh]
	 SCS Total Energy          =    -459.8161796852830889 [Eh]
                               Psi4 1.9 release
    Molecular point group: c1

    Geometry (in Bohr), charge = -1, multiplicity = 1:

       Center              X                  Y                   Z               Mass
    ------------   -----------------  -----------------  -----------------  -----------------
         CL           0.000000000000     0.000000000000     0.000000000000    34.968852682000
         O            3.376834761530     3.234370198658     3.735081481490    15.994914619570
         H            2.101035300807     2.142837932428     3.043094009965     1.007825032230
         H            2.323949284292     4.528798579526     4.616122823784     1.007825032230
         O            2.416846330893     4.619607478759    -3.061133335559    15.994914619570
         H            1.823918302865     3.547471361481    -1.827008005080     1.007825032230
         H            2.760613969280     6.329805842846    -2.494058650653     1.007825032230
         O           -0.882709970463     1.386170804807    -5.797785577568    15.994914619570
         H           -0.614421772979    -0.276404571192    -6.262499467436     1.007825032230
         H           -2.480953399973     1.285501314652    -4.996570046265     1.007825032230
         O            4.659221807527    -3.570202877044     0.549282913435    15.994914619570
         H            6.079462484650    -2.812492620602     1.245115977625     1.007825032230
         H            3.428356254615    -2.230150838328     0.732856578440     1.007825032230
         O           -0.982319324262    -0.167352255944     5.811453966633    15.994914619570
         H           -1.365979081157     1.541761405347     6.219166157653     1.007825032230
         H           -0.928696455726    -0.023540318345     3.941564296314     1.007825032230
         O           -5.196871566933     0.922583191710    -3.024527450783    15.994914619570
         H           -5.631621959356    -0.015885037811    -1.470140785192     1.007825032230
         H           -6.793535185403     0.992633449454    -3.907379150705     1.007825032230

  Charge       = -1
  Multiplicity = 1
  Basis Set: AUG-CC-PVTZ
    Blend: AUG-CC-PVTZ
  Basis Set: (AUG-CC-PVTZ AUX)
    Blend: AUG-CC-PVTZ-JKFIT

    Orbital Energies [Eh]
    ---------------------

    Doubly Occupied:

       1A   -104.572575     2A    -20.472799     3A    -20.418847
       4A    -20.412478     5A    -20.392260     6A    -20.382520
       7A    -20.378114     8A    -10.298540     9A     -7.764603
      10A     -7.764560    11A     -7.764510    12A     -1.251048
      13A     -1.200577    14A     -1.193167    15A     -1.191246
      16A     -1.187186    17A     -1.176841    18A     -0.822725
      19A     -0.606210    20A     -0.569321    21A     -0.563040
      22A     -0.556708    23A     -0.547359    24A     -0.544687
      25A     -0.484453    26A     -0.452912    27A     -0.434615
      28A     -0.428300    29A     -0.425098    30A     -0.404577
      31A     -0.387152    32A     -0.368738    33A     -0.349287
      34A     -0.342647    35A     -0.338813    36A     -0.327439
      37A     -0.231325    38A     -0.229807    39A     -0.226925

  @DF-RHF Final Energy:  -915.95406953613895

   => Energetics <=

    Nuclear Repulsion Energy =            411.6309255253830202
    One-Electron Energy =               -2100.2419591324191970
    Two-Electron Energy =                 772.6569640708972884
    Total Energy =                       -915.9540695361389453
 Dipole X            :        -30.4051328           27.8301440           -2.5749888
 Dipole Y            :        -66.0313217           66.4117488            0.3804271
 Dipole Z            :         15.8493574          -15.4607603            0.3885971
 Magnitude           :                                                    2.6317864
  Basis Set: (AUG-CC-PVTZ AUX)
    Blend: AUG-CC-PVTZ-RI
	 Reference Energy          =    -915.9540695361389453 [Eh]
	 Singles Energy            =      -0.0000000000000000 [Eh]
	 Same-Spin Energy          =      -0.4903426270526883 [Eh]
	 Opposite-Spin Energy      =      -1.4953736323454148 [Eh]
	 Correlation Energy        =      -1.9857162593981030 [Eh]
	 Total Energy              =    -917.9397857955370910 [Eh]

	 ================> DF-SCS-MP2 Energies <==================
	-----------------------------------------------------------
	 SCS Same-Spin Scale       =       0.3333333333333333 [-]
	 SCS Opposite-Spin Scale   =       1.2000000000000000 [-]
	 SCS Same-Spin Energy      =      -0.1634475423508961 [Eh]
	 SCS Opposite-Spin Energy  =      -1.7944483588144977 [Eh]
	 SCS Correlation Energy    =      -1.9578959011653938 [Eh]
	 SCS Total Energy          =    -917.9119654373043886 [Eh]
	-----------------------------------------------------------

*** Psi4 exiting successfully. Buy a developer a beer!
