                               Psi4 1.9 release

  ==> Input File <==

--------------------------------------------------------------------------
MEMORY 60 GB

molecule dimer {
-1 1
Cl     0.000000     0.000000     0.000000
--
0 1
O      0.492480     2.119925     2.296583
H      1.238518     2.643439     2.041108
H      0.428501     1.470490     1.595291
O      1.846097    -0.277742    -2.537849
H      1.865917     0.411947    -1.809728
H      2.620355    -0.119265    -3.081945
O      3.187083    -0.808910     0.753096
H      3.837814    -1.275304     0.218624
H      2.304602    -0.967605     0.432768
O      0.003568    -2.530042     1.974166
H      0.083099    -2.248155     2.894335
H     -0.019839    -1.660895     1.441275
O     -3.021706     1.403988     0.981928
H     -3.587380     0.629525     1.177356
H     -2.182889     0.987880     0.753889

units ang
no_reorient
no_com
symmetry c1
}

set {
basis        aug-cc-pVTZ
scf_type     df
}

energy("mp2", bsse_type="cp")
--------------------------------------------------------------------------

                               Psi4 1.9 release
    Molecular point group: c1
  Charge       = 0
  Multiplicity = 1
  Basis Set: AUG-CC-PVTZ
    Blend: AUG-CC-PVTZ
  Basis Set: (AUG-CC-PVTZ AUX)
    Blend: AUG-CC-PVTZ-JKFIT
  @DF-RHF Final Energy:  -380.28748837654678
    Total Energy =                       -380.2874883765467757
 Dipole X            :        -49.2841409           50.3590734            1.0749325
 Dipole Y            :          1.6427079           -1.6444227           -0.0017147
 Dipole Z            :        -63.9361020           63.1288807           -0.8072213
 Magnitude           :                                                    1.3442801
  Basis Set: (AUG-CC-PVTZ AUX)
    Blend: AUG-CC-PVTZ-RI
	 Reference Energy          =    -380.2874883765467757 [Eh]
	 Singles Energy            =      -0.0000000000000000 [Eh]
	 Same-Spin Energy          =      -0.3440567090051996 [Eh]
	 Opposite-Spin Energy      =      -1.0832774115634418 [Eh]
	 Correlation Energy        =      -1.4273341205686414 [Eh]
	 Total Energy              =    -381.7148224971153923 [Eh]
	 SCS Total Energy          =    -381.7021068400912895 [Eh]
                               Psi4 1.9 release
    Molecular point group: c1
  Multiplicity = 1
  Basis Set: AUG-CC-PVTZ
    Blend: AUG-CC-PVTZ
  Basis Set: (AUG-CC-PVTZ AUX)
    Blend: AUG-CC-PVTZ-JKFIT
  @DF-RHF Final Energy:  -459.57357546409492
    Total Energy =                       -459.5735754640949153
  Basis Set: (AUG-CC-PVTZ AUX)
	 Singles Energy            =      -0.0000000000000000 [Eh]
	 Same-Spin Energy          =      -0.0635098376799599 [Eh]
	 Opposite-Spin Energy      =      -0.1836480055654895 [Eh]
	 Correlation Energy        =      -0.2471578432454495 [Eh]
	 Total Energy              =    -459.8207333073403902 [Eh]
	 SCS Total Energy          =    -459.8151230166668029 [Eh]
                               Psi4 1.9 release
    Molecular point group: c1

    Geometry (in Bohr), charge = -1, multiplicity = 1:

       Center              X                  Y                   Z               Mass
    ------------   -----------------  -----------------  -----------------  -----------------
         CL           0.000000000000     0.000000000000     0.000000000000    34.968852682000
         O            0.930652322265     4.006077656511     4.339912894382    15.994914619570
         H            2.340459821450     4.995375739354     3.857135112481     1.007825032230
         H            0.809749534485     2.778823370224     3.014663080408     1.007825032230
         O            3.488617731029    -0.524856313537    -4.795839557767    15.994914619570
         H            3.526072102836     0.778467008204    -3.419890281573     1.007825032230
         H            4.951753301474    -0.225378186353    -5.824031983724     1.007825032230
         O            6.022714009103    -1.528618360144     1.423145186178    15.994914619570
         H            7.252417380448    -2.409975286701     0.413139484452     1.007825032230
         H            4.355066608182    -1.828508447624     0.817812995862     1.007825032230
         O            0.006742542816    -4.781086465906     3.730633066191    15.994914619570
         H            0.157034351299    -4.248397237579     5.469500465327     1.007825032230
         H           -0.037490276603    -3.138636673142     2.723615021469     1.007825032230
         O           -5.710196771653     2.653152803429     1.855574994919    15.994914619570
         H           -6.779165707945     1.189629839129     2.224880392165     1.007825032230
         H           -4.125062372275     1.866822644817     1.424643738995     1.007825032230

  Charge       = -1
  Multiplicity = 1
  Basis Set: AUG-CC-PVTZ
    Blend: AUG-CC-PVTZ
  Basis Set: (AUG-CC-PVTZ AUX)
    Blend: AUG-CC-PVTZ-JKFIT

    Orbital Energies [Eh]
    ---------------------

    Doubly Occupied:

       1A   -104.580426     2A    -20.438749     3A    -20.423444
       4A    -20.419485     5A    -20.407815     6A    -20.401169
       7A    -10.305704     8A     -7.771798     9A     -7.771773
      10A     -7.771745    11A     -1.210778    12A     -1.209113
      13A     -1.198875    14A     -1.195636    15A     -1.176835
      16A     -0.825143    17A     -0.590979    18A     -0.577063
      19A     -0.559582    20A     -0.555744    21A     -0.540917
      22A     -0.445701    23A     -0.441362    24A     -0.435898
      25A     -0.431589    26A     -0.423269    27A     -0.379141
      28A     -0.368782    29A     -0.361774    30A     -0.350288
      31A     -0.347770    32A     -0.237152    33A     -0.235939
      34A     -0.233579

  @DF-RHF Final Energy:  -839.91954513048609

   => Energetics <=

    Nuclear Repulsion Energy =            300.0315917160427830
    One-Electron Energy =               -1770.6522265848579991
    Two-Electron Energy =                 630.7010897383290740
    Total Energy =                       -839.9195451304860853
 Dipole X            :        -49.5286367           50.3590734            0.8304367
 Dipole Y            :          1.6662717           -1.6444227            0.0218490
 Dipole Z            :        -64.5788009           63.1288807           -1.4499202
 Magnitude           :                                                    1.6710390
  Basis Set: (AUG-CC-PVTZ AUX)
    Blend: AUG-CC-PVTZ-RI
	 Reference Energy          =    -839.9195451304860853 [Eh]
	 Singles Energy            =      -0.0000000000000000 [Eh]
	 Same-Spin Energy          =      -0.4166682729391755 [Eh]
	 Opposite-Spin Energy      =      -1.2738589532563127 [Eh]
	 Correlation Energy        =      -1.6905272261954882 [Eh]
	 Total Energy              =    -841.6100723566815986 [Eh]

	 ================> DF-SCS-MP2 Energies <==================
	-----------------------------------------------------------
	 SCS Same-Spin Scale       =       0.3333333333333333 [-]
	 SCS Opposite-Spin Scale   =       1.2000000000000000 [-]
	 SCS Same-Spin Energy      =      -0.1388894243130585 [Eh]
	 SCS Opposite-Spin Energy  =      -1.5286307439075753 [Eh]
	 SCS Correlation Energy    =      -1.6675201682206338 [Eh]
	 SCS Total Energy          =    -841.5870652987067615 [Eh]
	-----------------------------------------------------------

*** Psi4 exiting successfully. Buy a developer a beer!
