                               Psi4 1.8.2 release

  ==> Input File <==

--------------------------------------------------------------------------
MEMORY 60 GB

molecule dimer {
-1 1
Cl         0.000000     0.000000     0.000000
O         -1.632332     2.490935     1.090048
H         -2.053129     2.113159     1.904687
H         -1.215364     1.757596     0.622949
O          0.950607     2.374464    -2.175994
H          0.927656     1.703640    -1.451191
H          1.486632     2.014327    -2.868406
O          1.822289     1.832252     1.982226
H          1.341000     2.127700     2.740689
H          1.159400     1.352759     1.469391
O          1.460341    -2.851653    -1.369342
H          0.883151    -3.546723    -1.094304
H          1.133759    -1.999688    -1.056883
O         -0.794840    -0.536729    -3.305985
H         -1.209369    -0.160838    -4.088131
H         -0.723789     0.210704    -2.606868

units ang
no_reorient
no_com
symmetry c1
}

set {
basis        aug-cc-pVTZ
scf_type     df
}

energy("mp2")
--------------------------------------------------------------------------

    Molecular point group: c1

    Geometry (in Angstrom), charge = -1, multiplicity = 1:

       Center              X                  Y                   Z               Mass
    ------------   -----------------  -----------------  -----------------  -----------------
         CL           0.000000000000     0.000000000000     0.000000000000    34.968852682000
         O           -1.632332000000     2.490935000000     1.090048000000    15.994914619570
         H           -2.053129000000     2.113159000000     1.904687000000     1.007825032230
         H           -1.215364000000     1.757596000000     0.622949000000     1.007825032230
         O            0.950607000000     2.374464000000    -2.175994000000    15.994914619570
         H            0.927656000000     1.703640000000    -1.451191000000     1.007825032230
         H            1.486632000000     2.014327000000    -2.868406000000     1.007825032230
         O            1.822289000000     1.832252000000     1.982226000000    15.994914619570
         H            1.341000000000     2.127700000000     2.740689000000     1.007825032230
         H            1.159400000000     1.352759000000     1.469391000000     1.007825032230
         O            1.460341000000    -2.851653000000    -1.369342000000    15.994914619570
         H            0.883151000000    -3.546723000000    -1.094304000000     1.007825032230
         H            1.133759000000    -1.999688000000    -1.056883000000     1.007825032230
         O           -0.794840000000    -0.536729000000    -3.305985000000    15.994914619570
         H           -1.209369000000    -0.160838000000    -4.088131000000     1.007825032230
         H           -0.723789000000     0.210704000000    -2.606868000000     1.007825032230

  Charge       = -1
  Multiplicity = 1
  Basis Set: AUG-CC-PVTZ
    Blend: AUG-CC-PVTZ
  Basis Set: (AUG-CC-PVTZ AUX)
    Blend: AUG-CC-PVTZ-JKFIT

    Orbital Energies [Eh]
    ---------------------

    Doubly Occupied:

       1A   -104.587624     2A    -20.433779     3A    -20.420937
       4A    -20.416734     5A    -20.414306     6A    -20.409012
       7A    -10.312732     8A     -7.778857     9A     -7.778807
      10A     -7.778772    11A     -1.203872    12A     -1.203182
      13A     -1.200423    14A     -1.198055    15A     -1.192622
      16A     -0.830778    17A     -0.583379    18A     -0.574131
      19A     -0.567193    20A     -0.564202    21A     -0.561931
      22A     -0.438766    23A     -0.437684    24A     -0.436052
      25A     -0.431939    26A     -0.429571    27A     -0.372719
      28A     -0.364020    29A     -0.361828    30A     -0.361766
      31A     -0.354369    32A     -0.244554    33A     -0.241636
      34A     -0.240091

  @DF-RHF Final Energy:  -839.92570653723590

   => Energetics <=

    Nuclear Repulsion Energy =            298.7654748346950555
    One-Electron Energy =               -1767.9297125822754424
    Two-Electron Energy =                 629.2385312103446040
    Total Energy =                       -839.9257065372358966
 Dipole X            :        -31.9345244           30.5728718           -1.3616526
 Dipole Y            :        -61.6645389           60.5596525           -1.1048864
 Dipole Z            :         70.1424438          -69.2781969            0.8642469
 Magnitude           :                                                    1.9549410
  Basis Set: (AUG-CC-PVTZ AUX)
    Blend: AUG-CC-PVTZ-RI
	 Reference Energy          =    -839.9257065372358966 [Eh]
	 Singles Energy            =      -0.0000000000000000 [Eh]
	 Same-Spin Energy          =      -0.4157484752300210 [Eh]
	 Opposite-Spin Energy      =      -1.2722502744162980 [Eh]
	 Correlation Energy        =      -1.6879987496463191 [Eh]
	 Total Energy              =    -841.6137052868822366 [Eh]

	 ================> DF-SCS-MP2 Energies <==================
	-----------------------------------------------------------
	 SCS Same-Spin Scale       =       0.3333333333333333 [-]
	 SCS Opposite-Spin Scale   =       1.2000000000000000 [-]
	 SCS Same-Spin Energy      =      -0.1385828250766737 [Eh]
	 SCS Opposite-Spin Energy  =      -1.5267003292995576 [Eh]
	 SCS Correlation Energy    =      -1.6652831543762312 [Eh]
	 SCS Total Energy          =    -841.5909896916120942 [Eh]
	-----------------------------------------------------------

*** Psi4 exiting successfully. Buy a developer a beer!
