                               Psi4 1.8.2 release

  ==> Input File <==

--------------------------------------------------------------------------
MEMORY 60 GB

molecule dimer {
-1 1
Cl         0.000000     0.000000     0.000000
Gh(O)      1.179099    -2.702793    -1.094667
Gh(H)      0.929403    -2.029129    -0.462359
Gh(H)      1.092980    -3.573515    -0.633220
Gh(O)      0.081134    -0.715370     3.048829
Gh(H)      0.119206    -0.799922     2.117339
Gh(H)      0.247800     0.236344     3.210993
Gh(O)      3.112573     0.441417     0.245605
Gh(H)      3.060093     0.433467     1.176247
Gh(H)      2.153407     0.499648    -0.068952
Gh(O)      1.136783     3.068748     0.881171
Gh(H)      0.679395     2.461157     0.268662
Gh(H)      1.062669     3.915090     0.427493

units ang
no_reorient
no_com
symmetry c1
}

set {
basis        aug-cc-pVTZ
scf_type     df
}

energy("mp2")
--------------------------------------------------------------------------

    Molecular point group: c1

    Geometry (in Angstrom), charge = -1, multiplicity = 1:

       Center              X                  Y                   Z               Mass
    ------------   -----------------  -----------------  -----------------  -----------------
         CL           0.000000000000     0.000000000000     0.000000000000    34.968852682000
      Gh(O)           1.179099000000    -2.702793000000    -1.094667000000    15.994914619570
      Gh(H)           0.929403000000    -2.029129000000    -0.462359000000     1.007825032230
      Gh(H)           1.092980000000    -3.573515000000    -0.633220000000     1.007825032230
      Gh(O)           0.081134000000    -0.715370000000     3.048829000000    15.994914619570
      Gh(H)           0.119206000000    -0.799922000000     2.117339000000     1.007825032230
      Gh(H)           0.247800000000     0.236344000000     3.210993000000     1.007825032230
      Gh(O)           3.112573000000     0.441417000000     0.245605000000    15.994914619570
      Gh(H)           3.060093000000     0.433467000000     1.176247000000     1.007825032230
      Gh(H)           2.153407000000     0.499648000000    -0.068952000000     1.007825032230
      Gh(O)           1.136783000000     3.068748000000     0.881171000000    15.994914619570
      Gh(H)           0.679395000000     2.461157000000     0.268662000000     1.007825032230
      Gh(H)           1.062669000000     3.915090000000     0.427493000000     1.007825032230

  Charge       = -1
  Multiplicity = 1
  Basis Set: AUG-CC-PVTZ
    Blend: AUG-CC-PVTZ
  Basis Set: (AUG-CC-PVTZ AUX)
    Blend: AUG-CC-PVTZ-JKFIT

    Orbital Energies [Eh]
    ---------------------

    Doubly Occupied:

       1A   -104.507102     2A    -10.230020     3A     -7.696085
       4A     -7.696078     5A     -7.696064     6A     -0.733473
       7A     -0.150314     8A     -0.150311     9A     -0.150308

  @DF-RHF Final Energy:  -459.57356493366478

   => Energetics <=

    Nuclear Repulsion Energy =              0.0000000000000000
    One-Electron Energy =                -641.1276345183912326
    Two-Electron Energy =                 181.5540695847264772
    Total Energy =                       -459.5735649336647839
 Dipole X            :          0.0003667            0.0000000            0.0003667
 Dipole Y            :         -0.0001715            0.0000000           -0.0001715
 Dipole Z            :          0.0001969            0.0000000            0.0001969
 Magnitude           :                                                    0.0004501
  Basis Set: (AUG-CC-PVTZ AUX)
    Blend: AUG-CC-PVTZ-RI
	 Reference Energy          =    -459.5735649336647839 [Eh]
	 Singles Energy            =      -0.0000000000000000 [Eh]
	 Same-Spin Energy          =      -0.0633791976012325 [Eh]
	 Opposite-Spin Energy      =      -0.1831889427447373 [Eh]
	 Correlation Energy        =      -0.2465681403459698 [Eh]
	 Total Energy              =    -459.8201330740107551 [Eh]

	 ================> DF-SCS-MP2 Energies <==================
	-----------------------------------------------------------
	 SCS Same-Spin Scale       =       0.3333333333333333 [-]
	 SCS Opposite-Spin Scale   =       1.2000000000000000 [-]
	 SCS Same-Spin Energy      =      -0.0211263992004108 [Eh]
	 SCS Opposite-Spin Energy  =      -0.2198267312936847 [Eh]
	 SCS Correlation Energy    =      -0.2409531304940956 [Eh]
	 SCS Total Energy          =    -459.8145180641589036 [Eh]
	-----------------------------------------------------------

*** Psi4 exiting successfully. Buy a developer a beer!
