                               Psi4 1.8.2 release

  ==> Input File <==

--------------------------------------------------------------------------
MEMORY 60 GB

molecule dimer {
0 1
Gh(Cl)     0.000000     0.000000     0.000000
Gh(O)      3.232758    -0.679143     0.998305
Gh(H)      2.352463    -0.253635     0.918000
Gh(H)      3.312977    -1.122656     1.834457
Gh(O)     -2.454936    -1.285230     1.810301
Gh(H)     -2.196769    -2.160432     1.613182
Gh(H)     -1.954067    -0.746562     1.210287
Gh(O)      0.873783     0.373195    -3.146906
Gh(H)      0.360272     0.651094    -2.330817
Gh(H)      0.607163    -0.517887    -3.260182
Gh(O)     -1.303045     2.387289    -1.279544
Gh(H)     -0.857699     1.743440    -0.735850
Gh(H)     -1.694295     1.907056    -2.005066
O          0.564214     2.052023     2.184843
H          1.485460     2.275701     2.191810
H          0.459226     1.382168     1.506702

units ang
no_reorient
no_com
symmetry c1
}

set {
basis        aug-cc-pVTZ
scf_type     df
}

energy("mp2")
--------------------------------------------------------------------------

    Molecular point group: c1

    Geometry (in Angstrom), charge = 0, multiplicity = 1:

       Center              X                  Y                   Z               Mass
    ------------   -----------------  -----------------  -----------------  -----------------
      Gh(CL)          0.000000000000     0.000000000000     0.000000000000    34.968852682000
      Gh(O)           3.232758000000    -0.679143000000     0.998305000000    15.994914619570
      Gh(H)           2.352463000000    -0.253635000000     0.918000000000     1.007825032230
      Gh(H)           3.312977000000    -1.122656000000     1.834457000000     1.007825032230
      Gh(O)          -2.454936000000    -1.285230000000     1.810301000000    15.994914619570
      Gh(H)          -2.196769000000    -2.160432000000     1.613182000000     1.007825032230
      Gh(H)          -1.954067000000    -0.746562000000     1.210287000000     1.007825032230
      Gh(O)           0.873783000000     0.373195000000    -3.146906000000    15.994914619570
      Gh(H)           0.360272000000     0.651094000000    -2.330817000000     1.007825032230
      Gh(H)           0.607163000000    -0.517887000000    -3.260182000000     1.007825032230
      Gh(O)          -1.303045000000     2.387289000000    -1.279544000000    15.994914619570
      Gh(H)          -0.857699000000     1.743440000000    -0.735850000000     1.007825032230
      Gh(H)          -1.694295000000     1.907056000000    -2.005066000000     1.007825032230
         O            0.564214000000     2.052023000000     2.184843000000    15.994914619570
         H            1.485460000000     2.275701000000     2.191810000000     1.007825032230
         H            0.459226000000     1.382168000000     1.506702000000     1.007825032230

  Charge       = 0
  Multiplicity = 1
  Basis Set: AUG-CC-PVTZ
    Blend: AUG-CC-PVTZ
  Basis Set: (AUG-CC-PVTZ AUX)
    Blend: AUG-CC-PVTZ-JKFIT

    Orbital Energies [Eh]
    ---------------------

    Doubly Occupied:

       1A    -20.565784     2A     -1.354412     3A     -0.722830
       4A     -0.582592     5A     -0.510207

  @DF-RHF Final Energy:   -76.06088337781765

   => Energetics <=

    Nuclear Repulsion Energy =              9.2274019814437835
    One-Electron Energy =                -123.1049167982539956
    Two-Electron Energy =                  37.8166314389925802
    Total Energy =                        -76.0608833778176461
 Dipole X            :        -11.6564279           12.2046034            0.5481755
 Dipole Y            :        -38.2329044           37.9344624           -0.2984420
 Dipole Z            :        -40.4682101           40.0192139           -0.4489962
 Magnitude           :                                                    0.7688704
  Basis Set: (AUG-CC-PVTZ AUX)
    Blend: AUG-CC-PVTZ-RI
	 Reference Energy          =     -76.0608833778176461 [Eh]
	 Singles Energy            =      -0.0000000000000000 [Eh]
	 Same-Spin Energy          =      -0.0683082996255517 [Eh]
	 Opposite-Spin Energy      =      -0.2157011473798858 [Eh]
	 Correlation Energy        =      -0.2840094470054376 [Eh]
	 Total Energy              =     -76.3448928248230771 [Eh]

	 ================> DF-SCS-MP2 Energies <==================
	-----------------------------------------------------------
	 SCS Same-Spin Scale       =       0.3333333333333333 [-]
	 SCS Opposite-Spin Scale   =       1.2000000000000000 [-]
	 SCS Same-Spin Energy      =      -0.0227694332085172 [Eh]
	 SCS Opposite-Spin Energy  =      -0.2588413768558630 [Eh]
	 SCS Correlation Energy    =      -0.2816108100643803 [Eh]
	 SCS Total Energy          =     -76.3424941878820249 [Eh]
	-----------------------------------------------------------

*** Psi4 exiting successfully. Buy a developer a beer!
