                               Psi4 1.8.2 release

  ==> Input File <==

--------------------------------------------------------------------------
MEMORY 60 GB

molecule dimer {
-1 1
Cl         0.000000     0.000000     0.000000
Gh(O)      3.283874     0.023914     0.066002
Gh(H)      2.312251    -0.077803    -0.109892
Gh(H)      3.539398     0.361898    -0.833054
Gh(O)     -0.063433     0.767355    -3.215659
Gh(H)      0.774290     0.372773    -3.374160
Gh(H)     -0.183096     0.530838    -2.284812
Gh(O)     -0.156099    -2.335974    -2.061858
Gh(H)     -0.228404    -1.613551    -1.460921
Gh(H)      0.568802    -2.828920    -1.752202
Gh(O)      1.706919    -0.782022     2.837503
Gh(H)      2.308159    -0.635102     2.121010
Gh(H)      1.957319    -0.183287     3.612115
Gh(O)     -2.623918     1.199652    -1.550824
Gh(H)     -2.518364     2.157209    -1.867397
Gh(H)     -1.847456     0.943078    -1.098054
Gh(O)      1.334315     2.964091    -0.575831
Gh(H)      1.001079     2.053987    -0.510309
Gh(H)      0.576362     3.472885    -0.217357

units ang
no_reorient
no_com
symmetry c1
}

set {
basis        aug-cc-pVTZ
scf_type     df
}

energy("mp2")
--------------------------------------------------------------------------

    Molecular point group: c1

    Geometry (in Angstrom), charge = -1, multiplicity = 1:

       Center              X                  Y                   Z               Mass
    ------------   -----------------  -----------------  -----------------  -----------------
         CL           0.000000000000     0.000000000000     0.000000000000    34.968852682000
      Gh(O)           3.283874000000     0.023914000000     0.066002000000    15.994914619570
      Gh(H)           2.312251000000    -0.077803000000    -0.109892000000     1.007825032230
      Gh(H)           3.539398000000     0.361898000000    -0.833054000000     1.007825032230
      Gh(O)          -0.063433000000     0.767355000000    -3.215659000000    15.994914619570
      Gh(H)           0.774290000000     0.372773000000    -3.374160000000     1.007825032230
      Gh(H)          -0.183096000000     0.530838000000    -2.284812000000     1.007825032230
      Gh(O)          -0.156099000000    -2.335974000000    -2.061858000000    15.994914619570
      Gh(H)          -0.228404000000    -1.613551000000    -1.460921000000     1.007825032230
      Gh(H)           0.568802000000    -2.828920000000    -1.752202000000     1.007825032230
      Gh(O)           1.706919000000    -0.782022000000     2.837503000000    15.994914619570
      Gh(H)           2.308159000000    -0.635102000000     2.121010000000     1.007825032230
      Gh(H)           1.957319000000    -0.183287000000     3.612115000000     1.007825032230
      Gh(O)          -2.623918000000     1.199652000000    -1.550824000000    15.994914619570
      Gh(H)          -2.518364000000     2.157209000000    -1.867397000000     1.007825032230
      Gh(H)          -1.847456000000     0.943078000000    -1.098054000000     1.007825032230
      Gh(O)           1.334315000000     2.964091000000    -0.575831000000    15.994914619570
      Gh(H)           1.001079000000     2.053987000000    -0.510309000000     1.007825032230
      Gh(H)           0.576362000000     3.472885000000    -0.217357000000     1.007825032230

  Charge       = -1
  Multiplicity = 1
  Basis Set: AUG-CC-PVTZ
    Blend: AUG-CC-PVTZ
  Basis Set: (AUG-CC-PVTZ AUX)
    Blend: AUG-CC-PVTZ-JKFIT

    Orbital Energies [Eh]
    ---------------------

    Doubly Occupied:

       1A   -104.507443     2A    -10.230110     3A     -7.696183
       4A     -7.696169     5A     -7.696154     6A     -0.733465
       7A     -0.150309     8A     -0.150304     9A     -0.150303

  @DF-RHF Final Energy:  -459.57359007812266

   => Energetics <=

    Nuclear Repulsion Energy =              0.0000000000000000
    One-Electron Energy =                -641.1263150067751440
    Two-Electron Energy =                 181.5527249286524807
    Total Energy =                       -459.5735900781226633
 Dipole X            :          0.0001779            0.0000000            0.0001779
 Dipole Y            :          0.0000296            0.0000000            0.0000296
 Dipole Z            :         -0.0003281            0.0000000           -0.0003281
 Magnitude           :                                                    0.0003744
  Basis Set: (AUG-CC-PVTZ AUX)
    Blend: AUG-CC-PVTZ-RI
	 Reference Energy          =    -459.5735900781226633 [Eh]
	 Singles Energy            =      -0.0000000000000000 [Eh]
	 Same-Spin Energy          =      -0.0637152934401228 [Eh]
	 Opposite-Spin Energy      =      -0.1845270279323286 [Eh]
	 Correlation Energy        =      -0.2482423213724514 [Eh]
	 Total Energy              =    -459.8218323994951220 [Eh]

	 ================> DF-SCS-MP2 Energies <==================
	-----------------------------------------------------------
	 SCS Same-Spin Scale       =       0.3333333333333333 [-]
	 SCS Opposite-Spin Scale   =       1.2000000000000000 [-]
	 SCS Same-Spin Energy      =      -0.0212384311467076 [Eh]
	 SCS Opposite-Spin Energy  =      -0.2214324335187943 [Eh]
	 SCS Correlation Energy    =      -0.2426708646655019 [Eh]
	 SCS Total Energy          =    -459.8162609427881762 [Eh]
	-----------------------------------------------------------

*** Psi4 exiting successfully. Buy a developer a beer!
