                               Psi4 1.8.2 release

  ==> Input File <==

--------------------------------------------------------------------------
MEMORY 60 GB

molecule dimer {
-1 1
Cl         0.000000     0.000000     0.000000
O         -0.769529    -2.966252     1.114406
H         -0.491011    -2.049040     1.060829
H         -0.099668    -3.431801     1.746687
O         -2.572451     0.785674     2.137195
H         -2.971007    -0.007188     2.353863
H         -1.967522     0.455536     1.391827
O          0.248544     0.677850     3.199615
H          0.085963     0.586761     2.244952
H          0.904498     1.336920     3.314940
O          1.375017     2.839319     0.546590
H          0.925526     1.985155     0.440289
H          1.962844     2.854615    -0.199516
O          2.555530    -2.187632     0.855224
H          2.277326    -2.669991     1.647633
H          1.863637    -1.523641     0.765483

units ang
no_reorient
no_com
symmetry c1
}

set {
basis        aug-cc-pVTZ
scf_type     df
}

energy("mp2")
--------------------------------------------------------------------------

    Molecular point group: c1

    Geometry (in Angstrom), charge = -1, multiplicity = 1:

       Center              X                  Y                   Z               Mass
    ------------   -----------------  -----------------  -----------------  -----------------
         CL           0.000000000000     0.000000000000     0.000000000000    34.968852682000
         O           -0.769529000000    -2.966252000000     1.114406000000    15.994914619570
         H           -0.491011000000    -2.049040000000     1.060829000000     1.007825032230
         H           -0.099668000000    -3.431801000000     1.746687000000     1.007825032230
         O           -2.572451000000     0.785674000000     2.137195000000    15.994914619570
         H           -2.971007000000    -0.007188000000     2.353863000000     1.007825032230
         H           -1.967522000000     0.455536000000     1.391827000000     1.007825032230
         O            0.248544000000     0.677850000000     3.199615000000    15.994914619570
         H            0.085963000000     0.586761000000     2.244952000000     1.007825032230
         H            0.904498000000     1.336920000000     3.314940000000     1.007825032230
         O            1.375017000000     2.839319000000     0.546590000000    15.994914619570
         H            0.925526000000     1.985155000000     0.440289000000     1.007825032230
         H            1.962844000000     2.854615000000    -0.199516000000     1.007825032230
         O            2.555530000000    -2.187632000000     0.855224000000    15.994914619570
         H            2.277326000000    -2.669991000000     1.647633000000     1.007825032230
         H            1.863637000000    -1.523641000000     0.765483000000     1.007825032230

  Charge       = -1
  Multiplicity = 1
  Basis Set: AUG-CC-PVTZ
    Blend: AUG-CC-PVTZ
  Basis Set: (AUG-CC-PVTZ AUX)
    Blend: AUG-CC-PVTZ-JKFIT

    Orbital Energies [Eh]
    ---------------------

    Doubly Occupied:

       1A   -104.597811     2A    -20.435628     3A    -20.435468
       4A    -20.417885     5A    -20.415039     6A    -20.404625
       7A    -10.322942     8A     -7.789033     9A     -7.789009
      10A     -7.788978    11A     -1.218930    12A     -1.207279
      13A     -1.206278    14A     -1.199529    15A     -1.196006
      16A     -0.841833    17A     -0.578372    18A     -0.573624
      19A     -0.568576    20A     -0.564966    21A     -0.551604
      22A     -0.462573    23A     -0.447910    24A     -0.445883
      25A     -0.439607    26A     -0.427346    27A     -0.381645
      28A     -0.369961    29A     -0.367261    30A     -0.365067
      31A     -0.346551    32A     -0.253672    33A     -0.252038
      34A     -0.250734

  @DF-RHF Final Energy:  -839.92091250279350

   => Energetics <=

    Nuclear Repulsion Energy =            310.4562612404452011
    One-Electron Energy =               -1790.9270176282889224
    Two-Electron Energy =                 640.5498438850502225
    Total Energy =                       -839.9209125027934988
 Dipole X            :        -16.9814816           17.3618096            0.3803280
 Dipole Y            :         17.0909714          -17.5196547           -0.4286833
 Dipole Z            :       -148.0908852          146.6261688           -1.4647165
 Magnitude           :                                                    1.5728360
  Basis Set: (AUG-CC-PVTZ AUX)
    Blend: AUG-CC-PVTZ-RI
	 Reference Energy          =    -839.9209125027934988 [Eh]
	 Singles Energy            =      -0.0000000000000000 [Eh]
	 Same-Spin Energy          =      -0.4172768395788306 [Eh]
	 Opposite-Spin Energy      =      -1.2748586215035216 [Eh]
	 Correlation Energy        =      -1.6921354610823522 [Eh]
	 Total Energy              =    -841.6130479638758288 [Eh]

	 ================> DF-SCS-MP2 Energies <==================
	-----------------------------------------------------------
	 SCS Same-Spin Scale       =       0.3333333333333333 [-]
	 SCS Opposite-Spin Scale   =       1.2000000000000000 [-]
	 SCS Same-Spin Energy      =      -0.1390922798596102 [Eh]
	 SCS Opposite-Spin Energy  =      -1.5298303458042259 [Eh]
	 SCS Correlation Energy    =      -1.6689226256638361 [Eh]
	 SCS Total Energy          =    -841.5898351284573664 [Eh]
	-----------------------------------------------------------

*** Psi4 exiting successfully. Buy a developer a beer!
