                               Psi4 1.8.2 release

  ==> Input File <==

--------------------------------------------------------------------------
MEMORY 60 GB

molecule dimer {
-1 1
Cl         0.000000     0.000000     0.000000
O          1.774032    -1.212909    -2.452343
H          1.305888    -0.738993    -1.732187
H          2.508319    -1.629930    -2.012047
O          2.186775     2.588737     0.277671
H          1.476037     1.911683     0.339217
H          3.009960     2.191670    -0.033394
O         -1.686863     2.434953     1.365585
H         -1.173488     2.559282     2.184309
H         -1.383221     1.585374     0.970444
O         -1.491886    -1.582103    -2.320471
H         -1.016194    -0.998340    -1.638782
H         -2.114507    -0.952675    -2.708062
O         -0.791886     2.266519    -2.120884
H         -1.711508     2.191897    -2.087996
H         -0.411803     1.608549    -1.538367

units ang
no_reorient
no_com
symmetry c1
}

set {
basis        aug-cc-pVTZ
scf_type     df
}

energy("mp2")
--------------------------------------------------------------------------

    Molecular point group: c1

    Geometry (in Angstrom), charge = -1, multiplicity = 1:

       Center              X                  Y                   Z               Mass
    ------------   -----------------  -----------------  -----------------  -----------------
         CL           0.000000000000     0.000000000000     0.000000000000    34.968852682000
         O            1.774032000000    -1.212909000000    -2.452343000000    15.994914619570
         H            1.305888000000    -0.738993000000    -1.732187000000     1.007825032230
         H            2.508319000000    -1.629930000000    -2.012047000000     1.007825032230
         O            2.186775000000     2.588737000000     0.277671000000    15.994914619570
         H            1.476037000000     1.911683000000     0.339217000000     1.007825032230
         H            3.009960000000     2.191670000000    -0.033394000000     1.007825032230
         O           -1.686863000000     2.434953000000     1.365585000000    15.994914619570
         H           -1.173488000000     2.559282000000     2.184309000000     1.007825032230
         H           -1.383221000000     1.585374000000     0.970444000000     1.007825032230
         O           -1.491886000000    -1.582103000000    -2.320471000000    15.994914619570
         H           -1.016194000000    -0.998340000000    -1.638782000000     1.007825032230
         H           -2.114507000000    -0.952675000000    -2.708062000000     1.007825032230
         O           -0.791886000000     2.266519000000    -2.120884000000    15.994914619570
         H           -1.711508000000     2.191897000000    -2.087996000000     1.007825032230
         H           -0.411803000000     1.608549000000    -1.538367000000     1.007825032230

  Charge       = -1
  Multiplicity = 1
  Basis Set: AUG-CC-PVTZ
    Blend: AUG-CC-PVTZ
  Basis Set: (AUG-CC-PVTZ AUX)
    Blend: AUG-CC-PVTZ-JKFIT

    Orbital Energies [Eh]
    ---------------------

    Doubly Occupied:

       1A   -104.606666     2A    -20.424490     3A    -20.423212
       4A    -20.415809     5A    -20.410501     6A    -20.404551
       7A    -10.332360     8A     -7.798452     9A     -7.798403
      10A     -7.798378    11A     -1.206310    12A     -1.200590
      13A     -1.200028    14A     -1.197756    15A     -1.181243
      16A     -0.854536    17A     -0.583879    18A     -0.579586
      19A     -0.569071    20A     -0.564072    21A     -0.537704
      22A     -0.440544    23A     -0.436910    24A     -0.435336
      25A     -0.433385    26A     -0.427693    27A     -0.368081
      28A     -0.366527    29A     -0.361938    30A     -0.355587
      31A     -0.348109    32A     -0.263694    33A     -0.261383
      34A     -0.260758

  @DF-RHF Final Energy:  -839.92716781796491

   => Energetics <=

    Nuclear Repulsion Energy =            311.4105776891148025
    One-Electron Energy =               -1792.9803981794270840
    Two-Electron Energy =                 641.6426526723474808
    Total Energy =                       -839.9271678179649143
 Dipole X            :         -0.3908527            0.7764110            0.3855583
 Dipole Y            :        -83.8081362           82.5623102           -1.2458260
 Dipole Z            :         96.9929165          -94.9783928            2.0145236
 Magnitude           :                                                    2.3998006
  Basis Set: (AUG-CC-PVTZ AUX)
    Blend: AUG-CC-PVTZ-RI
	 Reference Energy          =    -839.9271678179649143 [Eh]
	 Singles Energy            =      -0.0000000000000000 [Eh]
	 Same-Spin Energy          =      -0.4180582294862140 [Eh]
	 Opposite-Spin Energy      =      -1.2756261635419874 [Eh]
	 Correlation Energy        =      -1.6936843930282013 [Eh]
	 Total Energy              =    -841.6208522109931209 [Eh]

	 ================> DF-SCS-MP2 Energies <==================
	-----------------------------------------------------------
	 SCS Same-Spin Scale       =       0.3333333333333333 [-]
	 SCS Opposite-Spin Scale   =       1.2000000000000000 [-]
	 SCS Same-Spin Energy      =      -0.1393527431620713 [Eh]
	 SCS Opposite-Spin Energy  =      -1.5307513962503849 [Eh]
	 SCS Correlation Energy    =      -1.6701041394124563 [Eh]
	 SCS Total Energy          =    -841.5972719573774157 [Eh]
	-----------------------------------------------------------

*** Psi4 exiting successfully. Buy a developer a beer!
