                               Psi4 1.8.2 release

  ==> Input File <==

--------------------------------------------------------------------------
MEMORY 60 GB

molecule dimer {
0 1
Gh(Cl)     0.000000     0.000000     0.000000
Gh(O)      2.392892    -2.249336     0.528916
Gh(H)      1.674089    -1.706624     0.209313
Gh(H)      2.557296    -2.872549    -0.137894
Gh(O)      0.444889    -1.472921    -3.121234
Gh(H)     -0.461387    -1.401078    -3.412750
Gh(H)      0.507135    -1.039894    -2.245373
Gh(O)     -3.046056    -0.925525     0.944484
Gh(H)     -2.313189    -0.468576     0.501708
Gh(H)     -3.729574    -0.239388     1.075466
O          3.113696     1.295050    -0.353510
H          2.241301     1.067437     0.024019
H          3.028581     1.517922    -1.237394
Gh(O)     -0.067022     3.095066     0.593650
Gh(H)      0.114241     3.470367    -0.335940
Gh(H)     -0.162182     2.157073     0.397022
Gh(O)      0.244648     0.314880     3.296093
Gh(H)      0.874277     1.006974     3.592872
Gh(H)      0.245306     0.331853     2.336846

units ang
no_reorient
no_com
symmetry c1
}

set {
basis        aug-cc-pVTZ
scf_type     df
}

energy("mp2")
--------------------------------------------------------------------------

    Molecular point group: c1

    Geometry (in Angstrom), charge = 0, multiplicity = 1:

       Center              X                  Y                   Z               Mass
    ------------   -----------------  -----------------  -----------------  -----------------
      Gh(CL)          0.000000000000     0.000000000000     0.000000000000    34.968852682000
      Gh(O)           2.392892000000    -2.249336000000     0.528916000000    15.994914619570
      Gh(H)           1.674089000000    -1.706624000000     0.209313000000     1.007825032230
      Gh(H)           2.557296000000    -2.872549000000    -0.137894000000     1.007825032230
      Gh(O)           0.444889000000    -1.472921000000    -3.121234000000    15.994914619570
      Gh(H)          -0.461387000000    -1.401078000000    -3.412750000000     1.007825032230
      Gh(H)           0.507135000000    -1.039894000000    -2.245373000000     1.007825032230
      Gh(O)          -3.046056000000    -0.925525000000     0.944484000000    15.994914619570
      Gh(H)          -2.313189000000    -0.468576000000     0.501708000000     1.007825032230
      Gh(H)          -3.729574000000    -0.239388000000     1.075466000000     1.007825032230
         O            3.113696000000     1.295050000000    -0.353510000000    15.994914619570
         H            2.241301000000     1.067437000000     0.024019000000     1.007825032230
         H            3.028581000000     1.517922000000    -1.237394000000     1.007825032230
      Gh(O)          -0.067022000000     3.095066000000     0.593650000000    15.994914619570
      Gh(H)           0.114241000000     3.470367000000    -0.335940000000     1.007825032230
      Gh(H)          -0.162182000000     2.157073000000     0.397022000000     1.007825032230
      Gh(O)           0.244648000000     0.314880000000     3.296093000000    15.994914619570
      Gh(H)           0.874277000000     1.006974000000     3.592872000000     1.007825032230
      Gh(H)           0.245306000000     0.331853000000     2.336846000000     1.007825032230

  Charge       = 0
  Multiplicity = 1
  Basis Set: AUG-CC-PVTZ
    Blend: AUG-CC-PVTZ
  Basis Set: (AUG-CC-PVTZ AUX)
    Blend: AUG-CC-PVTZ-JKFIT

    Orbital Energies [Eh]
    ---------------------

    Doubly Occupied:

       1A    -20.562389     2A     -1.355999     3A     -0.734952
       4A     -0.575423     5A     -0.509629

  @DF-RHF Final Energy:   -76.05868426587807

   => Energetics <=

    Nuclear Repulsion Energy =              9.2957638783246939
    One-Electron Energy =                -123.2321083885581032
    Two-Electron Energy =                  37.8776602443553401
    Total Energy =                        -76.0586842658780711
 Dipole X            :        -57.6798897           57.0308951           -0.6489946
 Dipole Y            :        -24.4644294           24.4639390           -0.0004904
 Dipole Z            :          7.2848157           -7.6372431           -0.3524274
 Magnitude           :                                                    0.7385115
  Basis Set: (AUG-CC-PVTZ AUX)
    Blend: AUG-CC-PVTZ-RI
	 Reference Energy          =     -76.0586842658780711 [Eh]
	 Singles Energy            =      -0.0000000000000000 [Eh]
	 Same-Spin Energy          =      -0.0681286213733118 [Eh]
	 Opposite-Spin Energy      =      -0.2150758958124798 [Eh]
	 Correlation Energy        =      -0.2832045171857916 [Eh]
	 Total Energy              =     -76.3418887830638653 [Eh]

	 ================> DF-SCS-MP2 Energies <==================
	-----------------------------------------------------------
	 SCS Same-Spin Scale       =       0.3333333333333333 [-]
	 SCS Opposite-Spin Scale   =       1.2000000000000000 [-]
	 SCS Same-Spin Energy      =      -0.0227095404577706 [Eh]
	 SCS Opposite-Spin Energy  =      -0.2580910749749757 [Eh]
	 SCS Correlation Energy    =      -0.2808006154327464 [Eh]
	 SCS Total Energy          =     -76.3394848813108240 [Eh]
	-----------------------------------------------------------

*** Psi4 exiting successfully. Buy a developer a beer!
