                               Psi4 1.9 release

  ==> Input File <==

--------------------------------------------------------------------------
MEMORY 60 GB

molecule dimer {
-1 1
Cl     0.000000     0.000000     0.000000
--
0 1
O      0.312084    -2.150104    -2.377592
H     -0.296467    -2.021026    -3.090852
H     -0.022577    -1.598504    -1.659883
O      1.889572     0.729427    -2.641984
H      2.634422     0.109919    -2.606851
H      1.389837     0.523187    -1.827466
O     -2.762003     1.925216     0.336061
H     -2.814583     2.737091    -0.091539
H     -1.965756     1.584775    -0.015239
O      0.811586     2.751185     1.027694
H      1.119303     3.426267     0.397995
H      0.691782     1.988673     0.474040
O      2.965938    -0.228637     0.943152
H      2.234889     0.224653     0.518219
H      2.499928    -0.824590     1.525148

units ang
no_reorient
no_com
symmetry c1
}

set {
basis        aug-cc-pVTZ
scf_type     df
}

energy("mp2", bsse_type="cp")
--------------------------------------------------------------------------

                               Psi4 1.9 release
    Molecular point group: c1
  Charge       = 0
  Multiplicity = 1
  Basis Set: AUG-CC-PVTZ
    Blend: AUG-CC-PVTZ
  Basis Set: (AUG-CC-PVTZ AUX)
    Blend: AUG-CC-PVTZ-JKFIT
  @DF-RHF Final Energy:  -380.28939696971719
    Total Energy =                       -380.2893969697171883
 Dipole X            :        -59.5157957           58.9749395           -0.5408562
 Dipole Y            :        -57.2964764           57.3855797            0.0891033
 Dipole Z            :         52.4191674          -53.0593144           -0.6401470
 Magnitude           :                                                    0.8427651
  Basis Set: (AUG-CC-PVTZ AUX)
    Blend: AUG-CC-PVTZ-RI
	 Reference Energy          =    -380.2893969697171883 [Eh]
	 Singles Energy            =      -0.0000000000000000 [Eh]
	 Same-Spin Energy          =      -0.3434981411061928 [Eh]
	 Opposite-Spin Energy      =      -1.0810617035142920 [Eh]
	 Correlation Energy        =      -1.4245598446204848 [Eh]
	 Total Energy              =    -381.7139568143376778 [Eh]
	 SCS Total Energy          =    -381.7011703943030625 [Eh]
                               Psi4 1.9 release
    Molecular point group: c1
  Multiplicity = 1
  Basis Set: AUG-CC-PVTZ
    Blend: AUG-CC-PVTZ
  Basis Set: (AUG-CC-PVTZ AUX)
    Blend: AUG-CC-PVTZ-JKFIT
  @DF-RHF Final Energy:  -459.57358140697147
    Total Energy =                       -459.5735814069714138
  Basis Set: (AUG-CC-PVTZ AUX)
	 Singles Energy            =      -0.0000000000000000 [Eh]
	 Same-Spin Energy          =      -0.0635987337896339 [Eh]
	 Opposite-Spin Energy      =      -0.1841231324837364 [Eh]
	 Correlation Energy        =      -0.2477218662733703 [Eh]
	 Total Energy              =    -459.8213032732448369 [Eh]
	 SCS Total Energy          =    -459.8157287438818344 [Eh]
                               Psi4 1.9 release
    Molecular point group: c1

    Geometry (in Bohr), charge = -1, multiplicity = 1:

       Center              X                  Y                   Z               Mass
    ------------   -----------------  -----------------  -----------------  -----------------
         CL           0.000000000000     0.000000000000     0.000000000000    34.968852682000
         O            0.589753288137    -4.063107701251    -4.492997718080    15.994914619570
         H           -0.560241435236    -3.819185632430    -5.840863774324     1.007825032230
         H           -0.042664346734    -3.020734770449    -3.136724270303     1.007825032230
         O            3.570773574334     1.378417258514    -4.992626187842    15.994914619570
         H            4.978336078881     0.207716805984    -4.926234439876     1.007825032230
         H            2.626411289028     0.988680142400    -3.453410243586     1.007825032230
         O           -5.219429227693     3.638130972349     0.635063251447    15.994914619570
         H           -5.318791027369     5.172352370455    -0.172983639798     1.007825032230
         H           -3.714740469475     2.994790720472    -0.028797536426     1.007825032230
         O            1.533675267256     5.198986170468     1.942060200776    15.994914619570
         H            2.115176121403     6.474706262694     0.752101549302     1.007825032230
         H            1.307278518521     3.758047323093     0.895805772512     1.007825032230
         O            5.604810525088    -0.432061312146     1.782298974678    15.994914619570
         H            4.223328130798     0.424532643262     0.979291983009     1.007825032230
         H            4.724179253364    -1.558249265791     2.882112020790     1.007825032230

  Charge       = -1
  Multiplicity = 1
  Basis Set: AUG-CC-PVTZ
    Blend: AUG-CC-PVTZ
  Basis Set: (AUG-CC-PVTZ AUX)
    Blend: AUG-CC-PVTZ-JKFIT

    Orbital Energies [Eh]
    ---------------------

    Doubly Occupied:

       1A   -104.592954     2A    -20.421503     3A    -20.417034
       4A    -20.416167     5A    -20.414486     6A    -20.408419
       7A    -10.318754     8A     -7.784870     9A     -7.784781
      10A     -7.784770    11A     -1.232624    12A     -1.207476
      13A     -1.203266    14A     -1.199920    15A     -1.196193
      16A     -0.841151    17A     -0.588419    18A     -0.574967
      19A     -0.565169    20A     -0.558917    21A     -0.555725
      22A     -0.460213    23A     -0.444103    24A     -0.441243
      25A     -0.440367    26A     -0.439663    27A     -0.375693
      28A     -0.372113    29A     -0.361826    30A     -0.355298
      31A     -0.352660    32A     -0.252052    33A     -0.248872
      34A     -0.247779

  @DF-RHF Final Energy:  -839.93066698949167

   => Energetics <=

    Nuclear Repulsion Energy =            310.3515781978657060
    One-Electron Energy =               -1790.8455894391900074
    Two-Electron Energy =                 640.5633442518325182
    Total Energy =                       -839.9306669894916695
 Dipole X            :        -60.0154648           58.9749395           -1.0405253
 Dipole Y            :        -57.6751354           57.3855797           -0.2895557
 Dipole Z            :         52.8315794          -53.0593144           -0.2277350
 Magnitude           :                                                    1.1038109
  Basis Set: (AUG-CC-PVTZ AUX)
    Blend: AUG-CC-PVTZ-RI
	 Reference Energy          =    -839.9306669894916695 [Eh]
	 Singles Energy            =      -0.0000000000000000 [Eh]
	 Same-Spin Energy          =      -0.4166263289639768 [Eh]
	 Opposite-Spin Energy      =      -1.2719163436843999 [Eh]
	 Correlation Energy        =      -1.6885426726483765 [Eh]
	 Total Energy              =    -841.6192096621400651 [Eh]

	 ================> DF-SCS-MP2 Energies <==================
	-----------------------------------------------------------
	 SCS Same-Spin Scale       =       0.3333333333333333 [-]
	 SCS Opposite-Spin Scale   =       1.2000000000000000 [-]
	 SCS Same-Spin Energy      =      -0.1388754429879923 [Eh]
	 SCS Opposite-Spin Energy  =      -1.5262996124212798 [Eh]
	 SCS Correlation Energy    =      -1.6651750554092719 [Eh]
	 SCS Total Energy          =    -841.5958420449009054 [Eh]
	-----------------------------------------------------------

*** Psi4 exiting successfully. Buy a developer a beer!
