                               Psi4 1.8.2 release

  ==> Input File <==

--------------------------------------------------------------------------
MEMORY 60 GB

molecule dimer {
-1 1
Cl         0.000000     0.000000     0.000000
O          1.401814     3.004279    -0.293739
H          1.286935     2.071480    -0.547510
H          0.587179     3.446356    -0.499197
O          2.350678    -2.241718     0.338880
H          1.723621    -1.571284     0.204117
H          2.824680    -2.355887    -0.493503
O          1.245199    -0.336761     2.824372
H          0.470260     0.235926     2.905006
H          1.361956    -0.347042     1.858412
O         -1.541109    -2.418693     1.370070
H         -0.925165    -1.895960     0.786732
H         -2.220385    -1.862267     1.722704

units ang
no_reorient
no_com
symmetry c1
}

set {
basis        aug-cc-pVTZ
scf_type     df
}

energy("mp2")
--------------------------------------------------------------------------

    Molecular point group: c1

    Geometry (in Angstrom), charge = -1, multiplicity = 1:

       Center              X                  Y                   Z               Mass
    ------------   -----------------  -----------------  -----------------  -----------------
         CL           0.000000000000     0.000000000000     0.000000000000    34.968852682000
         O            1.401814000000     3.004279000000    -0.293739000000    15.994914619570
         H            1.286935000000     2.071480000000    -0.547510000000     1.007825032230
         H            0.587179000000     3.446356000000    -0.499197000000     1.007825032230
         O            2.350678000000    -2.241718000000     0.338880000000    15.994914619570
         H            1.723621000000    -1.571284000000     0.204117000000     1.007825032230
         H            2.824680000000    -2.355887000000    -0.493503000000     1.007825032230
         O            1.245199000000    -0.336761000000     2.824372000000    15.994914619570
         H            0.470260000000     0.235926000000     2.905006000000     1.007825032230
         H            1.361956000000    -0.347042000000     1.858412000000     1.007825032230
         O           -1.541109000000    -2.418693000000     1.370070000000    15.994914619570
         H           -0.925165000000    -1.895960000000     0.786732000000     1.007825032230
         H           -2.220385000000    -1.862267000000     1.722704000000     1.007825032230

  Charge       = -1
  Multiplicity = 1
  Basis Set: AUG-CC-PVTZ
    Blend: AUG-CC-PVTZ
  Basis Set: (AUG-CC-PVTZ AUX)
    Blend: AUG-CC-PVTZ-JKFIT

    Orbital Energies [Eh]
    ---------------------

    Doubly Occupied:

       1A   -104.580763     2A    -20.422923     3A    -20.412723
       4A    -20.397600     5A    -20.394260     6A    -10.306156
       7A     -7.772253     8A     -7.772225     9A     -7.772168
      10A     -1.209342    11A     -1.208392    12A     -1.178506
      13A     -1.176939    14A     -0.824581    15A     -0.583619
      16A     -0.579033    17A     -0.558399    18A     -0.531513
      19A     -0.442396    20A     -0.436254    21A     -0.424755
      22A     -0.412081    23A     -0.369195    24A     -0.362550
      25A     -0.346056    26A     -0.336187    27A     -0.237275
      28A     -0.235592    29A     -0.231253

  @DF-RHF Final Energy:  -763.85845167834668

   => Energetics <=

    Nuclear Repulsion Energy =            225.8834839360181377
    One-Electron Energy =               -1516.4538905557251383
    Two-Electron Energy =                 526.7119549413603181
    Total Energy =                       -763.8584516783466825
 Dipole X            :        -63.3813448           61.9107103           -1.4706345
 Dipole Y            :         35.7775158          -34.4342531            1.3432627
 Dipole Z            :        -77.3367444           75.3120584           -2.0246860
 Magnitude           :                                                    2.8401539
  Basis Set: (AUG-CC-PVTZ AUX)
    Blend: AUG-CC-PVTZ-RI
	 Reference Energy          =    -763.8584516783466825 [Eh]
	 Singles Energy            =      -0.0000000000000000 [Eh]
	 Same-Spin Energy          =      -0.3456035492254170 [Eh]
	 Opposite-Spin Energy      =      -1.0531102331659841 [Eh]
	 Correlation Energy        =      -1.3987137823914011 [Eh]
	 Total Energy              =    -765.2571654607380651 [Eh]

	 ================> DF-SCS-MP2 Energies <==================
	-----------------------------------------------------------
	 SCS Same-Spin Scale       =       0.3333333333333333 [-]
	 SCS Opposite-Spin Scale   =       1.2000000000000000 [-]
	 SCS Same-Spin Energy      =      -0.1152011830751390 [Eh]
	 SCS Opposite-Spin Energy  =      -1.2637322797991808 [Eh]
	 SCS Correlation Energy    =      -1.3789334628743197 [Eh]
	 SCS Total Energy          =    -765.2373851412210115 [Eh]
	-----------------------------------------------------------

*** Psi4 exiting successfully. Buy a developer a beer!
