                               Psi4 1.8.2 release

  ==> Input File <==

--------------------------------------------------------------------------
MEMORY 60 GB

molecule dimer {
-1 1
Cl         0.000000     0.000000     0.000000
Gh(O)      1.771129     2.489187     0.169336
Gh(H)      1.379107     1.608893     0.191284
Gh(H)      1.074826     3.009005    -0.305359
Gh(O)     -0.595761    -2.485321     1.681379
Gh(H)     -0.839779    -2.280443     2.596276
Gh(H)     -0.383113    -1.560361     1.328127
Gh(O)     -3.305344     0.023545    -0.246950
Gh(H)     -3.552244    -0.023220    -1.134455
Gh(H)     -2.322919     0.116370    -0.213788

units ang
no_reorient
no_com
symmetry c1
}

set {
basis        aug-cc-pVTZ
scf_type     df
}

energy("mp2")
--------------------------------------------------------------------------

    Molecular point group: c1

    Geometry (in Angstrom), charge = -1, multiplicity = 1:

       Center              X                  Y                   Z               Mass
    ------------   -----------------  -----------------  -----------------  -----------------
         CL           0.000000000000     0.000000000000     0.000000000000    34.968852682000
      Gh(O)           1.771129000000     2.489187000000     0.169336000000    15.994914619570
      Gh(H)           1.379107000000     1.608893000000     0.191284000000     1.007825032230
      Gh(H)           1.074826000000     3.009005000000    -0.305359000000     1.007825032230
      Gh(O)          -0.595761000000    -2.485321000000     1.681379000000    15.994914619570
      Gh(H)          -0.839779000000    -2.280443000000     2.596276000000     1.007825032230
      Gh(H)          -0.383113000000    -1.560361000000     1.328127000000     1.007825032230
      Gh(O)          -3.305344000000     0.023545000000    -0.246950000000    15.994914619570
      Gh(H)          -3.552244000000    -0.023220000000    -1.134455000000     1.007825032230
      Gh(H)          -2.322919000000     0.116370000000    -0.213788000000     1.007825032230

  Charge       = -1
  Multiplicity = 1
  Basis Set: AUG-CC-PVTZ
    Blend: AUG-CC-PVTZ
  Basis Set: (AUG-CC-PVTZ AUX)
    Blend: AUG-CC-PVTZ-JKFIT

    Orbital Energies [Eh]
    ---------------------

    Doubly Occupied:

       1A   -104.506978     2A    -10.229992     3A     -7.696081
       4A     -7.696042     5A     -7.696010     6A     -0.733482
       7A     -0.150321     8A     -0.150318     9A     -0.150311

  @DF-RHF Final Energy:  -459.57355262484901

   => Energetics <=

    Nuclear Repulsion Energy =              0.0000000000000000
    One-Electron Energy =                -641.1280485919080547
    Two-Electron Energy =                 181.5544959670590117
    Total Energy =                       -459.5735526248490714
 Dipole X            :         -0.0001243            0.0000000           -0.0001243
 Dipole Y            :          0.0000353            0.0000000            0.0000353
 Dipole Z            :          0.0005464            0.0000000            0.0005464
 Magnitude           :                                                    0.0005615
  Basis Set: (AUG-CC-PVTZ AUX)
    Blend: AUG-CC-PVTZ-RI
	 Reference Energy          =    -459.5735526248490146 [Eh]
	 Singles Energy            =      -0.0000000000000000 [Eh]
	 Same-Spin Energy          =      -0.0632890456846096 [Eh]
	 Opposite-Spin Energy      =      -0.1829283846074531 [Eh]
	 Correlation Energy        =      -0.2462174302920627 [Eh]
	 Total Energy              =    -459.8197700551410776 [Eh]

	 ================> DF-SCS-MP2 Energies <==================
	-----------------------------------------------------------
	 SCS Same-Spin Scale       =       0.3333333333333333 [-]
	 SCS Opposite-Spin Scale   =       1.2000000000000000 [-]
	 SCS Same-Spin Energy      =      -0.0210963485615365 [Eh]
	 SCS Opposite-Spin Energy  =      -0.2195140615289437 [Eh]
	 SCS Correlation Energy    =      -0.2406104100904802 [Eh]
	 SCS Total Energy          =    -459.8141630349394973 [Eh]
	-----------------------------------------------------------

*** Psi4 exiting successfully. Buy a developer a beer!
