                               Psi4 1.8.2 release

  ==> Input File <==

--------------------------------------------------------------------------
MEMORY 60 GB

molecule dimer {
0 1
Gh(Cl)     0.000000     0.000000     0.000000
Gh(O)      0.601726    -2.589847     1.985255
Gh(H)      0.625102    -1.734398     1.410853
Gh(H)      0.202443    -2.311978     2.805266
O          1.654373     2.108704     2.134861
H          1.639621     3.020507     1.745273
H          1.118820     1.502198     1.596433
Gh(O)     -1.660561     0.569143     2.400854
Gh(H)     -1.309075     0.235507     1.599810
Gh(H)     -1.163770     0.257029     3.177412
Gh(O)     -1.490632    -2.685195    -0.853034
Gh(H)     -1.987793    -3.157702    -0.165193
Gh(H)     -0.816107    -2.123214    -0.480627
Gh(O)      3.208264     0.379661    -0.437533
Gh(H)      3.780426     0.542681     0.324217
Gh(H)      2.259776     0.321939    -0.255342

units ang
no_reorient
no_com
symmetry c1
}

set {
basis        aug-cc-pVTZ
scf_type     df
}

energy("mp2")
--------------------------------------------------------------------------

    Molecular point group: c1

    Geometry (in Angstrom), charge = 0, multiplicity = 1:

       Center              X                  Y                   Z               Mass
    ------------   -----------------  -----------------  -----------------  -----------------
      Gh(CL)          0.000000000000     0.000000000000     0.000000000000    34.968852682000
      Gh(O)           0.601726000000    -2.589847000000     1.985255000000    15.994914619570
      Gh(H)           0.625102000000    -1.734398000000     1.410853000000     1.007825032230
      Gh(H)           0.202443000000    -2.311978000000     2.805266000000     1.007825032230
         O            1.654373000000     2.108704000000     2.134861000000    15.994914619570
         H            1.639621000000     3.020507000000     1.745273000000     1.007825032230
         H            1.118820000000     1.502198000000     1.596433000000     1.007825032230
      Gh(O)          -1.660561000000     0.569143000000     2.400854000000    15.994914619570
      Gh(H)          -1.309075000000     0.235507000000     1.599810000000     1.007825032230
      Gh(H)          -1.163770000000     0.257029000000     3.177412000000     1.007825032230
      Gh(O)          -1.490632000000    -2.685195000000    -0.853034000000    15.994914619570
      Gh(H)          -1.987793000000    -3.157702000000    -0.165193000000     1.007825032230
      Gh(H)          -0.816107000000    -2.123214000000    -0.480627000000     1.007825032230
      Gh(O)           3.208264000000     0.379661000000    -0.437533000000    15.994914619570
      Gh(H)           3.780426000000     0.542681000000     0.324217000000     1.007825032230
      Gh(H)           2.259776000000     0.321939000000    -0.255342000000     1.007825032230

  Charge       = 0
  Multiplicity = 1
  Basis Set: AUG-CC-PVTZ
    Blend: AUG-CC-PVTZ
  Basis Set: (AUG-CC-PVTZ AUX)
    Blend: AUG-CC-PVTZ-JKFIT

    Orbital Energies [Eh]
    ---------------------

    Doubly Occupied:

       1A    -20.568557     2A     -1.337389     3A     -0.714914
       4A     -0.568935     5A     -0.506521

  @DF-RHF Final Energy:   -76.05704082569075

   => Energetics <=

    Nuclear Repulsion Energy =              8.9531650809756460
    One-Electron Energy =                -122.6277751959835456
    Two-Electron Energy =                  37.6175692893171316
    Total Energy =                        -76.0570408256907626
 Dipole X            :        -30.5914563           30.2231931           -0.3682633
 Dipole Y            :        -40.2248025           40.4256581            0.2008556
 Dipole Z            :        -39.2085908           38.5893300           -0.6192608
 Magnitude           :                                                    0.7479604
  Basis Set: (AUG-CC-PVTZ AUX)
    Blend: AUG-CC-PVTZ-RI
	 Reference Energy          =     -76.0570408256907484 [Eh]
	 Singles Energy            =      -0.0000000000000000 [Eh]
	 Same-Spin Energy          =      -0.0687461907987351 [Eh]
	 Opposite-Spin Energy      =      -0.2169622058098813 [Eh]
	 Correlation Energy        =      -0.2857083966086164 [Eh]
	 Total Energy              =     -76.3427492222993607 [Eh]

	 ================> DF-SCS-MP2 Energies <==================
	-----------------------------------------------------------
	 SCS Same-Spin Scale       =       0.3333333333333333 [-]
	 SCS Opposite-Spin Scale   =       1.2000000000000000 [-]
	 SCS Same-Spin Energy      =      -0.0229153969329117 [Eh]
	 SCS Opposite-Spin Energy  =      -0.2603546469718575 [Eh]
	 SCS Correlation Energy    =      -0.2832700439047692 [Eh]
	 SCS Total Energy          =     -76.3403108695955126 [Eh]
	-----------------------------------------------------------

*** Psi4 exiting successfully. Buy a developer a beer!
