                               Psi4 1.8.2 release

  ==> Input File <==

--------------------------------------------------------------------------
MEMORY 60 GB

molecule dimer {
-1 1
Cl         0.000000     0.000000     0.000000
O          1.422099    -1.987304     2.148825
H          1.064340    -1.506450     1.399804
H          2.368545    -1.867599     2.083815
O         -2.865467    -0.850270     1.171661
H         -2.084324    -0.528310     0.724260
H         -3.378232    -0.065480     1.313502
O         -2.426888     2.264567     1.019413
H         -1.479134     2.101066     1.074612
H         -2.670735     1.963972     0.116288
O          0.376785     2.007354     2.598138
H          1.072877     2.112276     3.311169
H          0.426693     1.248381     2.049427

units ang
no_reorient
no_com
symmetry c1
}

set {
basis        aug-cc-pVTZ
scf_type     df
}

energy("mp2")
--------------------------------------------------------------------------

    Molecular point group: c1

    Geometry (in Angstrom), charge = -1, multiplicity = 1:

       Center              X                  Y                   Z               Mass
    ------------   -----------------  -----------------  -----------------  -----------------
         CL           0.000000000000     0.000000000000     0.000000000000    34.968852682000
         O            1.422099000000    -1.987304000000     2.148825000000    15.994914619570
         H            1.064340000000    -1.506450000000     1.399804000000     1.007825032230
         H            2.368545000000    -1.867599000000     2.083815000000     1.007825032230
         O           -2.865467000000    -0.850270000000     1.171661000000    15.994914619570
         H           -2.084324000000    -0.528310000000     0.724260000000     1.007825032230
         H           -3.378232000000    -0.065480000000     1.313502000000     1.007825032230
         O           -2.426888000000     2.264567000000     1.019413000000    15.994914619570
         H           -1.479134000000     2.101066000000     1.074612000000     1.007825032230
         H           -2.670735000000     1.963972000000     0.116288000000     1.007825032230
         O            0.376785000000     2.007354000000     2.598138000000    15.994914619570
         H            1.072877000000     2.112276000000     3.311169000000     1.007825032230
         H            0.426693000000     1.248381000000     2.049427000000     1.007825032230

  Charge       = -1
  Multiplicity = 1
  Basis Set: AUG-CC-PVTZ
    Blend: AUG-CC-PVTZ
  Basis Set: (AUG-CC-PVTZ AUX)
    Blend: AUG-CC-PVTZ-JKFIT

    Orbital Energies [Eh]
    ---------------------

    Doubly Occupied:

       1A   -104.572002     2A    -20.421705     3A    -20.420934
       4A    -20.411459     5A    -20.389484     6A    -10.296845
       7A     -7.762960     8A     -7.762927     9A     -7.762904
      10A     -1.202164    11A     -1.200474    12A     -1.198301
      13A     -1.183650    14A     -0.812730    15A     -0.595957
      16A     -0.565793    17A     -0.562818    18A     -0.546859
      19A     -0.441599    20A     -0.435630    21A     -0.424007
      22A     -0.420621    23A     -0.367148    24A     -0.361699
      25A     -0.358529    26A     -0.338923    27A     -0.226932
      28A     -0.225498    29A     -0.223666

  @DF-RHF Final Energy:  -763.85986411977547

   => Energetics <=

    Nuclear Repulsion Energy =            227.5824175784162264
    One-Electron Energy =               -1519.8961257542180192
    Two-Electron Energy =                 528.4538440560263552
    Total Energy =                       -763.8598641197754660
 Dipole X            :         63.4753306          -61.6574889            1.8178417
 Dipole Y            :        -27.8446748           28.2185848            0.3739101
 Dipole Z            :       -129.4471005          127.7023493           -1.7447512
 Magnitude           :                                                    2.5472561
  Basis Set: (AUG-CC-PVTZ AUX)
    Blend: AUG-CC-PVTZ-RI
	 Reference Energy          =    -763.8598641197754660 [Eh]
	 Singles Energy            =      -0.0000000000000000 [Eh]
	 Same-Spin Energy          =      -0.3454418547447121 [Eh]
	 Opposite-Spin Energy      =      -1.0531214630564683 [Eh]
	 Correlation Energy        =      -1.3985633178011803 [Eh]
	 Total Energy              =    -765.2584274375766427 [Eh]

	 ================> DF-SCS-MP2 Energies <==================
	-----------------------------------------------------------
	 SCS Same-Spin Scale       =       0.3333333333333333 [-]
	 SCS Opposite-Spin Scale   =       1.2000000000000000 [-]
	 SCS Same-Spin Energy      =      -0.1151472849149040 [Eh]
	 SCS Opposite-Spin Energy  =      -1.2637457556677618 [Eh]
	 SCS Correlation Energy    =      -1.3788930405826658 [Eh]
	 SCS Total Energy          =    -765.2387571603580909 [Eh]
	-----------------------------------------------------------

*** Psi4 exiting successfully. Buy a developer a beer!
