                               Psi4 1.8.2 release

  ==> Input File <==

--------------------------------------------------------------------------
MEMORY 60 GB

molecule dimer {
-1 1
Cl         0.000000     0.000000     0.000000
Gh(O)     -1.652811    -1.435957     2.395903
Gh(H)     -1.528767    -2.339541     2.643559
Gh(H)     -1.043488    -1.261638     1.661966
Gh(O)      2.190527    -2.113525     1.676719
Gh(H)      3.042459    -1.604979     1.864963
Gh(H)      2.252391    -2.309383     0.719254
Gh(O)     -1.852063     2.109778     1.864448
Gh(H)     -1.394061     2.041390     2.691589
Gh(H)     -1.471182     1.475343     1.236059
Gh(O)     -2.723100     0.051082    -1.912710
Gh(H)     -3.515131     0.614816    -1.963275
Gh(H)     -2.101677     0.471886    -1.368991
Gh(O)     -0.158646     3.092762    -0.275158
Gh(H)     -0.735780     3.182659    -1.002850
Gh(H)     -0.140681     2.112324    -0.117622

units ang
no_reorient
no_com
symmetry c1
}

set {
basis        aug-cc-pVTZ
scf_type     df
}

energy("mp2")
--------------------------------------------------------------------------

    Molecular point group: c1

    Geometry (in Angstrom), charge = -1, multiplicity = 1:

       Center              X                  Y                   Z               Mass
    ------------   -----------------  -----------------  -----------------  -----------------
         CL           0.000000000000     0.000000000000     0.000000000000    34.968852682000
      Gh(O)          -1.652811000000    -1.435957000000     2.395903000000    15.994914619570
      Gh(H)          -1.528767000000    -2.339541000000     2.643559000000     1.007825032230
      Gh(H)          -1.043488000000    -1.261638000000     1.661966000000     1.007825032230
      Gh(O)           2.190527000000    -2.113525000000     1.676719000000    15.994914619570
      Gh(H)           3.042459000000    -1.604979000000     1.864963000000     1.007825032230
      Gh(H)           2.252391000000    -2.309383000000     0.719254000000     1.007825032230
      Gh(O)          -1.852063000000     2.109778000000     1.864448000000    15.994914619570
      Gh(H)          -1.394061000000     2.041390000000     2.691589000000     1.007825032230
      Gh(H)          -1.471182000000     1.475343000000     1.236059000000     1.007825032230
      Gh(O)          -2.723100000000     0.051082000000    -1.912710000000    15.994914619570
      Gh(H)          -3.515131000000     0.614816000000    -1.963275000000     1.007825032230
      Gh(H)          -2.101677000000     0.471886000000    -1.368991000000     1.007825032230
      Gh(O)          -0.158646000000     3.092762000000    -0.275158000000    15.994914619570
      Gh(H)          -0.735780000000     3.182659000000    -1.002850000000     1.007825032230
      Gh(H)          -0.140681000000     2.112324000000    -0.117622000000     1.007825032230

  Charge       = -1
  Multiplicity = 1
  Basis Set: AUG-CC-PVTZ
    Blend: AUG-CC-PVTZ
  Basis Set: (AUG-CC-PVTZ AUX)
    Blend: AUG-CC-PVTZ-JKFIT

    Orbital Energies [Eh]
    ---------------------

    Doubly Occupied:

       1A   -104.507176     2A    -10.230038     3A     -7.696114
       4A     -7.696102     5A     -7.696073     6A     -0.733471
       7A     -0.150316     8A     -0.150309     9A     -0.150304

  @DF-RHF Final Energy:  -459.57356925617427

   => Energetics <=

    Nuclear Repulsion Energy =              0.0000000000000000
    One-Electron Energy =                -641.1273473155723650
    Two-Electron Energy =                 181.5537780593981267
    Total Energy =                       -459.5735692561742098
 Dipole X            :         -0.0002423            0.0000000           -0.0002423
 Dipole Y            :          0.0001861            0.0000000            0.0001861
 Dipole Z            :          0.0002288            0.0000000            0.0002288
 Magnitude           :                                                    0.0003817
  Basis Set: (AUG-CC-PVTZ AUX)
    Blend: AUG-CC-PVTZ-RI
	 Reference Energy          =    -459.5735692561742667 [Eh]
	 Singles Energy            =      -0.0000000000000000 [Eh]
	 Same-Spin Energy          =      -0.0634582096137907 [Eh]
	 Opposite-Spin Energy      =      -0.1834543711886674 [Eh]
	 Correlation Energy        =      -0.2469125808024581 [Eh]
	 Total Energy              =    -459.8204818369767395 [Eh]

	 ================> DF-SCS-MP2 Energies <==================
	-----------------------------------------------------------
	 SCS Same-Spin Scale       =       0.3333333333333333 [-]
	 SCS Opposite-Spin Scale   =       1.2000000000000000 [-]
	 SCS Same-Spin Energy      =      -0.0211527365379302 [Eh]
	 SCS Opposite-Spin Energy  =      -0.2201452454264009 [Eh]
	 SCS Correlation Energy    =      -0.2412979819643312 [Eh]
	 SCS Total Energy          =    -459.8148672381386177 [Eh]
	-----------------------------------------------------------

*** Psi4 exiting successfully. Buy a developer a beer!
