                               Psi4 1.9 release

  ==> Input File <==

--------------------------------------------------------------------------
MEMORY 60 GB

molecule dimer {
-1 1
Cl     0.000000     0.000000     0.000000
--
0 1
O      1.401814     3.004279    -0.293739
H      1.286935     2.071480    -0.547510
H      0.587179     3.446356    -0.499197
O      2.350678    -2.241718     0.338880
H      1.723621    -1.571284     0.204117
H      2.824680    -2.355887    -0.493503
O      1.245199    -0.336761     2.824372
H      0.470260     0.235926     2.905006
H      1.361956    -0.347042     1.858412
O     -1.541109    -2.418693     1.370070
H     -0.925165    -1.895960     0.786732
H     -2.220385    -1.862267     1.722704

units ang
no_reorient
no_com
symmetry c1
}

set {
basis        aug-cc-pVTZ
scf_type     df
}

energy("mp2", bsse_type="cp")
--------------------------------------------------------------------------

                               Psi4 1.9 release
    Molecular point group: c1
  Charge       = 0
  Multiplicity = 1
  Basis Set: AUG-CC-PVTZ
    Blend: AUG-CC-PVTZ
  Basis Set: (AUG-CC-PVTZ AUX)
    Blend: AUG-CC-PVTZ-JKFIT
  @DF-RHF Final Energy:  -304.22548795392680
    Total Energy =                       -304.2254879539268586
 Dipole X            :        -63.0376378           61.9107103           -1.1269275
 Dipole Y            :         35.4992545          -34.4342531            1.0650014
 Dipole Z            :        -76.9119074           75.3120584           -1.5998490
 Magnitude           :                                                    2.2279386
  Basis Set: (AUG-CC-PVTZ AUX)
    Blend: AUG-CC-PVTZ-RI
	 Reference Energy          =    -304.2254879539268018 [Eh]
	 Singles Energy            =      -0.0000000000000000 [Eh]
	 Same-Spin Energy          =      -0.2750453573126930 [Eh]
	 Opposite-Spin Energy      =      -0.8656702933519630 [Eh]
	 Correlation Energy        =      -1.1407156506646561 [Eh]
	 Total Energy              =    -305.3662036045914761 [Eh]
	 SCS Total Energy          =    -305.3559740917200429 [Eh]
                               Psi4 1.9 release
    Molecular point group: c1
  Multiplicity = 1
  Basis Set: AUG-CC-PVTZ
    Blend: AUG-CC-PVTZ
  Basis Set: (AUG-CC-PVTZ AUX)
    Blend: AUG-CC-PVTZ-JKFIT
  @DF-RHF Final Energy:  -459.57356157738951
    Total Energy =                       -459.5735615773895120
  Basis Set: (AUG-CC-PVTZ AUX)
	 Singles Energy            =      -0.0000000000000000 [Eh]
	 Same-Spin Energy          =      -0.0632887964688429 [Eh]
	 Opposite-Spin Energy      =      -0.1828326596647133 [Eh]
	 Correlation Energy        =      -0.2461214561335562 [Eh]
	 Total Energy              =    -459.8196830335230629 [Eh]
	 SCS Total Energy          =    -459.8140570344767752 [Eh]
                               Psi4 1.9 release
    Molecular point group: c1

    Geometry (in Bohr), charge = -1, multiplicity = 1:

       Center              X                  Y                   Z               Mass
    ------------   -----------------  -----------------  -----------------  -----------------
         CL           0.000000000000     0.000000000000     0.000000000000    34.968852682000
         O            2.649044538833     5.677264514464    -0.555086262366    15.994914619570
         H            2.431954691266     3.914529874363    -1.034643950949     1.007825032230
         H            1.109607496620     6.512668970828    -0.943345612650     1.007825032230
         O            4.442137629139    -4.236233070509     0.640390389395    15.994914619570
         H            3.257171634088    -2.969296425314     0.385725227550     1.007825032230
         H            5.337871592058    -4.451981212526    -0.932585512092     1.007825032230
         O            2.353085081694    -0.636386059735     5.337289556412    15.994914619570
         H            0.888662607758     0.445835525875     5.489665732812     1.007825032230
         H            2.573723834924    -0.655814334031     3.511889708264     1.007825032230
         O           -2.912273939478    -4.570667351562     2.589057072706    15.994914619570
         H           -1.748308470859    -3.582845144823     1.486708014134     1.007825032230
         H           -4.195919543075    -3.519174602478     3.255438755231     1.007825032230

  Charge       = -1
  Multiplicity = 1
  Basis Set: AUG-CC-PVTZ
    Blend: AUG-CC-PVTZ
  Basis Set: (AUG-CC-PVTZ AUX)
    Blend: AUG-CC-PVTZ-JKFIT

    Orbital Energies [Eh]
    ---------------------

    Doubly Occupied:

       1A   -104.580763     2A    -20.422923     3A    -20.412723
       4A    -20.397600     5A    -20.394260     6A    -10.306156
       7A     -7.772253     8A     -7.772225     9A     -7.772168
      10A     -1.209342    11A     -1.208392    12A     -1.178506
      13A     -1.176939    14A     -0.824581    15A     -0.583619
      16A     -0.579033    17A     -0.558399    18A     -0.531513
      19A     -0.442396    20A     -0.436254    21A     -0.424755
      22A     -0.412081    23A     -0.369195    24A     -0.362550
      25A     -0.346056    26A     -0.336187    27A     -0.237275
      28A     -0.235592    29A     -0.231253

  @DF-RHF Final Energy:  -763.85845167864431

   => Energetics <=

    Nuclear Repulsion Energy =            225.8834839360181377
    One-Electron Energy =               -1516.4538905558331408
    Two-Electron Energy =                 526.7119549411706885
    Total Energy =                       -763.8584516786443146
 Dipole X            :        -63.3813448           61.9107103           -1.4706345
 Dipole Y            :         35.7775158          -34.4342531            1.3432627
 Dipole Z            :        -77.3367444           75.3120584           -2.0246860
 Magnitude           :                                                    2.8401539
  Basis Set: (AUG-CC-PVTZ AUX)
    Blend: AUG-CC-PVTZ-RI
	 Reference Energy          =    -763.8584516786443146 [Eh]
	 Singles Energy            =      -0.0000000000000000 [Eh]
	 Same-Spin Energy          =      -0.3456035492254085 [Eh]
	 Opposite-Spin Energy      =      -1.0531102331663760 [Eh]
	 Correlation Energy        =      -1.3987137823917846 [Eh]
	 Total Energy              =    -765.2571654610361520 [Eh]

	 ================> DF-SCS-MP2 Energies <==================
	-----------------------------------------------------------
	 SCS Same-Spin Scale       =       0.3333333333333333 [-]
	 SCS Opposite-Spin Scale   =       1.2000000000000000 [-]
	 SCS Same-Spin Energy      =      -0.1152011830751362 [Eh]
	 SCS Opposite-Spin Energy  =      -1.2637322797996511 [Eh]
	 SCS Correlation Energy    =      -1.3789334628747874 [Eh]
	 SCS Total Energy          =    -765.2373851415190984 [Eh]
	-----------------------------------------------------------

*** Psi4 exiting successfully. Buy a developer a beer!
