                               Psi4 1.8.2 release

  ==> Input File <==

--------------------------------------------------------------------------
MEMORY 60 GB

molecule dimer {
-1 1
Cl         0.000000     0.000000     0.000000
O         -1.878402    -1.080531     2.342565
H         -1.026969    -1.166506     1.772713
H         -2.580579    -0.523875     1.890567
O          0.502856     0.086028    -3.057688
H          1.102609    -0.631082    -3.406849
H          0.164913    -0.155801    -2.188960
O         -2.049806    -2.242880    -1.432389
H         -1.691531    -2.297651    -2.291878
H         -1.607052    -1.510032    -1.003034
O          1.381966    -2.850193    -0.519008
H          0.939692    -1.998758    -0.423708
H          2.117352    -2.631893     0.024183

units ang
no_reorient
no_com
symmetry c1
}

set {
basis        aug-cc-pVTZ
scf_type     df
}

energy("mp2")
--------------------------------------------------------------------------

    Molecular point group: c1

    Geometry (in Angstrom), charge = -1, multiplicity = 1:

       Center              X                  Y                   Z               Mass
    ------------   -----------------  -----------------  -----------------  -----------------
         CL           0.000000000000     0.000000000000     0.000000000000    34.968852682000
         O           -1.878402000000    -1.080531000000     2.342565000000    15.994914619570
         H           -1.026969000000    -1.166506000000     1.772713000000     1.007825032230
         H           -2.580579000000    -0.523875000000     1.890567000000     1.007825032230
         O            0.502856000000     0.086028000000    -3.057688000000    15.994914619570
         H            1.102609000000    -0.631082000000    -3.406849000000     1.007825032230
         H            0.164913000000    -0.155801000000    -2.188960000000     1.007825032230
         O           -2.049806000000    -2.242880000000    -1.432389000000    15.994914619570
         H           -1.691531000000    -2.297651000000    -2.291878000000     1.007825032230
         H           -1.607052000000    -1.510032000000    -1.003034000000     1.007825032230
         O            1.381966000000    -2.850193000000    -0.519008000000    15.994914619570
         H            0.939692000000    -1.998758000000    -0.423708000000     1.007825032230
         H            2.117352000000    -2.631893000000     0.024183000000     1.007825032230

  Charge       = -1
  Multiplicity = 1
  Basis Set: AUG-CC-PVTZ
    Blend: AUG-CC-PVTZ
  Basis Set: (AUG-CC-PVTZ AUX)
    Blend: AUG-CC-PVTZ-JKFIT

    Orbital Energies [Eh]
    ---------------------

    Doubly Occupied:

       1A   -104.583366     2A    -20.414191     3A    -20.413788
       4A    -20.410634     5A    -20.410100     6A    -10.308769
       7A     -7.774849     8A     -7.774814     9A     -7.774776
      10A     -1.211768    11A     -1.208052    12A     -1.187981
      13A     -1.162112    14A     -0.828278    15A     -0.578228
      16A     -0.567077    17A     -0.552495    18A     -0.542178
      19A     -0.457548    20A     -0.438116    21A     -0.423072
      22A     -0.407943    23A     -0.363462    24A     -0.360319
      25A     -0.357103    26A     -0.345389    27A     -0.239833
      28A     -0.238061    29A     -0.234879

  @DF-RHF Final Energy:  -763.85121653927683

   => Energetics <=

    Nuclear Repulsion Energy =            229.0852145924555430
    One-Electron Energy =               -1522.7344938407422887
    Two-Electron Energy =                 529.7980627090099688
    Total Energy =                       -763.8512165392768338
 Dipole X            :         36.9266670          -35.7699701            1.1566969
 Dipole Y            :        114.1895205         -112.6583020            1.5312185
 Dipole Z            :         51.0977391          -50.9453647            0.1523744
 Magnitude           :                                                    1.9250444
  Basis Set: (AUG-CC-PVTZ AUX)
    Blend: AUG-CC-PVTZ-RI
	 Reference Energy          =    -763.8512165392768338 [Eh]
	 Singles Energy            =      -0.0000000000000000 [Eh]
	 Same-Spin Energy          =      -0.3473256720150215 [Eh]
	 Opposite-Spin Energy      =      -1.0568410438015565 [Eh]
	 Correlation Energy        =      -1.4041667158165780 [Eh]
	 Total Energy              =    -765.2553832550934203 [Eh]

	 ================> DF-SCS-MP2 Energies <==================
	-----------------------------------------------------------
	 SCS Same-Spin Scale       =       0.3333333333333333 [-]
	 SCS Opposite-Spin Scale   =       1.2000000000000000 [-]
	 SCS Same-Spin Energy      =      -0.1157752240050072 [Eh]
	 SCS Opposite-Spin Energy  =      -1.2682092525618678 [Eh]
	 SCS Correlation Energy    =      -1.3839844765668750 [Eh]
	 SCS Total Energy          =    -765.2352010158436997 [Eh]
	-----------------------------------------------------------

*** Psi4 exiting successfully. Buy a developer a beer!
