                               Psi4 1.9 release

  ==> Input File <==

--------------------------------------------------------------------------
MEMORY 60 GB

molecule dimer {
-1 1
Cl     0.000000     0.000000     0.000000
--
0 1
O     -2.041021    -2.196464    -1.333745
H     -1.300794    -2.029781    -0.728894
H     -2.698392    -2.708355    -0.840419
O      0.419223     0.084825    -3.085711
H     -0.280779     0.277678    -3.790691
H      0.077234     0.159042    -2.208543
O      3.090762    -0.717603    -0.627277
H      3.080613    -1.289849    -1.410804
H      2.118014    -0.454394    -0.575587
O      0.777671     3.142833     0.471574
H      1.633570     3.312266     0.051366
H      0.542632     2.198669     0.371825

units ang
no_reorient
no_com
symmetry c1
}

set {
basis        aug-cc-pVTZ
scf_type     df
}

energy("mp2", bsse_type="cp")
--------------------------------------------------------------------------

                               Psi4 1.9 release
    Molecular point group: c1
  Charge       = 0
  Multiplicity = 1
  Basis Set: AUG-CC-PVTZ
    Blend: AUG-CC-PVTZ
  Basis Set: (AUG-CC-PVTZ AUX)
    Blend: AUG-CC-PVTZ-JKFIT
  @DF-RHF Final Energy:  -304.22727428617105
    Total Energy =                       -304.2272742861710526
 Dipole X            :        -40.8273022           39.9585953           -0.8687069
 Dipole Y            :         -4.5146798            3.7303269           -0.7843529
 Dipole Z            :         86.3629025          -86.4228808           -0.0599783
 Magnitude           :                                                    1.1719464
  Basis Set: (AUG-CC-PVTZ AUX)
    Blend: AUG-CC-PVTZ-RI
	 Reference Energy          =    -304.2272742861710526 [Eh]
	 Singles Energy            =      -0.0000000000000000 [Eh]
	 Same-Spin Energy          =      -0.2753724181196670 [Eh]
	 Opposite-Spin Energy      =      -0.8672108376722283 [Eh]
	 Correlation Energy        =      -1.1425832557918953 [Eh]
	 Total Energy              =    -305.3698575419629719 [Eh]
	 SCS Total Energy          =    -305.3597180974176126 [Eh]
                               Psi4 1.9 release
    Molecular point group: c1
  Multiplicity = 1
  Basis Set: AUG-CC-PVTZ
    Blend: AUG-CC-PVTZ
  Basis Set: (AUG-CC-PVTZ AUX)
    Blend: AUG-CC-PVTZ-JKFIT
  @DF-RHF Final Energy:  -459.57356608262927
    Total Energy =                       -459.5735660826292133
  Basis Set: (AUG-CC-PVTZ AUX)
	 Singles Energy            =      -0.0000000000000000 [Eh]
	 Same-Spin Energy          =      -0.0633866182892917 [Eh]
	 Opposite-Spin Energy      =      -0.1832217136284441 [Eh]
	 Correlation Energy        =      -0.2466083319177359 [Eh]
	 Total Energy              =    -459.8201744145470116 [Eh]
	 SCS Total Energy          =    -459.8145610117464912 [Eh]
                               Psi4 1.9 release
    Molecular point group: c1

    Geometry (in Bohr), charge = -1, multiplicity = 1:

       Center              X                  Y                   Z               Mass
    ------------   -----------------  -----------------  -----------------  -----------------
         CL           0.000000000000     0.000000000000     0.000000000000    34.968852682000
         O           -3.856970706308    -4.150715404428    -2.520412771199    15.994914619570
         H           -2.458144405639    -3.835730184658    -1.377410034489     1.007825032230
         H           -5.099221859126    -5.118049200514    -1.588161740631     1.007825032230
         O            0.792216655493     0.160296018592    -5.831148692313    15.994914619570
         H           -0.530595411780     0.524735371065    -7.163367816238     1.007825032230
         H            0.145951107574     0.300545822445    -4.173541406297     1.007825032230
         O            5.840693698972    -1.356073136807    -1.185381734799    15.994914619570
         H            5.821514868525    -2.437461353196    -2.666033176700     1.007825032230
         H            4.002466389885    -0.858680213051    -1.087701791374     1.007825032230
         O            1.469585205711     5.939093628051     0.891145707887    15.994914619570
         H            3.086999906764     6.259275594666     0.097067672160     1.007825032230
         H            1.025425866909     4.154882250534     0.702647416598     1.007825032230

  Charge       = -1
  Multiplicity = 1
  Basis Set: AUG-CC-PVTZ
    Blend: AUG-CC-PVTZ
  Basis Set: (AUG-CC-PVTZ AUX)
    Blend: AUG-CC-PVTZ-JKFIT

    Orbital Energies [Eh]
    ---------------------

    Doubly Occupied:

       1A   -104.574618     2A    -20.427245     3A    -20.406374
       4A    -20.404833     5A    -20.403286     6A    -10.299898
       7A     -7.765998     8A     -7.765987     9A     -7.765929
      10A     -1.206430    11A     -1.182618    12A     -1.181293
      13A     -1.174095    14A     -0.818821    15A     -0.576623
      16A     -0.565165    17A     -0.559878    18A     -0.528933
      19A     -0.440935    20A     -0.425959    21A     -0.417694
      22A     -0.411497    23A     -0.370206    24A     -0.350252
      25A     -0.348889    26A     -0.343385    27A     -0.231441
      28A     -0.229933    29A     -0.226803

  @DF-RHF Final Energy:  -763.85470602132989

   => Energetics <=

    Nuclear Repulsion Energy =            220.5791288622052946
    One-Electron Energy =               -1506.0576294696770674
    Two-Electron Energy =                 521.6237945861417984
    Total Energy =                       -763.8547060213298892
 Dipole X            :        -41.2087910           39.9585953           -1.2501957
 Dipole Y            :         -4.5753376            3.7303269           -0.8450106
 Dipole Z            :         86.9497331          -86.4228808            0.5268523
 Magnitude           :                                                    1.5983134
  Basis Set: (AUG-CC-PVTZ AUX)
    Blend: AUG-CC-PVTZ-RI
	 Reference Energy          =    -763.8547060213298892 [Eh]
	 Singles Energy            =      -0.0000000000000000 [Eh]
	 Same-Spin Energy          =      -0.3468218716194175 [Eh]
	 Opposite-Spin Energy      =      -1.0564415269785354 [Eh]
	 Correlation Energy        =      -1.4032633985979530 [Eh]
	 Total Energy              =    -765.2579694199278038 [Eh]

	 ================> DF-SCS-MP2 Energies <==================
	-----------------------------------------------------------
	 SCS Same-Spin Scale       =       0.3333333333333333 [-]
	 SCS Opposite-Spin Scale   =       1.2000000000000000 [-]
	 SCS Same-Spin Energy      =      -0.1156072905398058 [Eh]
	 SCS Opposite-Spin Energy  =      -1.2677298323742425 [Eh]
	 SCS Correlation Energy    =      -1.3833371229140483 [Eh]
	 SCS Total Energy          =    -765.2380431442439885 [Eh]
	-----------------------------------------------------------

*** Psi4 exiting successfully. Buy a developer a beer!
