                               Psi4 1.8.2 release

  ==> Input File <==

--------------------------------------------------------------------------
MEMORY 60 GB

molecule dimer {
0 1
Gh(Cl)     0.000000     0.000000     0.000000
Gh(O)      1.697875     2.812156    -0.064854
Gh(H)      1.661557     3.150216     0.885145
Gh(H)      1.369173     1.911949    -0.005570
Gh(O)      2.612789    -0.037192     1.821798
Gh(H)      1.866734    -0.055376     1.210788
Gh(H)      3.305740     0.353047     1.299827
Gh(O)     -0.939614    -2.784060    -1.739328
Gh(H)     -1.213754    -3.715577    -1.660327
Gh(H)     -0.254384    -2.702145    -1.078967
O         -0.798589     1.117862     3.058410
H         -0.409022     0.795271     3.907486
H         -0.301269     0.718251     2.313142
Gh(O)     -3.076715     0.941408     0.114922
Gh(H)     -2.926424     0.271835    -0.596134
Gh(H)     -2.124851     1.261653     0.395401

units ang
no_reorient
no_com
symmetry c1
}

set {
basis        aug-cc-pVTZ
scf_type     df
}

energy("mp2")
--------------------------------------------------------------------------

    Molecular point group: c1

    Geometry (in Angstrom), charge = 0, multiplicity = 1:

       Center              X                  Y                   Z               Mass
    ------------   -----------------  -----------------  -----------------  -----------------
      Gh(CL)          0.000000000000     0.000000000000     0.000000000000    34.968852682000
      Gh(O)           1.697875000000     2.812156000000    -0.064854000000    15.994914619570
      Gh(H)           1.661557000000     3.150216000000     0.885145000000     1.007825032230
      Gh(H)           1.369173000000     1.911949000000    -0.005570000000     1.007825032230
      Gh(O)           2.612789000000    -0.037192000000     1.821798000000    15.994914619570
      Gh(H)           1.866734000000    -0.055376000000     1.210788000000     1.007825032230
      Gh(H)           3.305740000000     0.353047000000     1.299827000000     1.007825032230
      Gh(O)          -0.939614000000    -2.784060000000    -1.739328000000    15.994914619570
      Gh(H)          -1.213754000000    -3.715577000000    -1.660327000000     1.007825032230
      Gh(H)          -0.254384000000    -2.702145000000    -1.078967000000     1.007825032230
         O           -0.798589000000     1.117862000000     3.058410000000    15.994914619570
         H           -0.409022000000     0.795271000000     3.907486000000     1.007825032230
         H           -0.301269000000     0.718251000000     2.313142000000     1.007825032230
      Gh(O)          -3.076715000000     0.941408000000     0.114922000000    15.994914619570
      Gh(H)          -2.926424000000     0.271835000000    -0.596134000000     1.007825032230
      Gh(H)          -2.124851000000     1.261653000000     0.395401000000     1.007825032230

  Charge       = 0
  Multiplicity = 1
  Basis Set: AUG-CC-PVTZ
    Blend: AUG-CC-PVTZ
  Basis Set: (AUG-CC-PVTZ AUX)
    Blend: AUG-CC-PVTZ-JKFIT

    Orbital Energies [Eh]
    ---------------------

    Doubly Occupied:

       1A    -20.569925     2A     -1.337061     3A     -0.710393
       4A     -0.571677     5A     -0.506842

  @DF-RHF Final Energy:   -76.05708765528793

   => Energetics <=

    Nuclear Repulsion Energy =              8.9294917821227813
    One-Electron Energy =                -122.5813592019818827
    Two-Electron Energy =                  37.5947797645711859
    Total Energy =                        -76.0570876552879156
 Dipole X            :         14.0027865          -13.4151714            0.5876150
 Dipole Y            :        -20.2384734           19.7597663           -0.4787072
 Dipole Z            :        -57.9242668           57.9917415            0.0674747
 Magnitude           :                                                    0.7609237
  Basis Set: (AUG-CC-PVTZ AUX)
    Blend: AUG-CC-PVTZ-RI
	 Reference Energy          =     -76.0570876552879298 [Eh]
	 Singles Energy            =      -0.0000000000000000 [Eh]
	 Same-Spin Energy          =      -0.0688072219254657 [Eh]
	 Opposite-Spin Energy      =      -0.2170212219630220 [Eh]
	 Correlation Energy        =      -0.2858284438884877 [Eh]
	 Total Energy              =     -76.3429160991764206 [Eh]

	 ================> DF-SCS-MP2 Energies <==================
	-----------------------------------------------------------
	 SCS Same-Spin Scale       =       0.3333333333333333 [-]
	 SCS Opposite-Spin Scale   =       1.2000000000000000 [-]
	 SCS Same-Spin Energy      =      -0.0229357406418219 [Eh]
	 SCS Opposite-Spin Energy  =      -0.2604254663556264 [Eh]
	 SCS Correlation Energy    =      -0.2833612069974483 [Eh]
	 SCS Total Energy          =     -76.3404488622853847 [Eh]
	-----------------------------------------------------------

*** Psi4 exiting successfully. Buy a developer a beer!
