                               Psi4 1.8.2 release

  ==> Input File <==

--------------------------------------------------------------------------
MEMORY 60 GB

molecule dimer {
-1 1
Cl         0.000000     0.000000     0.000000
O         -1.699511    -2.602859     1.388887
H         -1.009799    -3.281339     1.476309
H         -1.370004    -1.833268     0.834273
O          2.047824    -2.283636     1.627081
H          2.928790    -2.527615     1.228704
H          2.063927    -1.332444     1.617770
O         -2.694511     1.035503     1.396479
H         -3.182629     0.216460     1.160035
H         -1.779856     0.860726     1.190389
O          1.374557    -2.211274    -1.879035
H          1.185050    -3.173037    -1.766271
H          1.030023    -1.776112    -1.054907
O         -1.324787    -2.152761    -2.403691
H         -0.760749    -1.736481    -1.759069
H         -0.832269    -2.768136    -2.931446

units ang
no_reorient
no_com
symmetry c1
}

set {
basis        aug-cc-pVTZ
scf_type     df
}

energy("mp2")
--------------------------------------------------------------------------

    Molecular point group: c1

    Geometry (in Angstrom), charge = -1, multiplicity = 1:

       Center              X                  Y                   Z               Mass
    ------------   -----------------  -----------------  -----------------  -----------------
         CL           0.000000000000     0.000000000000     0.000000000000    34.968852682000
         O           -1.699511000000    -2.602859000000     1.388887000000    15.994914619570
         H           -1.009799000000    -3.281339000000     1.476309000000     1.007825032230
         H           -1.370004000000    -1.833268000000     0.834273000000     1.007825032230
         O            2.047824000000    -2.283636000000     1.627081000000    15.994914619570
         H            2.928790000000    -2.527615000000     1.228704000000     1.007825032230
         H            2.063927000000    -1.332444000000     1.617770000000     1.007825032230
         O           -2.694511000000     1.035503000000     1.396479000000    15.994914619570
         H           -3.182629000000     0.216460000000     1.160035000000     1.007825032230
         H           -1.779856000000     0.860726000000     1.190389000000     1.007825032230
         O            1.374557000000    -2.211274000000    -1.879035000000    15.994914619570
         H            1.185050000000    -3.173037000000    -1.766271000000     1.007825032230
         H            1.030023000000    -1.776112000000    -1.054907000000     1.007825032230
         O           -1.324787000000    -2.152761000000    -2.403691000000    15.994914619570
         H           -0.760749000000    -1.736481000000    -1.759069000000     1.007825032230
         H           -0.832269000000    -2.768136000000    -2.931446000000     1.007825032230

  Charge       = -1
  Multiplicity = 1
  Basis Set: AUG-CC-PVTZ
    Blend: AUG-CC-PVTZ
  Basis Set: (AUG-CC-PVTZ AUX)
    Blend: AUG-CC-PVTZ-JKFIT

    Orbital Energies [Eh]
    ---------------------

    Doubly Occupied:

       1A   -104.578809     2A    -20.453782     3A    -20.432775
       4A    -20.413892     5A    -20.408173     6A    -20.401479
       7A    -10.303739     8A     -7.769872     9A     -7.769830
      10A     -7.769751    11A     -1.230236    12A     -1.211371
      13A     -1.194932    14A     -1.184040    15A     -1.182290
      16A     -0.820358    17A     -0.589561    18A     -0.588331
      19A     -0.564921    20A     -0.561190    21A     -0.552076
      22A     -0.470392    23A     -0.450102    24A     -0.437038
      25A     -0.423099    26A     -0.419999    27A     -0.394649
      28A     -0.363989    29A     -0.358853    30A     -0.352805
      31A     -0.346649    32A     -0.235900    33A     -0.232272
      34A     -0.228658

  @DF-RHF Final Energy:  -839.91229553716164

   => Energetics <=

    Nuclear Repulsion Energy =            310.7679790341528587
    One-Electron Energy =               -1791.9689163361410920
    Two-Electron Energy =                 641.2886417648265933
    Total Energy =                       -839.9122955371616399
 Dipole X            :         40.2393075          -37.9814920            2.2578155
 Dipole Y            :        157.1388259         -156.9823120            0.1565138
 Dipole Z            :         -2.1333362            1.9531359           -0.1802003
 Magnitude           :                                                    2.2703963
  Basis Set: (AUG-CC-PVTZ AUX)
    Blend: AUG-CC-PVTZ-RI
	 Reference Energy          =    -839.9122955371616399 [Eh]
	 Singles Energy            =      -0.0000000000000000 [Eh]
	 Same-Spin Energy          =      -0.4169198156957525 [Eh]
	 Opposite-Spin Energy      =      -1.2741833371771700 [Eh]
	 Correlation Energy        =      -1.6911031528729226 [Eh]
	 Total Energy              =    -841.6033986900345099 [Eh]

	 ================> DF-SCS-MP2 Energies <==================
	-----------------------------------------------------------
	 SCS Same-Spin Scale       =       0.3333333333333333 [-]
	 SCS Opposite-Spin Scale   =       1.2000000000000000 [-]
	 SCS Same-Spin Energy      =      -0.1389732718985842 [Eh]
	 SCS Opposite-Spin Energy  =      -1.5290200046126039 [Eh]
	 SCS Correlation Energy    =      -1.6679932765111880 [Eh]
	 SCS Total Energy          =    -841.5802888136728370 [Eh]
	-----------------------------------------------------------

*** Psi4 exiting successfully. Buy a developer a beer!
