                               Psi4 1.8.2 release

  ==> Input File <==

--------------------------------------------------------------------------
MEMORY 60 GB

molecule dimer {
-1 1
Cl         0.000000     0.000000     0.000000
O          2.710010     1.677585    -1.071771
H          3.152698     1.550298    -0.212812
H          1.765317     1.467364    -1.015440
O         -3.102038    -0.017194    -1.525341
H         -3.358242     0.887782    -1.519567
H         -2.125200    -0.019232    -1.246653
O         -1.292965     2.960221    -0.132286
H         -0.950528     3.448108    -0.917646
H         -0.726725     2.174558    -0.058260

units ang
no_reorient
no_com
symmetry c1
}

set {
basis        aug-cc-pVTZ
scf_type     df
}

energy("mp2")
--------------------------------------------------------------------------

    Molecular point group: c1

    Geometry (in Angstrom), charge = -1, multiplicity = 1:

       Center              X                  Y                   Z               Mass
    ------------   -----------------  -----------------  -----------------  -----------------
         CL           0.000000000000     0.000000000000     0.000000000000    34.968852682000
         O            2.710010000000     1.677585000000    -1.071771000000    15.994914619570
         H            3.152698000000     1.550298000000    -0.212812000000     1.007825032230
         H            1.765317000000     1.467364000000    -1.015440000000     1.007825032230
         O           -3.102038000000    -0.017194000000    -1.525341000000    15.994914619570
         H           -3.358242000000     0.887782000000    -1.519567000000     1.007825032230
         H           -2.125200000000    -0.019232000000    -1.246653000000     1.007825032230
         O           -1.292965000000     2.960221000000    -0.132286000000    15.994914619570
         H           -0.950528000000     3.448108000000    -0.917646000000     1.007825032230
         H           -0.726725000000     2.174558000000    -0.058260000000     1.007825032230

  Charge       = -1
  Multiplicity = 1
  Basis Set: AUG-CC-PVTZ
    Blend: AUG-CC-PVTZ
  Basis Set: (AUG-CC-PVTZ AUX)
    Blend: AUG-CC-PVTZ-JKFIT

    Orbital Energies [Eh]
    ---------------------

    Doubly Occupied:

       1A   -104.562810     2A    -20.417164     3A    -20.416012
       4A    -20.406505     5A    -10.287292     6A     -7.753404
       7A     -7.753356     8A     -7.753319     9A     -1.194290
      10A     -1.191431    11A     -1.183617    12A     -0.799884
      13A     -0.575836    14A     -0.556650    15A     -0.548332
      16A     -0.433511    17A     -0.426883    18A     -0.423739
      19A     -0.361501    20A     -0.358254    21A     -0.349290
      22A     -0.215651    23A     -0.213891    24A     -0.211163

  @DF-RHF Final Energy:  -687.79316252393119

   => Energetics <=

    Nuclear Repulsion Energy =            146.2784211873512561
    One-Electron Energy =               -1251.3555905510704633
    Two-Electron Energy =                 417.2840068397879918
    Total Energy =                       -687.7931625239311870
 Dipole X            :         30.6410581          -29.7114533            0.9296048
 Dipole Y            :        -88.2500353           87.8227049           -0.4273304
 Dipole Z            :         51.3469617          -50.6551708            0.6917909
 Magnitude           :                                                    1.2350510
  Basis Set: (AUG-CC-PVTZ AUX)
    Blend: AUG-CC-PVTZ-RI
	 Reference Energy          =    -687.7931625239311870 [Eh]
	 Singles Energy            =      -0.0000000000000000 [Eh]
	 Same-Spin Energy          =      -0.2745657012546364 [Eh]
	 Opposite-Spin Energy      =      -0.8351985951832062 [Eh]
	 Correlation Energy        =      -1.1097642964378425 [Eh]
	 Total Energy              =    -688.9029268203689753 [Eh]

	 ================> DF-SCS-MP2 Energies <==================
	-----------------------------------------------------------
	 SCS Same-Spin Scale       =       0.3333333333333333 [-]
	 SCS Opposite-Spin Scale   =       1.2000000000000000 [-]
	 SCS Same-Spin Energy      =      -0.0915219004182121 [Eh]
	 SCS Opposite-Spin Energy  =      -1.0022383142198474 [Eh]
	 SCS Correlation Energy    =      -1.0937602146380596 [Eh]
	 SCS Total Energy          =    -688.8869227385692966 [Eh]
	-----------------------------------------------------------

*** Psi4 exiting successfully. Buy a developer a beer!
