                               Psi4 1.8.2 release

  ==> Input File <==

--------------------------------------------------------------------------
MEMORY 60 GB

molecule dimer {
0 1
Gh(Cl)     0.000000     0.000000     0.000000
Gh(O)     -1.878402    -1.080531     2.342565
Gh(H)     -1.026969    -1.166506     1.772713
Gh(H)     -2.580579    -0.523875     1.890567
O          0.502856     0.086028    -3.057688
H          1.102609    -0.631082    -3.406849
H          0.164913    -0.155801    -2.188960
Gh(O)     -2.049806    -2.242880    -1.432389
Gh(H)     -1.691531    -2.297651    -2.291878
Gh(H)     -1.607052    -1.510032    -1.003034
Gh(O)      1.381966    -2.850193    -0.519008
Gh(H)      0.939692    -1.998758    -0.423708
Gh(H)      2.117352    -2.631893     0.024183

units ang
no_reorient
no_com
symmetry c1
}

set {
basis        aug-cc-pVTZ
scf_type     df
}

energy("mp2")
--------------------------------------------------------------------------

    Molecular point group: c1

    Geometry (in Angstrom), charge = 0, multiplicity = 1:

       Center              X                  Y                   Z               Mass
    ------------   -----------------  -----------------  -----------------  -----------------
      Gh(CL)          0.000000000000     0.000000000000     0.000000000000    34.968852682000
      Gh(O)          -1.878402000000    -1.080531000000     2.342565000000    15.994914619570
      Gh(H)          -1.026969000000    -1.166506000000     1.772713000000     1.007825032230
      Gh(H)          -2.580579000000    -0.523875000000     1.890567000000     1.007825032230
         O            0.502856000000     0.086028000000    -3.057688000000    15.994914619570
         H            1.102609000000    -0.631082000000    -3.406849000000     1.007825032230
         H            0.164913000000    -0.155801000000    -2.188960000000     1.007825032230
      Gh(O)          -2.049806000000    -2.242880000000    -1.432389000000    15.994914619570
      Gh(H)          -1.691531000000    -2.297651000000    -2.291878000000     1.007825032230
      Gh(H)          -1.607052000000    -1.510032000000    -1.003034000000     1.007825032230
      Gh(O)           1.381966000000    -2.850193000000    -0.519008000000    15.994914619570
      Gh(H)           0.939692000000    -1.998758000000    -0.423708000000     1.007825032230
      Gh(H)           2.117352000000    -2.631893000000     0.024183000000     1.007825032230

  Charge       = 0
  Multiplicity = 1
  Basis Set: AUG-CC-PVTZ
    Blend: AUG-CC-PVTZ
  Basis Set: (AUG-CC-PVTZ AUX)
    Blend: AUG-CC-PVTZ-JKFIT

    Orbital Energies [Eh]
    ---------------------

    Doubly Occupied:

       1A    -20.568344     2A     -1.338277     3A     -0.715494
       4A     -0.569335     5A     -0.506677

  @DF-RHF Final Energy:   -76.05692800014191

   => Energetics <=

    Nuclear Repulsion Energy =              8.9671730954098798
    One-Electron Energy =                -122.6519435718241198
    Two-Electron Energy =                  37.6278424762723347
    Total Energy =                        -76.0569280001419088
 Dipole X            :         -9.8257087            9.9973504            0.1716417
 Dipole Y            :         -0.4520055           -0.1864385           -0.6384440
 Dipole Z            :         57.1509738          -56.8000896            0.3508842
 Magnitude           :                                                    0.7484593
  Basis Set: (AUG-CC-PVTZ AUX)
    Blend: AUG-CC-PVTZ-RI
	 Reference Energy          =     -76.0569280001419088 [Eh]
	 Singles Energy            =      -0.0000000000000000 [Eh]
	 Same-Spin Energy          =      -0.0687197609405803 [Eh]
	 Opposite-Spin Energy      =      -0.2168768303560472 [Eh]
	 Correlation Energy        =      -0.2855965912966275 [Eh]
	 Total Energy              =     -76.3425245914385329 [Eh]

	 ================> DF-SCS-MP2 Energies <==================
	-----------------------------------------------------------
	 SCS Same-Spin Scale       =       0.3333333333333333 [-]
	 SCS Opposite-Spin Scale   =       1.2000000000000000 [-]
	 SCS Same-Spin Energy      =      -0.0229065869801934 [Eh]
	 SCS Opposite-Spin Energy  =      -0.2602521964272566 [Eh]
	 SCS Correlation Energy    =      -0.2831587834074500 [Eh]
	 SCS Total Energy          =     -76.3400867835493528 [Eh]
	-----------------------------------------------------------

*** Psi4 exiting successfully. Buy a developer a beer!
