                               Psi4 1.8.2 release

  ==> Input File <==

--------------------------------------------------------------------------
MEMORY 60 GB

molecule dimer {
0 1
Gh(Cl)     0.000000     0.000000     0.000000
Gh(O)      1.742297    -2.654047     1.118768
Gh(H)      1.260670    -2.008429     0.613643
Gh(H)      2.683510    -2.425408     0.973453
Gh(O)     -0.878321    -2.549464    -2.008334
Gh(H)     -0.081928    -2.939664    -2.323798
Gh(H)     -0.714875    -1.691467    -1.528138
O          1.749563    -0.102248     3.018640
H          2.471494    -0.737311     3.082986
H          1.443373    -0.105267     2.081928
Gh(O)     -0.979852     2.756798     1.607170
Gh(H)     -1.662922     2.629789     2.250272
Gh(H)     -0.638372     1.968890     1.221055
Gh(O)      1.578888     0.765967    -2.773134
Gh(H)      1.498143     0.657890    -1.802469
Gh(H)      1.511288     1.750790    -2.889389
Gh(O)     -1.085832     2.723152    -1.612034
Gh(H)     -1.583392     2.750532    -2.453881
Gh(H)     -0.723114     1.794176    -1.507763

units ang
no_reorient
no_com
symmetry c1
}

set {
basis        aug-cc-pVTZ
scf_type     df
}

energy("mp2")
--------------------------------------------------------------------------

    Molecular point group: c1

    Geometry (in Angstrom), charge = 0, multiplicity = 1:

       Center              X                  Y                   Z               Mass
    ------------   -----------------  -----------------  -----------------  -----------------
      Gh(CL)          0.000000000000     0.000000000000     0.000000000000    34.968852682000
      Gh(O)           1.742297000000    -2.654047000000     1.118768000000    15.994914619570
      Gh(H)           1.260670000000    -2.008429000000     0.613643000000     1.007825032230
      Gh(H)           2.683510000000    -2.425408000000     0.973453000000     1.007825032230
      Gh(O)          -0.878321000000    -2.549464000000    -2.008334000000    15.994914619570
      Gh(H)          -0.081928000000    -2.939664000000    -2.323798000000     1.007825032230
      Gh(H)          -0.714875000000    -1.691467000000    -1.528138000000     1.007825032230
         O            1.749563000000    -0.102248000000     3.018640000000    15.994914619570
         H            2.471494000000    -0.737311000000     3.082986000000     1.007825032230
         H            1.443373000000    -0.105267000000     2.081928000000     1.007825032230
      Gh(O)          -0.979852000000     2.756798000000     1.607170000000    15.994914619570
      Gh(H)          -1.662922000000     2.629789000000     2.250272000000     1.007825032230
      Gh(H)          -0.638372000000     1.968890000000     1.221055000000     1.007825032230
      Gh(O)           1.578888000000     0.765967000000    -2.773134000000    15.994914619570
      Gh(H)           1.498143000000     0.657890000000    -1.802469000000     1.007825032230
      Gh(H)           1.511288000000     1.750790000000    -2.889389000000     1.007825032230
      Gh(O)          -1.085832000000     2.723152000000    -1.612034000000    15.994914619570
      Gh(H)          -1.583392000000     2.750532000000    -2.453881000000     1.007825032230
      Gh(H)          -0.723114000000     1.794176000000    -1.507763000000     1.007825032230

  Charge       = 0
  Multiplicity = 1
  Basis Set: AUG-CC-PVTZ
    Blend: AUG-CC-PVTZ
  Basis Set: (AUG-CC-PVTZ AUX)
    Blend: AUG-CC-PVTZ-JKFIT

    Orbital Energies [Eh]
    ---------------------

    Doubly Occupied:

       1A    -20.568970     2A     -1.343103     3A     -0.713215
       4A     -0.576514     5A     -0.508155

  @DF-RHF Final Energy:   -76.05866201839814

   => Energetics <=

    Nuclear Repulsion Energy =              9.0263206117323023
    One-Electron Energy =                -122.7500498599776506
    Two-Electron Energy =                  37.6650672298472102
    Total Energy =                        -76.0586620183981381
 Dipole X            :        -33.5695806           33.8475857            0.2780051
 Dipole Y            :          2.7133541           -3.1380074           -0.4246533
 Dipole Z            :        -55.9723469           55.3954959           -0.5768510
 Magnitude           :                                                    0.7683582
  Basis Set: (AUG-CC-PVTZ AUX)
    Blend: AUG-CC-PVTZ-RI
	 Reference Energy          =     -76.0586620183981381 [Eh]
	 Singles Energy            =      -0.0000000000000000 [Eh]
	 Same-Spin Energy          =      -0.0686467088134745 [Eh]
	 Opposite-Spin Energy      =      -0.2165252110552467 [Eh]
	 Correlation Energy        =      -0.2851719198687211 [Eh]
	 Total Energy              =     -76.3438339382668545 [Eh]

	 ================> DF-SCS-MP2 Energies <==================
	-----------------------------------------------------------
	 SCS Same-Spin Scale       =       0.3333333333333333 [-]
	 SCS Opposite-Spin Scale   =       1.2000000000000000 [-]
	 SCS Same-Spin Energy      =      -0.0228822362711582 [Eh]
	 SCS Opposite-Spin Energy  =      -0.2598302532662960 [Eh]
	 SCS Correlation Energy    =      -0.2827124895374541 [Eh]
	 SCS Total Energy          =     -76.3413745079355976 [Eh]
	-----------------------------------------------------------

*** Psi4 exiting successfully. Buy a developer a beer!
