                               Psi4 1.8.2 release

  ==> Input File <==

--------------------------------------------------------------------------
MEMORY 60 GB

molecule dimer {
-1 1
Cl         0.000000     0.000000     0.000000
O          1.742297    -2.654047     1.118768
H          1.260670    -2.008429     0.613643
H          2.683510    -2.425408     0.973453
O         -0.878321    -2.549464    -2.008334
H         -0.081928    -2.939664    -2.323798
H         -0.714875    -1.691467    -1.528138
O          1.749563    -0.102248     3.018640
H          2.471494    -0.737311     3.082986
H          1.443373    -0.105267     2.081928
O         -0.979852     2.756798     1.607170
H         -1.662922     2.629789     2.250272
H         -0.638372     1.968890     1.221055
O          1.578888     0.765967    -2.773134
H          1.498143     0.657890    -1.802469
H          1.511288     1.750790    -2.889389
O         -1.085832     2.723152    -1.612034
H         -1.583392     2.750532    -2.453881
H         -0.723114     1.794176    -1.507763

units ang
no_reorient
no_com
symmetry c1
}

set {
basis        aug-cc-pVTZ
scf_type     df
}

energy("mp2")
--------------------------------------------------------------------------

    Molecular point group: c1

    Geometry (in Angstrom), charge = -1, multiplicity = 1:

       Center              X                  Y                   Z               Mass
    ------------   -----------------  -----------------  -----------------  -----------------
         CL           0.000000000000     0.000000000000     0.000000000000    34.968852682000
         O            1.742297000000    -2.654047000000     1.118768000000    15.994914619570
         H            1.260670000000    -2.008429000000     0.613643000000     1.007825032230
         H            2.683510000000    -2.425408000000     0.973453000000     1.007825032230
         O           -0.878321000000    -2.549464000000    -2.008334000000    15.994914619570
         H           -0.081928000000    -2.939664000000    -2.323798000000     1.007825032230
         H           -0.714875000000    -1.691467000000    -1.528138000000     1.007825032230
         O            1.749563000000    -0.102248000000     3.018640000000    15.994914619570
         H            2.471494000000    -0.737311000000     3.082986000000     1.007825032230
         H            1.443373000000    -0.105267000000     2.081928000000     1.007825032230
         O           -0.979852000000     2.756798000000     1.607170000000    15.994914619570
         H           -1.662922000000     2.629789000000     2.250272000000     1.007825032230
         H           -0.638372000000     1.968890000000     1.221055000000     1.007825032230
         O            1.578888000000     0.765967000000    -2.773134000000    15.994914619570
         H            1.498143000000     0.657890000000    -1.802469000000     1.007825032230
         H            1.511288000000     1.750790000000    -2.889389000000     1.007825032230
         O           -1.085832000000     2.723152000000    -1.612034000000    15.994914619570
         H           -1.583392000000     2.750532000000    -2.453881000000     1.007825032230
         H           -0.723114000000     1.794176000000    -1.507763000000     1.007825032230

  Charge       = -1
  Multiplicity = 1
  Basis Set: AUG-CC-PVTZ
    Blend: AUG-CC-PVTZ
  Basis Set: (AUG-CC-PVTZ AUX)
    Blend: AUG-CC-PVTZ-JKFIT

    Orbital Energies [Eh]
    ---------------------

    Doubly Occupied:

       1A   -104.604175     2A    -20.439626     3A    -20.438452
       4A    -20.430491     5A    -20.426764     6A    -20.419325
       7A    -20.403910     8A    -10.329380     9A     -7.795485
      10A     -7.795477    11A     -7.795442    12A     -1.224071
      13A     -1.208918    14A     -1.203103    15A     -1.200223
      16A     -1.199481    17A     -1.196540    18A     -0.848008
      19A     -0.593148    20A     -0.588627    21A     -0.583299
      22A     -0.573339    23A     -0.568284    24A     -0.567216
      25A     -0.461037    26A     -0.455445    27A     -0.442110
      28A     -0.436423    29A     -0.429140    30A     -0.415408
      31A     -0.385152    32A     -0.379985    33A     -0.368906
      34A     -0.366328    35A     -0.364397    36A     -0.352923
      37A     -0.260932    38A     -0.260006    39A     -0.256587

  @DF-RHF Final Energy:  -915.98857446896909

   => Energetics <=

    Nuclear Repulsion Energy =            389.0974039745376558
    One-Electron Energy =               -2054.0368250577816980
    Two-Electron Energy =                 748.9508466142749512
    Total Energy =                       -915.9885744689690910
 Dipole X            :        -42.0164733           42.4769218            0.4604485
 Dipole Y            :        -17.5572056           17.3208234           -0.2363823
 Dipole Z            :         13.6350377          -14.1228550           -0.4878173
 Magnitude           :                                                    0.7112349
  Basis Set: (AUG-CC-PVTZ AUX)
    Blend: AUG-CC-PVTZ-RI
	 Reference Energy          =    -915.9885744689690910 [Eh]
	 Singles Energy            =      -0.0000000000000000 [Eh]
	 Same-Spin Energy          =      -0.4865576275603717 [Eh]
	 Opposite-Spin Energy      =      -1.4914473793023011 [Eh]
	 Correlation Energy        =      -1.9780050068626727 [Eh]
	 Total Energy              =    -917.9665794758317361 [Eh]

	 ================> DF-SCS-MP2 Energies <==================
	-----------------------------------------------------------
	 SCS Same-Spin Scale       =       0.3333333333333333 [-]
	 SCS Opposite-Spin Scale   =       1.2000000000000000 [-]
	 SCS Same-Spin Energy      =      -0.1621858758534572 [Eh]
	 SCS Opposite-Spin Energy  =      -1.7897368551627613 [Eh]
	 SCS Correlation Energy    =      -1.9519227310162184 [Eh]
	 SCS Total Energy          =    -917.9404971999853160 [Eh]
	-----------------------------------------------------------

*** Psi4 exiting successfully. Buy a developer a beer!
