                               Psi4 1.9 release

  ==> Input File <==

--------------------------------------------------------------------------
MEMORY 60 GB

molecule dimer {
-1 1
Cl     0.000000     0.000000     0.000000
--
0 1
O      1.349723     3.144590     0.491977
H      0.675618     2.449119     0.560682
H      1.543742     3.300192    -0.440350
O     -0.434395     1.153350    -2.878709
H     -0.293618     0.819358    -1.949994
H     -1.094274     1.844104    -2.701477
O     -0.112666    -3.172677    -0.818981
H     -0.440484    -3.464567    -1.684643
H     -0.573775    -2.384919    -0.634122
O      2.707321     0.923269    -1.525442
H      1.858217     0.675925    -1.212679
H      2.622540     1.151439    -2.426239
O     -2.976873     1.483817    -0.382684
H     -2.949395     2.384073    -0.726030
H     -2.058380     1.184344    -0.550989

units ang
no_reorient
no_com
symmetry c1
}

set {
basis        aug-cc-pVTZ
scf_type     df
}

energy("mp2", bsse_type="cp")
--------------------------------------------------------------------------

                               Psi4 1.9 release
    Molecular point group: c1
  Charge       = 0
  Multiplicity = 1
  Basis Set: AUG-CC-PVTZ
    Blend: AUG-CC-PVTZ
  Basis Set: (AUG-CC-PVTZ AUX)
    Blend: AUG-CC-PVTZ-JKFIT
  @DF-RHF Final Energy:  -380.28387050608529
    Total Energy =                       -380.2838705060852931
 Dipole X            :         -7.9063047            6.7181105           -1.1881942
 Dipole Y            :        -67.8524786           68.4418363            0.5893577
 Dipole Z            :         98.4086756          -99.5442584           -1.1355828
 Magnitude           :                                                    1.7460516
  Basis Set: (AUG-CC-PVTZ AUX)
    Blend: AUG-CC-PVTZ-RI
	 Reference Energy          =    -380.2838705060852931 [Eh]
	 Singles Energy            =      -0.0000000000000000 [Eh]
	 Same-Spin Energy          =      -0.3445424290936395 [Eh]
	 Opposite-Spin Energy      =      -1.0833171845891694 [Eh]
	 Correlation Energy        =      -1.4278596136828088 [Eh]
	 Total Energy              =    -381.7117301197681059 [Eh]
	 SCS Total Energy          =    -381.6986986039568706 [Eh]
                               Psi4 1.9 release
    Molecular point group: c1
  Multiplicity = 1
  Basis Set: AUG-CC-PVTZ
    Blend: AUG-CC-PVTZ
  Basis Set: (AUG-CC-PVTZ AUX)
    Blend: AUG-CC-PVTZ-JKFIT
  @DF-RHF Final Energy:  -459.57357242808871
    Total Energy =                       -459.5735724280887098
  Basis Set: (AUG-CC-PVTZ AUX)
	 Singles Energy            =      -0.0000000000000000 [Eh]
	 Same-Spin Energy          =      -0.0635100288378629 [Eh]
	 Opposite-Spin Energy      =      -0.1836965882739361 [Eh]
	 Correlation Energy        =      -0.2472066171117990 [Eh]
	 Total Energy              =    -459.8207790452004815 [Eh]
	 SCS Total Energy          =    -459.8151783436300661 [Eh]
                               Psi4 1.9 release
    Molecular point group: c1

    Geometry (in Bohr), charge = -1, multiplicity = 1:

       Center              X                  Y                   Z               Mass
    ------------   -----------------  -----------------  -----------------  -----------------
         CL           0.000000000000     0.000000000000     0.000000000000    34.968852682000
         O            2.550606815231     5.942413876853     0.929701790024    15.994914619570
         H            1.276732985430     4.628164158655     1.059535423474     1.007825032230
         H            2.917249588367     6.236459041427    -0.832140899345     1.007825032230
         O           -0.820887580268     2.179515626797    -5.439971604891    15.994914619570
         H           -0.554857605505     1.548362218703    -3.684954606286     1.007825032230
         H           -2.067878166209     3.484851506861    -5.105051664223     1.007825032230
         O           -0.212907883651    -5.995490614539    -1.547649791954    15.994914619570
         H           -0.832394122646    -6.547082773299    -3.183513889170     1.007825032230
         H           -1.084277607635    -4.506843741401    -1.198316910128     1.007825032230
         O            5.116095223701     1.744725550125    -2.882667600271    15.994914619570
         H            3.511521211670     1.277313131350    -2.291631188094     1.007825032230
         H            4.955882353058     2.175904360171    -4.584927224905     1.007825032230
         O           -5.625474680270     2.804007750298    -0.723167952595    15.994914619570
         H           -5.573548785795     4.505245033099    -1.371997858866     1.007825032230
         H           -3.889774462120     2.238085798329    -1.041218308140     1.007825032230

  Charge       = -1
  Multiplicity = 1
  Basis Set: AUG-CC-PVTZ
    Blend: AUG-CC-PVTZ
  Basis Set: (AUG-CC-PVTZ AUX)
    Blend: AUG-CC-PVTZ-JKFIT

    Orbital Energies [Eh]
    ---------------------

    Doubly Occupied:

       1A   -104.589137     2A    -20.440579     3A    -20.430147
       4A    -20.424398     5A    -20.420249     6A    -20.405931
       7A    -10.314345     8A     -7.780472     9A     -7.780374
      10A     -7.780351    11A     -1.220603    12A     -1.216351
      13A     -1.210699    14A     -1.206177    15A     -1.200371
      16A     -0.833826    17A     -0.584932    18A     -0.582929
      19A     -0.576130    20A     -0.575889    21A     -0.558927
      22A     -0.469309    23A     -0.452474    24A     -0.446539
      25A     -0.435777    26A     -0.432706    27A     -0.383070
      28A     -0.372518    29A     -0.371426    30A     -0.368980
      31A     -0.353972    32A     -0.246043    33A     -0.243401
      34A     -0.241938

  @DF-RHF Final Energy:  -839.92541246803421

   => Energetics <=

    Nuclear Repulsion Energy =            307.5877825304617659
    One-Electron Energy =               -1785.1244384519166033
    Two-Electron Energy =                 637.6112434534206841
    Total Energy =                       -839.9254124680342102
 Dipole X            :         -7.7798689            6.7181105           -1.0617583
 Dipole Y            :        -68.4611868           68.4418363           -0.0193505
 Dipole Z            :         99.2424089          -99.5442584           -0.3018495
 Magnitude           :                                                    1.1040010
  Basis Set: (AUG-CC-PVTZ AUX)
    Blend: AUG-CC-PVTZ-RI
	 Reference Energy          =    -839.9254124680342102 [Eh]
	 Singles Energy            =      -0.0000000000000000 [Eh]
	 Same-Spin Energy          =      -0.4167905485993668 [Eh]
	 Opposite-Spin Energy      =      -1.2731249325102287 [Eh]
	 Correlation Energy        =      -1.6899154811095956 [Eh]
	 Total Energy              =    -841.6153279491437615 [Eh]

	 ================> DF-SCS-MP2 Energies <==================
	-----------------------------------------------------------
	 SCS Same-Spin Scale       =       0.3333333333333333 [-]
	 SCS Opposite-Spin Scale   =       1.2000000000000000 [-]
	 SCS Same-Spin Energy      =      -0.1389301828664556 [Eh]
	 SCS Opposite-Spin Energy  =      -1.5277499190122745 [Eh]
	 SCS Correlation Energy    =      -1.6666801018787301 [Eh]
	 SCS Total Energy          =    -841.5920925699128929 [Eh]
	-----------------------------------------------------------

*** Psi4 exiting successfully. Buy a developer a beer!
