                               Psi4 1.8.2 release

  ==> Input File <==

--------------------------------------------------------------------------
MEMORY 60 GB

molecule dimer {
0 1
Gh(Cl)     0.000000     0.000000     0.000000
Gh(O)      1.349723     3.144590     0.491977
Gh(H)      0.675618     2.449119     0.560682
Gh(H)      1.543742     3.300192    -0.440350
Gh(O)     -0.434395     1.153350    -2.878709
Gh(H)     -0.293618     0.819358    -1.949994
Gh(H)     -1.094274     1.844104    -2.701477
Gh(O)     -0.112666    -3.172677    -0.818981
Gh(H)     -0.440484    -3.464567    -1.684643
Gh(H)     -0.573775    -2.384919    -0.634122
Gh(O)      2.707321     0.923269    -1.525442
Gh(H)      1.858217     0.675925    -1.212679
Gh(H)      2.622540     1.151439    -2.426239
O         -2.976873     1.483817    -0.382684
H         -2.949395     2.384073    -0.726030
H         -2.058380     1.184344    -0.550989

units ang
no_reorient
no_com
symmetry c1
}

set {
basis        aug-cc-pVTZ
scf_type     df
}

energy("mp2")
--------------------------------------------------------------------------

    Molecular point group: c1

    Geometry (in Angstrom), charge = 0, multiplicity = 1:

       Center              X                  Y                   Z               Mass
    ------------   -----------------  -----------------  -----------------  -----------------
      Gh(CL)          0.000000000000     0.000000000000     0.000000000000    34.968852682000
      Gh(O)           1.349723000000     3.144590000000     0.491977000000    15.994914619570
      Gh(H)           0.675618000000     2.449119000000     0.560682000000     1.007825032230
      Gh(H)           1.543742000000     3.300192000000    -0.440350000000     1.007825032230
      Gh(O)          -0.434395000000     1.153350000000    -2.878709000000    15.994914619570
      Gh(H)          -0.293618000000     0.819358000000    -1.949994000000     1.007825032230
      Gh(H)          -1.094274000000     1.844104000000    -2.701477000000     1.007825032230
      Gh(O)          -0.112666000000    -3.172677000000    -0.818981000000    15.994914619570
      Gh(H)          -0.440484000000    -3.464567000000    -1.684643000000     1.007825032230
      Gh(H)          -0.573775000000    -2.384919000000    -0.634122000000     1.007825032230
      Gh(O)           2.707321000000     0.923269000000    -1.525442000000    15.994914619570
      Gh(H)           1.858217000000     0.675925000000    -1.212679000000     1.007825032230
      Gh(H)           2.622540000000     1.151439000000    -2.426239000000     1.007825032230
         O           -2.976873000000     1.483817000000    -0.382684000000    15.994914619570
         H           -2.949395000000     2.384073000000    -0.726030000000     1.007825032230
         H           -2.058380000000     1.184344000000    -0.550989000000     1.007825032230

  Charge       = 0
  Multiplicity = 1
  Basis Set: AUG-CC-PVTZ
    Blend: AUG-CC-PVTZ
  Basis Set: (AUG-CC-PVTZ AUX)
    Blend: AUG-CC-PVTZ-JKFIT

    Orbital Energies [Eh]
    ---------------------

    Doubly Occupied:

       1A    -20.571123     2A     -1.348189     3A     -0.703611
       4A     -0.588083     5A     -0.510055

  @DF-RHF Final Energy:   -76.05876439061765

   => Energetics <=

    Nuclear Repulsion Energy =              9.0606978974024504
    One-Electron Energy =                -122.7967991927601332
    Two-Electron Energy =                  37.6773369047400237
    Total Energy =                        -76.0587643906176538
 Dipole X            :         55.0835215          -54.4671207            0.6164008
 Dipole Y            :        -28.7806182           29.1753928            0.3947746
 Dipole Z            :          7.8638139           -8.1985598           -0.3347459
 Magnitude           :                                                    0.8048924
  Basis Set: (AUG-CC-PVTZ AUX)
    Blend: AUG-CC-PVTZ-RI
	 Reference Energy          =     -76.0587643906176538 [Eh]
	 Singles Energy            =      -0.0000000000000000 [Eh]
	 Same-Spin Energy          =      -0.0687296016464737 [Eh]
	 Opposite-Spin Energy      =      -0.2168297742953763 [Eh]
	 Correlation Energy        =      -0.2855593759418500 [Eh]
	 Total Energy              =     -76.3443237665594978 [Eh]

	 ================> DF-SCS-MP2 Energies <==================
	-----------------------------------------------------------
	 SCS Same-Spin Scale       =       0.3333333333333333 [-]
	 SCS Opposite-Spin Scale   =       1.2000000000000000 [-]
	 SCS Same-Spin Energy      =      -0.0229098672154912 [Eh]
	 SCS Opposite-Spin Energy  =      -0.2601957291544515 [Eh]
	 SCS Correlation Energy    =      -0.2831055963699428 [Eh]
	 SCS Total Energy          =     -76.3418699869876036 [Eh]
	-----------------------------------------------------------

*** Psi4 exiting successfully. Buy a developer a beer!
