                               Psi4 1.8.2 release

  ==> Input File <==

--------------------------------------------------------------------------
MEMORY 60 GB

molecule dimer {
-1 1
Cl         0.000000     0.000000     0.000000
Gh(O)     -2.199916    -1.571015     1.467295
Gh(H)     -1.882318    -2.506238     1.325476
Gh(H)     -1.614150    -0.972649     0.951732
Gh(O)      0.797188    -2.893542     1.082174
Gh(H)      0.638924    -1.985322     0.894663
Gh(H)      1.422652    -3.264080     0.452093
Gh(O)     -2.721750     0.879998    -1.804564
Gh(H)     -2.687678     0.053166    -2.351965
Gh(H)     -2.079379     0.700004    -1.079329
Gh(O)     -0.897884    -1.728912    -2.615415
Gh(H)     -0.741817    -1.169751    -1.853770
Gh(H)     -0.428522    -2.544201    -2.358736

units ang
no_reorient
no_com
symmetry c1
}

set {
basis        aug-cc-pVTZ
scf_type     df
}

energy("mp2")
--------------------------------------------------------------------------

    Molecular point group: c1

    Geometry (in Angstrom), charge = -1, multiplicity = 1:

       Center              X                  Y                   Z               Mass
    ------------   -----------------  -----------------  -----------------  -----------------
         CL           0.000000000000     0.000000000000     0.000000000000    34.968852682000
      Gh(O)          -2.199916000000    -1.571015000000     1.467295000000    15.994914619570
      Gh(H)          -1.882318000000    -2.506238000000     1.325476000000     1.007825032230
      Gh(H)          -1.614150000000    -0.972649000000     0.951732000000     1.007825032230
      Gh(O)           0.797188000000    -2.893542000000     1.082174000000    15.994914619570
      Gh(H)           0.638924000000    -1.985322000000     0.894663000000     1.007825032230
      Gh(H)           1.422652000000    -3.264080000000     0.452093000000     1.007825032230
      Gh(O)          -2.721750000000     0.879998000000    -1.804564000000    15.994914619570
      Gh(H)          -2.687678000000     0.053166000000    -2.351965000000     1.007825032230
      Gh(H)          -2.079379000000     0.700004000000    -1.079329000000     1.007825032230
      Gh(O)          -0.897884000000    -1.728912000000    -2.615415000000    15.994914619570
      Gh(H)          -0.741817000000    -1.169751000000    -1.853770000000     1.007825032230
      Gh(H)          -0.428522000000    -2.544201000000    -2.358736000000     1.007825032230

  Charge       = -1
  Multiplicity = 1
  Basis Set: AUG-CC-PVTZ
    Blend: AUG-CC-PVTZ
  Basis Set: (AUG-CC-PVTZ AUX)
    Blend: AUG-CC-PVTZ-JKFIT

    Orbital Energies [Eh]
    ---------------------

    Doubly Occupied:

       1A   -104.507200     2A    -10.230052     3A     -7.696117
       4A     -7.696107     5A     -7.696097     6A     -0.733476
       7A     -0.150316     8A     -0.150313     9A     -0.150311

  @DF-RHF Final Energy:  -459.57356605183827

   => Energetics <=

    Nuclear Repulsion Energy =              0.0000000000000000
    One-Electron Energy =                -641.1271679388485154
    Two-Electron Energy =                 181.5536018870102453
    Total Energy =                       -459.5735660518382701
 Dipole X            :         -0.0004020            0.0000000           -0.0004020
 Dipole Y            :         -0.0005059            0.0000000           -0.0005059
 Dipole Z            :         -0.0002048            0.0000000           -0.0002048
 Magnitude           :                                                    0.0006779
  Basis Set: (AUG-CC-PVTZ AUX)
    Blend: AUG-CC-PVTZ-RI
	 Reference Energy          =    -459.5735660518382701 [Eh]
	 Singles Energy            =      -0.0000000000000000 [Eh]
	 Same-Spin Energy          =      -0.0634481454672962 [Eh]
	 Opposite-Spin Energy      =      -0.1834673072743437 [Eh]
	 Correlation Energy        =      -0.2469154527416398 [Eh]
	 Total Energy              =    -459.8204815045799023 [Eh]

	 ================> DF-SCS-MP2 Energies <==================
	-----------------------------------------------------------
	 SCS Same-Spin Scale       =       0.3333333333333333 [-]
	 SCS Opposite-Spin Scale   =       1.2000000000000000 [-]
	 SCS Same-Spin Energy      =      -0.0211493818224321 [Eh]
	 SCS Opposite-Spin Energy  =      -0.2201607687292124 [Eh]
	 SCS Correlation Energy    =      -0.2413101505516445 [Eh]
	 SCS Total Energy          =    -459.8148762023899394 [Eh]
	-----------------------------------------------------------

*** Psi4 exiting successfully. Buy a developer a beer!
