                               Psi4 1.8.2 release

  ==> Input File <==

--------------------------------------------------------------------------
MEMORY 60 GB

molecule dimer {
-1 1
Cl         0.000000     0.000000     0.000000
O         -2.071837    -1.566407    -2.094834
H         -2.804132    -1.909173    -1.581457
H         -1.575661    -1.017210    -1.506295
O         -2.835162    -1.380871     1.365181
H         -2.100127    -0.901437     0.939824
H         -3.623037    -0.817636     1.359899
O         -0.436252     1.643652    -2.926169
H         -0.441176     1.305425    -2.001804
H         -0.243187     0.850829    -3.475916
O          2.956243     0.741991     0.983113
H          2.865237     1.197444     0.143693
H          2.115532     0.354191     1.203109

units ang
no_reorient
no_com
symmetry c1
}

set {
basis        aug-cc-pVTZ
scf_type     df
}

energy("mp2")
--------------------------------------------------------------------------

    Molecular point group: c1

    Geometry (in Angstrom), charge = -1, multiplicity = 1:

       Center              X                  Y                   Z               Mass
    ------------   -----------------  -----------------  -----------------  -----------------
         CL           0.000000000000     0.000000000000     0.000000000000    34.968852682000
         O           -2.071837000000    -1.566407000000    -2.094834000000    15.994914619570
         H           -2.804132000000    -1.909173000000    -1.581457000000     1.007825032230
         H           -1.575661000000    -1.017210000000    -1.506295000000     1.007825032230
         O           -2.835162000000    -1.380871000000     1.365181000000    15.994914619570
         H           -2.100127000000    -0.901437000000     0.939824000000     1.007825032230
         H           -3.623037000000    -0.817636000000     1.359899000000     1.007825032230
         O           -0.436252000000     1.643652000000    -2.926169000000    15.994914619570
         H           -0.441176000000     1.305425000000    -2.001804000000     1.007825032230
         H           -0.243187000000     0.850829000000    -3.475916000000     1.007825032230
         O            2.956243000000     0.741991000000     0.983113000000    15.994914619570
         H            2.865237000000     1.197444000000     0.143693000000     1.007825032230
         H            2.115532000000     0.354191000000     1.203109000000     1.007825032230

  Charge       = -1
  Multiplicity = 1
  Basis Set: AUG-CC-PVTZ
    Blend: AUG-CC-PVTZ
  Basis Set: (AUG-CC-PVTZ AUX)
    Blend: AUG-CC-PVTZ-JKFIT

    Orbital Energies [Eh]
    ---------------------

    Doubly Occupied:

       1A   -104.579517     2A    -20.433502     3A    -20.418121
       4A    -20.415564     5A    -20.409423     6A    -10.304359
       7A     -7.770501     8A     -7.770439     9A     -7.770392
      10A     -1.211755    11A     -1.207931    12A     -1.198471
      13A     -1.189562    14A     -0.819226    15A     -0.586247
      16A     -0.577789    17A     -0.573547    18A     -0.553595
      19A     -0.446208    20A     -0.440281    21A     -0.434661
      22A     -0.431126    23A     -0.376556    24A     -0.365330
      25A     -0.357924    26A     -0.357848    27A     -0.235476
      28A     -0.232893    29A     -0.228397

  @DF-RHF Final Energy:  -763.87083180641935

   => Energetics <=

    Nuclear Repulsion Energy =            214.7447262742457212
    One-Electron Energy =               -1493.8378296372416116
    Two-Electron Energy =                 515.2222715565765156
    Total Energy =                       -763.8708318064193463
 Dipole X            :         46.6818037          -47.0591222           -0.3773184
 Dipole Y            :         10.3912741          -10.2624355            0.1288385
 Dipole Z            :         50.2866850          -49.7009668            0.5857181
 Magnitude           :                                                    0.7085438
  Basis Set: (AUG-CC-PVTZ AUX)
    Blend: AUG-CC-PVTZ-RI
	 Reference Energy          =    -763.8708318064193463 [Eh]
	 Singles Energy            =      -0.0000000000000000 [Eh]
	 Same-Spin Energy          =      -0.3441424497251461 [Eh]
	 Opposite-Spin Energy      =      -1.0513993357671909 [Eh]
	 Correlation Energy        =      -1.3955417854923371 [Eh]
	 Total Energy              =    -765.2663735919117016 [Eh]

	 ================> DF-SCS-MP2 Energies <==================
	-----------------------------------------------------------
	 SCS Same-Spin Scale       =       0.3333333333333333 [-]
	 SCS Opposite-Spin Scale   =       1.2000000000000000 [-]
	 SCS Same-Spin Energy      =      -0.1147141499083820 [Eh]
	 SCS Opposite-Spin Energy  =      -1.2616792029206290 [Eh]
	 SCS Correlation Energy    =      -1.3763933528290111 [Eh]
	 SCS Total Energy          =    -765.2472251592483872 [Eh]
	-----------------------------------------------------------

*** Psi4 exiting successfully. Buy a developer a beer!
