                               Psi4 1.8.2 release

  ==> Input File <==

--------------------------------------------------------------------------
MEMORY 60 GB

molecule dimer {
0 1
Gh(Cl)     0.000000     0.000000     0.000000
Gh(O)     -2.600905     1.445698    -1.428595
Gh(H)     -1.790172     1.295780    -0.990803
Gh(H)     -3.218459     1.075372    -0.808474
Gh(O)      2.556836    -0.273321    -1.884433
Gh(H)      2.745727     0.656644    -1.914035
Gh(H)      1.812438    -0.439596    -1.281958
Gh(O)      0.128714     1.450045    -3.075572
Gh(H)     -0.229456     0.608282    -2.936136
Gh(H)     -0.138427     1.712452    -3.979438
Gh(O)     -2.771257    -1.686210    -0.586807
Gh(H)     -3.517746    -1.038339    -0.414869
Gh(H)     -1.928754    -1.210524    -0.518702
O          0.192091    -2.999964     0.775908
H         -0.347009    -3.250786     1.545106
H         -0.004976    -2.092468     0.545800

units ang
no_reorient
no_com
symmetry c1
}

set {
basis        aug-cc-pVTZ
scf_type     df
}

energy("mp2")
--------------------------------------------------------------------------

    Molecular point group: c1

    Geometry (in Angstrom), charge = 0, multiplicity = 1:

       Center              X                  Y                   Z               Mass
    ------------   -----------------  -----------------  -----------------  -----------------
      Gh(CL)          0.000000000000     0.000000000000     0.000000000000    34.968852682000
      Gh(O)          -2.600905000000     1.445698000000    -1.428595000000    15.994914619570
      Gh(H)          -1.790172000000     1.295780000000    -0.990803000000     1.007825032230
      Gh(H)          -3.218459000000     1.075372000000    -0.808474000000     1.007825032230
      Gh(O)           2.556836000000    -0.273321000000    -1.884433000000    15.994914619570
      Gh(H)           2.745727000000     0.656644000000    -1.914035000000     1.007825032230
      Gh(H)           1.812438000000    -0.439596000000    -1.281958000000     1.007825032230
      Gh(O)           0.128714000000     1.450045000000    -3.075572000000    15.994914619570
      Gh(H)          -0.229456000000     0.608282000000    -2.936136000000     1.007825032230
      Gh(H)          -0.138427000000     1.712452000000    -3.979438000000     1.007825032230
      Gh(O)          -2.771257000000    -1.686210000000    -0.586807000000    15.994914619570
      Gh(H)          -3.517746000000    -1.038339000000    -0.414869000000     1.007825032230
      Gh(H)          -1.928754000000    -1.210524000000    -0.518702000000     1.007825032230
         O            0.192091000000    -2.999964000000     0.775908000000    15.994914619570
         H           -0.347009000000    -3.250786000000     1.545106000000     1.007825032230
         H           -0.004976000000    -2.092468000000     0.545800000000     1.007825032230

  Charge       = 0
  Multiplicity = 1
  Basis Set: AUG-CC-PVTZ
    Blend: AUG-CC-PVTZ
  Basis Set: (AUG-CC-PVTZ AUX)
    Blend: AUG-CC-PVTZ-JKFIT

    Orbital Energies [Eh]
    ---------------------

    Doubly Occupied:

       1A    -20.566486     2A     -1.346972     3A     -0.721666
       4A     -0.575342     5A     -0.508486

  @DF-RHF Final Energy:   -76.05974550282399

   => Energetics <=

    Nuclear Repulsion Energy =              9.1168499234405207
    One-Electron Energy =                -122.9152824290957540
    Two-Electron Energy =                  37.7386870028312273
    Total Energy =                        -76.0597455028240006
 Dipole X            :         -2.7321350            2.2388398           -0.4932952
 Dipole Y            :         55.8930718          -55.4501694            0.4429024
 Dipole Z            :        -15.3209699           15.6812686            0.3602988
 Magnitude           :                                                    0.7545316
  Basis Set: (AUG-CC-PVTZ AUX)
    Blend: AUG-CC-PVTZ-RI
	 Reference Energy          =     -76.0597455028239864 [Eh]
	 Singles Energy            =      -0.0000000000000000 [Eh]
	 Same-Spin Energy          =      -0.0684620320076832 [Eh]
	 Opposite-Spin Energy      =      -0.2161143769393577 [Eh]
	 Correlation Energy        =      -0.2845764089470409 [Eh]
	 Total Energy              =     -76.3443219117710328 [Eh]

	 ================> DF-SCS-MP2 Energies <==================
	-----------------------------------------------------------
	 SCS Same-Spin Scale       =       0.3333333333333333 [-]
	 SCS Opposite-Spin Scale   =       1.2000000000000000 [-]
	 SCS Same-Spin Energy      =      -0.0228206773358944 [Eh]
	 SCS Opposite-Spin Energy  =      -0.2593372523272292 [Eh]
	 SCS Correlation Energy    =      -0.2821579296631236 [Eh]
	 SCS Total Energy          =     -76.3419034324871149 [Eh]
	-----------------------------------------------------------

*** Psi4 exiting successfully. Buy a developer a beer!
