                               Psi4 1.8.2 release

  ==> Input File <==

--------------------------------------------------------------------------
MEMORY 60 GB

molecule dimer {
-1 1
Cl         0.000000     0.000000     0.000000
Gh(O)      2.710010     1.677585    -1.071771
Gh(H)      3.152698     1.550298    -0.212812
Gh(H)      1.765317     1.467364    -1.015440
Gh(O)     -3.102038    -0.017194    -1.525341
Gh(H)     -3.358242     0.887782    -1.519567
Gh(H)     -2.125200    -0.019232    -1.246653
Gh(O)     -1.292965     2.960221    -0.132286
Gh(H)     -0.950528     3.448108    -0.917646
Gh(H)     -0.726725     2.174558    -0.058260

units ang
no_reorient
no_com
symmetry c1
}

set {
basis        aug-cc-pVTZ
scf_type     df
}

energy("mp2")
--------------------------------------------------------------------------

    Molecular point group: c1

    Geometry (in Angstrom), charge = -1, multiplicity = 1:

       Center              X                  Y                   Z               Mass
    ------------   -----------------  -----------------  -----------------  -----------------
         CL           0.000000000000     0.000000000000     0.000000000000    34.968852682000
      Gh(O)           2.710010000000     1.677585000000    -1.071771000000    15.994914619570
      Gh(H)           3.152698000000     1.550298000000    -0.212812000000     1.007825032230
      Gh(H)           1.765317000000     1.467364000000    -1.015440000000     1.007825032230
      Gh(O)          -3.102038000000    -0.017194000000    -1.525341000000    15.994914619570
      Gh(H)          -3.358242000000     0.887782000000    -1.519567000000     1.007825032230
      Gh(H)          -2.125200000000    -0.019232000000    -1.246653000000     1.007825032230
      Gh(O)          -1.292965000000     2.960221000000    -0.132286000000    15.994914619570
      Gh(H)          -0.950528000000     3.448108000000    -0.917646000000     1.007825032230
      Gh(H)          -0.726725000000     2.174558000000    -0.058260000000     1.007825032230

  Charge       = -1
  Multiplicity = 1
  Basis Set: AUG-CC-PVTZ
    Blend: AUG-CC-PVTZ
  Basis Set: (AUG-CC-PVTZ AUX)
    Blend: AUG-CC-PVTZ-JKFIT

    Orbital Energies [Eh]
    ---------------------

    Doubly Occupied:

       1A   -104.506763     2A    -10.229939     3A     -7.696010
       4A     -7.695980     5A     -7.695977     6A     -0.733486
       7A     -0.150323     8A     -0.150321     9A     -0.150316

  @DF-RHF Final Energy:  -459.57353859793136

   => Energetics <=

    Nuclear Repulsion Energy =              0.0000000000000000
    One-Electron Energy =                -641.1288578741672382
    Two-Electron Energy =                 181.5553192762358776
    Total Energy =                       -459.5735385979313605
 Dipole X            :         -0.0003421            0.0000000           -0.0003421
 Dipole Y            :          0.0005486            0.0000000            0.0005486
 Dipole Z            :         -0.0003490            0.0000000           -0.0003490
 Magnitude           :                                                    0.0007347
  Basis Set: (AUG-CC-PVTZ AUX)
    Blend: AUG-CC-PVTZ-RI
	 Reference Energy          =    -459.5735385979313605 [Eh]
	 Singles Energy            =      -0.0000000000000000 [Eh]
	 Same-Spin Energy          =      -0.0630116389234932 [Eh]
	 Opposite-Spin Energy      =      -0.1816680220148317 [Eh]
	 Correlation Energy        =      -0.2446796609383249 [Eh]
	 Total Energy              =    -459.8182182588697060 [Eh]

	 ================> DF-SCS-MP2 Energies <==================
	-----------------------------------------------------------
	 SCS Same-Spin Scale       =       0.3333333333333333 [-]
	 SCS Opposite-Spin Scale   =       1.2000000000000000 [-]
	 SCS Same-Spin Energy      =      -0.0210038796411644 [Eh]
	 SCS Opposite-Spin Energy  =      -0.2180016264177981 [Eh]
	 SCS Correlation Energy    =      -0.2390055060589625 [Eh]
	 SCS Total Energy          =    -459.8125441039903194 [Eh]
	-----------------------------------------------------------

*** Psi4 exiting successfully. Buy a developer a beer!
