                               Psi4 1.8.2 release

  ==> Input File <==

--------------------------------------------------------------------------
MEMORY 60 GB

molecule dimer {
-1 1
Cl         0.000000     0.000000     0.000000
O         -2.944867    -0.564899    -1.779154
H         -3.524928     0.182418    -1.593240
H         -2.264671    -0.498491    -1.118838
O         -2.727221     1.269441     1.357269
H         -2.050786     0.651012     1.147961
H         -3.477837     0.948943     0.929990
O          2.085863     1.943286     1.689448
H          2.901729     2.319648     1.384240
H          1.848548     1.201502     1.097555
O          0.575664    -2.444183     2.291224
H          0.275698    -1.738441     1.676952
H         -0.166814    -2.631813     2.907550
O         -0.427516     3.289022     1.005525
H         -0.401676     2.496842     0.384779
H          0.441407     3.173898     1.412293

units ang
no_reorient
no_com
symmetry c1
}

set {
basis        aug-cc-pVTZ
scf_type     df
}

energy("mp2")
--------------------------------------------------------------------------

    Molecular point group: c1

    Geometry (in Angstrom), charge = -1, multiplicity = 1:

       Center              X                  Y                   Z               Mass
    ------------   -----------------  -----------------  -----------------  -----------------
         CL           0.000000000000     0.000000000000     0.000000000000    34.968852682000
         O           -2.944867000000    -0.564899000000    -1.779154000000    15.994914619570
         H           -3.524928000000     0.182418000000    -1.593240000000     1.007825032230
         H           -2.264671000000    -0.498491000000    -1.118838000000     1.007825032230
         O           -2.727221000000     1.269441000000     1.357269000000    15.994914619570
         H           -2.050786000000     0.651012000000     1.147961000000     1.007825032230
         H           -3.477837000000     0.948943000000     0.929990000000     1.007825032230
         O            2.085863000000     1.943286000000     1.689448000000    15.994914619570
         H            2.901729000000     2.319648000000     1.384240000000     1.007825032230
         H            1.848548000000     1.201502000000     1.097555000000     1.007825032230
         O            0.575664000000    -2.444183000000     2.291224000000    15.994914619570
         H            0.275698000000    -1.738441000000     1.676952000000     1.007825032230
         H           -0.166814000000    -2.631813000000     2.907550000000     1.007825032230
         O           -0.427516000000     3.289022000000     1.005525000000    15.994914619570
         H           -0.401676000000     2.496842000000     0.384779000000     1.007825032230
         H            0.441407000000     3.173898000000     1.412293000000     1.007825032230

  Charge       = -1
  Multiplicity = 1
  Basis Set: AUG-CC-PVTZ
    Blend: AUG-CC-PVTZ
  Basis Set: (AUG-CC-PVTZ AUX)
    Blend: AUG-CC-PVTZ-JKFIT

    Orbital Energies [Eh]
    ---------------------

    Doubly Occupied:

       1A   -104.587079     2A    -20.438838     3A    -20.436276
       4A    -20.426320     5A    -20.415251     6A    -20.391208
       7A    -10.311835     8A     -7.777977     9A     -7.777922
      10A     -7.777885    11A     -1.225359    12A     -1.225056
      13A     -1.222887    14A     -1.197296    15A     -1.165376
      16A     -0.827216    17A     -0.597153    18A     -0.590317
      19A     -0.586526    20A     -0.568044    21A     -0.518294
      22A     -0.462554    23A     -0.456737    24A     -0.444324
      25A     -0.436610    26A     -0.424731    27A     -0.381941
      28A     -0.377297    29A     -0.369131    30A     -0.366646
      31A     -0.331410    32A     -0.243469    33A     -0.239974
      34A     -0.237275

  @DF-RHF Final Energy:  -839.92758552945088

   => Energetics <=

    Nuclear Repulsion Energy =            302.0930877531123997
    One-Electron Energy =               -1774.3689138695001475
    Two-Electron Energy =                 632.3482405869367540
    Total Energy =                       -839.9275855294508801
 Dipole X            :         64.8224374          -64.1069670            0.7154704
 Dipole Y            :        -65.1539355           64.3392295           -0.8147060
 Dipole Z            :        -85.5181315           84.5534106           -0.9647209
 Magnitude           :                                                    1.4513201
  Basis Set: (AUG-CC-PVTZ AUX)
    Blend: AUG-CC-PVTZ-RI
	 Reference Energy          =    -839.9275855294508801 [Eh]
	 Singles Energy            =      -0.0000000000000000 [Eh]
	 Same-Spin Energy          =      -0.4157415492601101 [Eh]
	 Opposite-Spin Energy      =      -1.2713582292571661 [Eh]
	 Correlation Energy        =      -1.6870997785172763 [Eh]
	 Total Energy              =    -841.6146853079681023 [Eh]

	 ================> DF-SCS-MP2 Energies <==================
	-----------------------------------------------------------
	 SCS Same-Spin Scale       =       0.3333333333333333 [-]
	 SCS Opposite-Spin Scale   =       1.2000000000000000 [-]
	 SCS Same-Spin Energy      =      -0.1385805164200367 [Eh]
	 SCS Opposite-Spin Energy  =      -1.5256298751085993 [Eh]
	 SCS Correlation Energy    =      -1.6642103915286359 [Eh]
	 SCS Total Energy          =    -841.5917959209795072 [Eh]
	-----------------------------------------------------------

*** Psi4 exiting successfully. Buy a developer a beer!
