                               Psi4 1.8.2 release

  ==> Input File <==

--------------------------------------------------------------------------
MEMORY 60 GB

molecule dimer {
0 1
Gh(Cl)     0.000000     0.000000     0.000000
Gh(O)      1.279422     1.813072     2.395684
Gh(H)      0.682919     1.310388     1.792513
Gh(H)      1.966367     1.174297     2.713761
Gh(O)      0.654636     0.433879    -3.071352
Gh(H)      0.416601     0.627639    -2.150429
Gh(H)      1.079299    -0.421006    -3.057450
Gh(O)     -2.751681    -1.662134    -0.715478
Gh(H)     -1.767176    -1.405085    -0.782986
Gh(H)     -2.615721    -2.522329    -0.314722
O         -0.054526    -2.456372     1.915545
H         -0.644121    -2.325736     2.724853
H         -0.025853    -1.607846     1.466047

units ang
no_reorient
no_com
symmetry c1
}

set {
basis        aug-cc-pVTZ
scf_type     df
}

energy("mp2")
--------------------------------------------------------------------------

    Molecular point group: c1

    Geometry (in Angstrom), charge = 0, multiplicity = 1:

       Center              X                  Y                   Z               Mass
    ------------   -----------------  -----------------  -----------------  -----------------
      Gh(CL)          0.000000000000     0.000000000000     0.000000000000    34.968852682000
      Gh(O)           1.279422000000     1.813072000000     2.395684000000    15.994914619570
      Gh(H)           0.682919000000     1.310388000000     1.792513000000     1.007825032230
      Gh(H)           1.966367000000     1.174297000000     2.713761000000     1.007825032230
      Gh(O)           0.654636000000     0.433879000000    -3.071352000000    15.994914619570
      Gh(H)           0.416601000000     0.627639000000    -2.150429000000     1.007825032230
      Gh(H)           1.079299000000    -0.421006000000    -3.057450000000     1.007825032230
      Gh(O)          -2.751681000000    -1.662134000000    -0.715478000000    15.994914619570
      Gh(H)          -1.767176000000    -1.405085000000    -0.782986000000     1.007825032230
      Gh(H)          -2.615721000000    -2.522329000000    -0.314722000000     1.007825032230
         O           -0.054526000000    -2.456372000000     1.915545000000    15.994914619570
         H           -0.644121000000    -2.325736000000     2.724853000000     1.007825032230
         H           -0.025853000000    -1.607846000000     1.466047000000     1.007825032230

  Charge       = 0
  Multiplicity = 1
  Basis Set: AUG-CC-PVTZ
    Blend: AUG-CC-PVTZ
  Basis Set: (AUG-CC-PVTZ AUX)
    Blend: AUG-CC-PVTZ-JKFIT

    Orbital Energies [Eh]
    ---------------------

    Doubly Occupied:

       1A    -20.571114     2A     -1.339006     3A     -0.705912
       4A     -0.576163     5A     -0.507649

  @DF-RHF Final Energy:   -76.05634144946272

   => Energetics <=

    Nuclear Repulsion Energy =              8.9350515656708769
    One-Electron Energy =                -122.5830945736034749
    Two-Electron Energy =                  37.5917015584698788
    Total Energy =                        -76.0563414494627210
 Dipole X            :          1.7252008           -2.0903810           -0.3651802
 Dipole Y            :         45.2159428          -44.5683554            0.6475874
 Dipole Z            :        -36.6484316           36.8784967            0.2300650
 Magnitude           :                                                    0.7782390
  Basis Set: (AUG-CC-PVTZ AUX)
    Blend: AUG-CC-PVTZ-RI
	 Reference Energy          =     -76.0563414494627210 [Eh]
	 Singles Energy            =      -0.0000000000000000 [Eh]
	 Same-Spin Energy          =      -0.0688382554658080 [Eh]
	 Opposite-Spin Energy      =      -0.2172890975916319 [Eh]
	 Correlation Energy        =      -0.2861273530574399 [Eh]
	 Total Energy              =     -76.3424688025201590 [Eh]

	 ================> DF-SCS-MP2 Energies <==================
	-----------------------------------------------------------
	 SCS Same-Spin Scale       =       0.3333333333333333 [-]
	 SCS Opposite-Spin Scale   =       1.2000000000000000 [-]
	 SCS Same-Spin Energy      =      -0.0229460851552693 [Eh]
	 SCS Opposite-Spin Energy  =      -0.2607469171099583 [Eh]
	 SCS Correlation Energy    =      -0.2836930022652276 [Eh]
	 SCS Total Energy          =     -76.3400344517279450 [Eh]
	-----------------------------------------------------------

*** Psi4 exiting successfully. Buy a developer a beer!
