                               Psi4 1.9 release

  ==> Input File <==

--------------------------------------------------------------------------
MEMORY 60 GB

molecule dimer {
-1 1
Cl     0.000000     0.000000     0.000000
--
0 1
O     -0.769529    -2.966252     1.114406
H     -0.491011    -2.049040     1.060829
H     -0.099668    -3.431801     1.746687
O     -2.572451     0.785674     2.137195
H     -2.971007    -0.007188     2.353863
H     -1.967522     0.455536     1.391827
O      0.248544     0.677850     3.199615
H      0.085963     0.586761     2.244952
H      0.904498     1.336920     3.314940
O      1.375017     2.839319     0.546590
H      0.925526     1.985155     0.440289
H      1.962844     2.854615    -0.199516
O      2.555530    -2.187632     0.855224
H      2.277326    -2.669991     1.647633
H      1.863637    -1.523641     0.765483

units ang
no_reorient
no_com
symmetry c1
}

set {
basis        aug-cc-pVTZ
scf_type     df
}

energy("mp2", bsse_type="cp")
--------------------------------------------------------------------------

                               Psi4 1.9 release
    Molecular point group: c1
  Charge       = 0
  Multiplicity = 1
  Basis Set: AUG-CC-PVTZ
    Blend: AUG-CC-PVTZ
  Basis Set: (AUG-CC-PVTZ AUX)
    Blend: AUG-CC-PVTZ-JKFIT
  @DF-RHF Final Energy:  -380.27134980937427
    Total Energy =                       -380.2713498093742714
 Dipole X            :        -16.8518209           17.3618096            0.5099888
 Dipole Y            :         17.0988808          -17.5196547           -0.4207739
 Dipole Z            :       -147.1322514          146.6261688           -0.5060826
 Magnitude           :                                                    0.8326217
  Basis Set: (AUG-CC-PVTZ AUX)
    Blend: AUG-CC-PVTZ-RI
	 Reference Energy          =    -380.2713498093742714 [Eh]
	 Singles Energy            =      -0.0000000000000000 [Eh]
	 Same-Spin Energy          =      -0.3451306275888312 [Eh]
	 Opposite-Spin Energy      =      -1.0854612053970121 [Eh]
	 Correlation Energy        =      -1.4305918329858431 [Eh]
	 Total Energy              =    -381.7019416423601115 [Eh]
	 SCS Total Energy          =    -381.6889467983803002 [Eh]
                               Psi4 1.9 release
    Molecular point group: c1
  Multiplicity = 1
  Basis Set: AUG-CC-PVTZ
    Blend: AUG-CC-PVTZ
  Basis Set: (AUG-CC-PVTZ AUX)
    Blend: AUG-CC-PVTZ-JKFIT
  @DF-RHF Final Energy:  -459.57357674860953
    Total Energy =                       -459.5735767486095256
  Basis Set: (AUG-CC-PVTZ AUX)
	 Singles Energy            =      -0.0000000000000000 [Eh]
	 Same-Spin Energy          =      -0.0635444639356920 [Eh]
	 Opposite-Spin Energy      =      -0.1838132034043334 [Eh]
	 Correlation Energy        =      -0.2473576673400254 [Eh]
	 Total Energy              =    -459.8209344159495231 [Eh]
	 SCS Total Energy          =    -459.8153340806732672 [Eh]
                               Psi4 1.9 release
    Molecular point group: c1

    Geometry (in Bohr), charge = -1, multiplicity = 1:

       Center              X                  Y                   Z               Mass
    ------------   -----------------  -----------------  -----------------  -----------------
         CL           0.000000000000     0.000000000000     0.000000000000    34.968852682000
         O           -1.454199055597    -5.605403899092     2.105922132567    15.994914619570
         H           -0.927876314587    -3.872124420108     2.004676275943     1.007825032230
         H           -0.188345223472    -6.485164007072     3.300760056898     1.007825032230
         O           -4.861227861160     1.484708683893     4.038713226698    15.994914619570
         H           -5.614389546818    -0.013583351390     4.448156406849     1.007825032230
         H           -3.718077725813     0.860838280287     2.630171844018     1.007825032230
         O            0.469680090126     1.280950854142     6.046396056907    15.994914619570
         H            0.162446526923     1.108817591100     4.242344444799     1.007825032230
         H            1.709253501024     2.526412651647     6.264328722325     1.007825032230
         O            2.598405547849     5.365535292809     1.032905402914    15.994914619570
         H            1.748990661990     3.751399266583     0.832025626052     1.007825032230
         H            3.709237586998     5.394440543624    -0.377030597647     1.007825032230
         O            4.829251805391    -4.134025343288     1.616139135919    15.994914619570
         H            4.303522438384    -5.045551747437     3.113575125266     1.007825032230
         H            3.521763527270    -2.879264203519     1.446553223694     1.007825032230

  Charge       = -1
  Multiplicity = 1
  Basis Set: AUG-CC-PVTZ
    Blend: AUG-CC-PVTZ
  Basis Set: (AUG-CC-PVTZ AUX)
    Blend: AUG-CC-PVTZ-JKFIT

    Orbital Energies [Eh]
    ---------------------

    Doubly Occupied:

       1A   -104.597811     2A    -20.435628     3A    -20.435468
       4A    -20.417885     5A    -20.415039     6A    -20.404625
       7A    -10.322942     8A     -7.789033     9A     -7.789009
      10A     -7.788978    11A     -1.218930    12A     -1.207279
      13A     -1.206278    14A     -1.199529    15A     -1.196006
      16A     -0.841833    17A     -0.578372    18A     -0.573624
      19A     -0.568576    20A     -0.564966    21A     -0.551604
      22A     -0.462573    23A     -0.447910    24A     -0.445883
      25A     -0.439607    26A     -0.427346    27A     -0.381645
      28A     -0.369961    29A     -0.367261    30A     -0.365067
      31A     -0.346551    32A     -0.253672    33A     -0.252038
      34A     -0.250734

  @DF-RHF Final Energy:  -839.92091250256237

   => Energetics <=

    Nuclear Repulsion Energy =            310.4562612404452011
    One-Electron Energy =               -1790.9270176282491320
    Two-Electron Energy =                 640.5498438852415575
    Total Energy =                       -839.9209125025623734
 Dipole X            :        -16.9814816           17.3618096            0.3803280
 Dipole Y            :         17.0909714          -17.5196547           -0.4286833
 Dipole Z            :       -148.0908852          146.6261688           -1.4647165
 Magnitude           :                                                    1.5728360
  Basis Set: (AUG-CC-PVTZ AUX)
    Blend: AUG-CC-PVTZ-RI
	 Reference Energy          =    -839.9209125025623734 [Eh]
	 Singles Energy            =      -0.0000000000000000 [Eh]
	 Same-Spin Energy          =      -0.4172768395788195 [Eh]
	 Opposite-Spin Energy      =      -1.2748586215027691 [Eh]
	 Correlation Energy        =      -1.6921354610815886 [Eh]
	 Total Energy              =    -841.6130479636439077 [Eh]

	 ================> DF-SCS-MP2 Energies <==================
	-----------------------------------------------------------
	 SCS Same-Spin Scale       =       0.3333333333333333 [-]
	 SCS Opposite-Spin Scale   =       1.2000000000000000 [-]
	 SCS Same-Spin Energy      =      -0.1390922798596065 [Eh]
	 SCS Opposite-Spin Energy  =      -1.5298303458033229 [Eh]
	 SCS Correlation Energy    =      -1.6689226256629293 [Eh]
	 SCS Total Energy          =    -841.5898351282253316 [Eh]
	-----------------------------------------------------------

*** Psi4 exiting successfully. Buy a developer a beer!
