                               Psi4 1.8.2 release

  ==> Input File <==

--------------------------------------------------------------------------
MEMORY 60 GB

molecule dimer {
-1 1
Cl         0.000000     0.000000     0.000000
O          3.283874     0.023914     0.066002
H          2.312251    -0.077803    -0.109892
H          3.539398     0.361898    -0.833054
O         -0.063433     0.767355    -3.215659
H          0.774290     0.372773    -3.374160
H         -0.183096     0.530838    -2.284812
O         -0.156099    -2.335974    -2.061858
H         -0.228404    -1.613551    -1.460921
H          0.568802    -2.828920    -1.752202
O          1.706919    -0.782022     2.837503
H          2.308159    -0.635102     2.121010
H          1.957319    -0.183287     3.612115
O         -2.623918     1.199652    -1.550824
H         -2.518364     2.157209    -1.867397
H         -1.847456     0.943078    -1.098054
O          1.334315     2.964091    -0.575831
H          1.001079     2.053987    -0.510309
H          0.576362     3.472885    -0.217357

units ang
no_reorient
no_com
symmetry c1
}

set {
basis        aug-cc-pVTZ
scf_type     df
}

energy("mp2")
--------------------------------------------------------------------------

    Molecular point group: c1

    Geometry (in Angstrom), charge = -1, multiplicity = 1:

       Center              X                  Y                   Z               Mass
    ------------   -----------------  -----------------  -----------------  -----------------
         CL           0.000000000000     0.000000000000     0.000000000000    34.968852682000
         O            3.283874000000     0.023914000000     0.066002000000    15.994914619570
         H            2.312251000000    -0.077803000000    -0.109892000000     1.007825032230
         H            3.539398000000     0.361898000000    -0.833054000000     1.007825032230
         O           -0.063433000000     0.767355000000    -3.215659000000    15.994914619570
         H            0.774290000000     0.372773000000    -3.374160000000     1.007825032230
         H           -0.183096000000     0.530838000000    -2.284812000000     1.007825032230
         O           -0.156099000000    -2.335974000000    -2.061858000000    15.994914619570
         H           -0.228404000000    -1.613551000000    -1.460921000000     1.007825032230
         H            0.568802000000    -2.828920000000    -1.752202000000     1.007825032230
         O            1.706919000000    -0.782022000000     2.837503000000    15.994914619570
         H            2.308159000000    -0.635102000000     2.121010000000     1.007825032230
         H            1.957319000000    -0.183287000000     3.612115000000     1.007825032230
         O           -2.623918000000     1.199652000000    -1.550824000000    15.994914619570
         H           -2.518364000000     2.157209000000    -1.867397000000     1.007825032230
         H           -1.847456000000     0.943078000000    -1.098054000000     1.007825032230
         O            1.334315000000     2.964091000000    -0.575831000000    15.994914619570
         H            1.001079000000     2.053987000000    -0.510309000000     1.007825032230
         H            0.576362000000     3.472885000000    -0.217357000000     1.007825032230

  Charge       = -1
  Multiplicity = 1
  Basis Set: AUG-CC-PVTZ
    Blend: AUG-CC-PVTZ
  Basis Set: (AUG-CC-PVTZ AUX)
    Blend: AUG-CC-PVTZ-JKFIT

    Orbital Energies [Eh]
    ---------------------

    Doubly Occupied:

       1A   -104.599788     2A    -20.444309     3A    -20.438292
       4A    -20.427390     5A    -20.418163     6A    -20.411567
       7A    -20.407338     8A    -10.325381     9A     -7.791430
      10A     -7.791420    11A     -7.791406    12A     -1.214876
      13A     -1.213792    14A     -1.209922    15A     -1.207070
      16A     -1.205193    17A     -1.195950    18A     -0.847565
      19A     -0.589408    20A     -0.581505    21A     -0.574325
      22A     -0.563656    23A     -0.557586    24A     -0.557031
      25A     -0.471518    26A     -0.452225    27A     -0.447703
      28A     -0.442030    29A     -0.441332    30A     -0.428930
      31A     -0.384332    32A     -0.378025    33A     -0.371306
      34A     -0.365318    35A     -0.360809    36A     -0.353472
      37A     -0.257908    38A     -0.255479    39A     -0.253577

  @DF-RHF Final Energy:  -915.97825109713949

   => Energetics <=

    Nuclear Repulsion Energy =            405.7958581484783167
    One-Electron Energy =               -2087.4915563318177192
    Two-Electron Energy =                 765.7174470861998543
    Total Energy =                       -915.9782510971394913
 Dipole X            :        -67.6900453           68.2448210            0.5547757
 Dipole Y            :        -36.0571972           36.3774792            0.3202820
 Dipole Z            :         84.2183289          -82.7329071            1.4854218
 Magnitude           :                                                    1.6176633
  Basis Set: (AUG-CC-PVTZ AUX)
    Blend: AUG-CC-PVTZ-RI
	 Reference Energy          =    -915.9782510971394913 [Eh]
	 Singles Energy            =      -0.0000000000000000 [Eh]
	 Same-Spin Energy          =      -0.4886812113249658 [Eh]
	 Opposite-Spin Energy      =      -1.4953129420957001 [Eh]
	 Correlation Energy        =      -1.9839941534206660 [Eh]
	 Total Energy              =    -917.9622452505601586 [Eh]

	 ================> DF-SCS-MP2 Energies <==================
	-----------------------------------------------------------
	 SCS Same-Spin Scale       =       0.3333333333333333 [-]
	 SCS Opposite-Spin Scale   =       1.2000000000000000 [-]
	 SCS Same-Spin Energy      =      -0.1628937371083219 [Eh]
	 SCS Opposite-Spin Energy  =      -1.7943755305148401 [Eh]
	 SCS Correlation Energy    =      -1.9572692676231620 [Eh]
	 SCS Total Energy          =    -917.9355203647626240 [Eh]
	-----------------------------------------------------------

*** Psi4 exiting successfully. Buy a developer a beer!
