                               Psi4 1.9 release

  ==> Input File <==

--------------------------------------------------------------------------
MEMORY 60 GB

molecule dimer {
-1 1
Cl     0.000000     0.000000     0.000000
--
0 1
O      1.572535     2.984313     0.080535
H      2.483152     2.774963     0.044021
H      1.091164     2.083829     0.086158
O     -2.519770     0.473353     1.764939
H     -1.730664     0.352182     1.242951
H     -2.351355     1.328225     2.177357
O      1.097544    -1.383699     2.955254
H      0.572761    -1.058492     3.732723
H      0.582499    -1.021529     2.224847
O     -2.152007     2.124199    -0.978722
H     -1.802804     1.460648    -0.427201
H     -1.664805     1.959459    -1.761428
O      2.011060     0.105217    -2.783367
H      1.274497     0.182662    -2.166724
H      2.754003    -0.550445    -2.510663

units ang
no_reorient
no_com
symmetry c1
}

set {
basis        aug-cc-pVTZ
scf_type     df
}

energy("mp2", bsse_type="cp")
--------------------------------------------------------------------------

                               Psi4 1.9 release
    Molecular point group: c1
  Charge       = 0
  Multiplicity = 1
  Basis Set: AUG-CC-PVTZ
    Blend: AUG-CC-PVTZ
  Basis Set: (AUG-CC-PVTZ AUX)
    Blend: AUG-CC-PVTZ-JKFIT
  @DF-RHF Final Energy:  -380.27260500573823
    Total Energy =                       -380.2726050057382281
 Dipole X            :         -1.6774555            2.4251687            0.7477132
 Dipole Y            :        -79.9078253           79.2524038           -0.6554215
 Dipole Z            :        -20.3021602           20.6946799            0.3925197
 Magnitude           :                                                    1.0689827
  Basis Set: (AUG-CC-PVTZ AUX)
    Blend: AUG-CC-PVTZ-RI
	 Reference Energy          =    -380.2726050057382281 [Eh]
	 Singles Energy            =      -0.0000000000000000 [Eh]
	 Same-Spin Energy          =      -0.3446030987439404 [Eh]
	 Opposite-Spin Energy      =      -1.0847549639223273 [Eh]
	 Correlation Energy        =      -1.4293580626662676 [Eh]
	 Total Energy              =    -381.7019630684044955 [Eh]
	 SCS Total Energy          =    -381.6891786620263360 [Eh]
                               Psi4 1.9 release
    Molecular point group: c1
  Multiplicity = 1
  Basis Set: AUG-CC-PVTZ
    Blend: AUG-CC-PVTZ
  Basis Set: (AUG-CC-PVTZ AUX)
    Blend: AUG-CC-PVTZ-JKFIT
  @DF-RHF Final Energy:  -459.57357646761739
    Total Energy =                       -459.5735764676173858
  Basis Set: (AUG-CC-PVTZ AUX)
	 Singles Energy            =      -0.0000000000000000 [Eh]
	 Same-Spin Energy          =      -0.0635094970557351 [Eh]
	 Opposite-Spin Energy      =      -0.1837419124676000 [Eh]
	 Correlation Energy        =      -0.2472514095233352 [Eh]
	 Total Energy              =    -459.8208278771407436 [Eh]
	 SCS Total Energy          =    -459.8152365949304112 [Eh]
                               Psi4 1.9 release
    Molecular point group: c1

    Geometry (in Bohr), charge = -1, multiplicity = 1:

       Center              X                  Y                   Z               Mass
    ------------   -----------------  -----------------  -----------------  -----------------
         CL           0.000000000000     0.000000000000     0.000000000000    34.968852682000
         O            2.971660472697     5.639534242643     0.152189093514    15.994914619570
         H            4.692477207883     5.243920078279     0.083187633769     1.007825032230
         H            2.062001117959     3.937866102287     0.162815023517     1.007825032230
         O           -4.761675199145     0.894507530664     3.335251338139    15.994914619570
         H           -3.270480975189     0.665527526316     2.348836977364     1.007825032230
         H           -4.443416973726     2.509981482986     4.114608407348     1.007825032230
         O            2.074057570639    -2.614812150070     5.584620691164    15.994914619570
         H            1.082361425343    -2.000259985988     7.053824172197     1.007825032230
         H            1.100763578353    -1.930410039213     4.204351501046     1.007825032230
         O           -4.066703850068     4.014154345971    -1.849516532960    15.994914619570
         H           -3.406805817880     2.760224685698    -0.807292890522     1.007825032230
         H           -3.146025502293     3.702840864063    -3.328616509713     1.007825032230
         O            3.800352621863     0.198831313742    -5.259801336637    15.994914619570
         H            2.408450277718     0.345181153528    -4.094514949456     1.007825032230
         H            5.204311418689    -1.040190297128    -4.744465463320     1.007825032230

  Charge       = -1
  Multiplicity = 1
  Basis Set: AUG-CC-PVTZ
    Blend: AUG-CC-PVTZ
  Basis Set: (AUG-CC-PVTZ AUX)
    Blend: AUG-CC-PVTZ-JKFIT

    Orbital Energies [Eh]
    ---------------------

    Doubly Occupied:

       1A   -104.600036     2A    -20.436943     3A    -20.435460
       4A    -20.419241     5A    -20.418362     6A    -20.406748
       7A    -10.325468     8A     -7.791595     9A     -7.791528
      10A     -7.791498    11A     -1.215972    12A     -1.211737
      13A     -1.209034    14A     -1.197782    15A     -1.197294
      16A     -0.845397    17A     -0.586489    18A     -0.574785
      19A     -0.566484    20A     -0.563727    21A     -0.561940
      22A     -0.457703    23A     -0.452144    24A     -0.447689
      25A     -0.436633    26A     -0.429289    27A     -0.377093
      28A     -0.374386    29A     -0.367155    30A     -0.362207
      31A     -0.359124    32A     -0.258267    33A     -0.254435
      34A     -0.252931

  @DF-RHF Final Energy:  -839.92304493058862

   => Energetics <=

    Nuclear Repulsion Energy =            300.6042716847347265
    One-Electron Energy =               -1771.1014737361929292
    Two-Electron Energy =                 630.5741571208696996
    Total Energy =                       -839.9230449305886168
 Dipole X            :         -1.5995191            2.4251687            0.8256495
 Dipole Y            :        -80.4784550           79.2524038           -1.2260511
 Dipole Z            :        -20.5008877           20.6946799            0.1937922
 Magnitude           :                                                    1.4907897
  Basis Set: (AUG-CC-PVTZ AUX)
    Blend: AUG-CC-PVTZ-RI
	 Reference Energy          =    -839.9230449305886168 [Eh]
	 Singles Energy            =      -0.0000000000000000 [Eh]
	 Same-Spin Energy          =      -0.4164986138829837 [Eh]
	 Opposite-Spin Energy      =      -1.2737276882136663 [Eh]
	 Correlation Energy        =      -1.6902263020966499 [Eh]
	 Total Energy              =    -841.6132712326852925 [Eh]

	 ================> DF-SCS-MP2 Energies <==================
	-----------------------------------------------------------
	 SCS Same-Spin Scale       =       0.3333333333333333 [-]
	 SCS Opposite-Spin Scale   =       1.2000000000000000 [-]
	 SCS Same-Spin Energy      =      -0.1388328712943279 [Eh]
	 SCS Opposite-Spin Energy  =      -1.5284732258563996 [Eh]
	 SCS Correlation Energy    =      -1.6673060971507274 [Eh]
	 SCS Total Energy          =    -841.5903510277393025 [Eh]
	-----------------------------------------------------------

*** Psi4 exiting successfully. Buy a developer a beer!
