                               Psi4 1.8.2 release

  ==> Input File <==

--------------------------------------------------------------------------
MEMORY 60 GB

molecule dimer {
-1 1
Cl         0.000000     0.000000     0.000000
O          2.658287     1.773398    -0.370529
H          2.091112     1.113408     0.001257
H          3.169430     2.152468     0.380958
O          1.386953    -0.634513     2.886858
H          0.938120    -0.445849     2.084134
H          0.881418    -1.312523     3.349073
O         -1.733809     0.841098    -2.621295
H         -2.603293     1.359142    -2.652883
H         -1.487596     0.630228    -1.696720
O         -0.222632     3.133093     0.500279
H         -1.083412     3.575365     0.472674
H         -0.438957     2.179388     0.524477
O         -2.943507     0.363094     1.076372
H         -3.375816    -0.520414     0.951393
H         -2.003804     0.267427     1.077284

units ang
no_reorient
no_com
symmetry c1
}

set {
basis        aug-cc-pVTZ
scf_type     df
}

energy("mp2")
--------------------------------------------------------------------------

    Molecular point group: c1

    Geometry (in Angstrom), charge = -1, multiplicity = 1:

       Center              X                  Y                   Z               Mass
    ------------   -----------------  -----------------  -----------------  -----------------
         CL           0.000000000000     0.000000000000     0.000000000000    34.968852682000
         O            2.658287000000     1.773398000000    -0.370529000000    15.994914619570
         H            2.091112000000     1.113408000000     0.001257000000     1.007825032230
         H            3.169430000000     2.152468000000     0.380958000000     1.007825032230
         O            1.386953000000    -0.634513000000     2.886858000000    15.994914619570
         H            0.938120000000    -0.445849000000     2.084134000000     1.007825032230
         H            0.881418000000    -1.312523000000     3.349073000000     1.007825032230
         O           -1.733809000000     0.841098000000    -2.621295000000    15.994914619570
         H           -2.603293000000     1.359142000000    -2.652883000000     1.007825032230
         H           -1.487596000000     0.630228000000    -1.696720000000     1.007825032230
         O           -0.222632000000     3.133093000000     0.500279000000    15.994914619570
         H           -1.083412000000     3.575365000000     0.472674000000     1.007825032230
         H           -0.438957000000     2.179388000000     0.524477000000     1.007825032230
         O           -2.943507000000     0.363094000000     1.076372000000    15.994914619570
         H           -3.375816000000    -0.520414000000     0.951393000000     1.007825032230
         H           -2.003804000000     0.267427000000     1.077284000000     1.007825032230

  Charge       = -1
  Multiplicity = 1
  Basis Set: AUG-CC-PVTZ
    Blend: AUG-CC-PVTZ
  Basis Set: (AUG-CC-PVTZ AUX)
    Blend: AUG-CC-PVTZ-JKFIT

    Orbital Energies [Eh]
    ---------------------

    Doubly Occupied:

       1A   -104.586922     2A    -20.427442     3A    -20.420996
       4A    -20.416989     5A    -20.407283     6A    -20.401897
       7A    -10.312532     8A     -7.778631     9A     -7.778600
      10A     -7.778551    11A     -1.213408    12A     -1.209191
      13A     -1.186718    14A     -1.184135    15A     -1.178852
      16A     -0.833925    17A     -0.588740    18A     -0.586681
      19A     -0.557553    20A     -0.554678    21A     -0.550531
      22A     -0.443336    23A     -0.441223    24A     -0.426057
      25A     -0.418853    26A     -0.416840    27A     -0.373699
      28A     -0.369837    29A     -0.355204    30A     -0.350370
      31A     -0.344121    32A     -0.246194    33A     -0.243469
      34A     -0.240356

  @DF-RHF Final Energy:  -839.91809305271602

   => Energetics <=

    Nuclear Repulsion Energy =            308.1956179807619378
    One-Electron Energy =               -1786.9797838195815984
    Two-Electron Energy =                 638.8660727861037003
    Total Energy =                       -839.9180930527160172
 Dipole X            :         19.1222186          -20.3154289           -1.1932103
 Dipole Y            :       -101.5445125           99.7926572           -1.7518553
 Dipole Z            :        -30.0673613           30.7366354            0.6692741
 Magnitude           :                                                    2.2227631
  Basis Set: (AUG-CC-PVTZ AUX)
    Blend: AUG-CC-PVTZ-RI
	 Reference Energy          =    -839.9180930527160172 [Eh]
	 Singles Energy            =      -0.0000000000000000 [Eh]
	 Same-Spin Energy          =      -0.4173304970968184 [Eh]
	 Opposite-Spin Energy      =      -1.2749750106575104 [Eh]
	 Correlation Energy        =      -1.6923055077543288 [Eh]
	 Total Energy              =    -841.6103985604703439 [Eh]

	 ================> DF-SCS-MP2 Energies <==================
	-----------------------------------------------------------
	 SCS Same-Spin Scale       =       0.3333333333333333 [-]
	 SCS Opposite-Spin Scale   =       1.2000000000000000 [-]
	 SCS Same-Spin Energy      =      -0.1391101656989394 [Eh]
	 SCS Opposite-Spin Energy  =      -1.5299700127890123 [Eh]
	 SCS Correlation Energy    =      -1.6690801784879519 [Eh]
	 SCS Total Energy          =    -841.5871732312040194 [Eh]
	-----------------------------------------------------------

*** Psi4 exiting successfully. Buy a developer a beer!
