                               Psi4 1.8.2 release

  ==> Input File <==

--------------------------------------------------------------------------
MEMORY 60 GB

molecule dimer {
0 1
Gh(Cl)     0.000000     0.000000     0.000000
Gh(O)      2.004466    -0.496177     2.546536
Gh(H)      2.585244    -1.154785     2.189831
Gh(H)      1.363421    -0.266412     1.830507
O          2.479580    -1.598125    -1.227379
H          1.827334    -1.093465    -0.781736
H          2.036467    -2.371329    -1.587810
Gh(O)     -2.771537     0.837457     1.822875
Gh(H)     -3.237440     0.820329     0.989508
Gh(H)     -2.323566     0.003383     1.867055
Gh(O)     -0.416174    -1.379225    -3.003309
Gh(H)     -0.168991    -0.896023    -2.169454
Gh(H)      0.155754    -2.140456    -3.062651

units ang
no_reorient
no_com
symmetry c1
}

set {
basis        aug-cc-pVTZ
scf_type     df
}

energy("mp2")
--------------------------------------------------------------------------

    Molecular point group: c1

    Geometry (in Angstrom), charge = 0, multiplicity = 1:

       Center              X                  Y                   Z               Mass
    ------------   -----------------  -----------------  -----------------  -----------------
      Gh(CL)          0.000000000000     0.000000000000     0.000000000000    34.968852682000
      Gh(O)           2.004466000000    -0.496177000000     2.546536000000    15.994914619570
      Gh(H)           2.585244000000    -1.154785000000     2.189831000000     1.007825032230
      Gh(H)           1.363421000000    -0.266412000000     1.830507000000     1.007825032230
         O            2.479580000000    -1.598125000000    -1.227379000000    15.994914619570
         H            1.827334000000    -1.093465000000    -0.781736000000     1.007825032230
         H            2.036467000000    -2.371329000000    -1.587810000000     1.007825032230
      Gh(O)          -2.771537000000     0.837457000000     1.822875000000    15.994914619570
      Gh(H)          -3.237440000000     0.820329000000     0.989508000000     1.007825032230
      Gh(H)          -2.323566000000     0.003383000000     1.867055000000     1.007825032230
      Gh(O)          -0.416174000000    -1.379225000000    -3.003309000000    15.994914619570
      Gh(H)          -0.168991000000    -0.896023000000    -2.169454000000     1.007825032230
      Gh(H)           0.155754000000    -2.140456000000    -3.062651000000     1.007825032230

  Charge       = 0
  Multiplicity = 1
  Basis Set: AUG-CC-PVTZ
    Blend: AUG-CC-PVTZ
  Basis Set: (AUG-CC-PVTZ AUX)
    Blend: AUG-CC-PVTZ-JKFIT

    Orbital Energies [Eh]
    ---------------------

    Doubly Occupied:

       1A    -20.564646     2A     -1.356088     3A     -0.726809
       4A     -0.581691     5A     -0.510329

  @DF-RHF Final Energy:   -76.06080440037806

   => Energetics <=

    Nuclear Repulsion Energy =              9.2669374535751015
    One-Electron Energy =                -123.1763561626268881
    Two-Electron Energy =                  37.8486143086737172
    Total Energy =                        -76.0608044003780748
 Dipole X            :        -45.5258626           44.7873425           -0.7385200
 Dipole Y            :         30.5301821          -30.7076603           -0.1774782
 Dipole Z            :         23.0925211          -23.0330743            0.0594468
 Magnitude           :                                                    0.7618689
  Basis Set: (AUG-CC-PVTZ AUX)
    Blend: AUG-CC-PVTZ-RI
	 Reference Energy          =     -76.0608044003780606 [Eh]
	 Singles Energy            =      -0.0000000000000000 [Eh]
	 Same-Spin Energy          =      -0.0682217742362160 [Eh]
	 Opposite-Spin Energy      =      -0.2154608843119955 [Eh]
	 Correlation Energy        =      -0.2836826585482116 [Eh]
	 Total Energy              =     -76.3444870589262763 [Eh]

	 ================> DF-SCS-MP2 Energies <==================
	-----------------------------------------------------------
	 SCS Same-Spin Scale       =       0.3333333333333333 [-]
	 SCS Opposite-Spin Scale   =       1.2000000000000000 [-]
	 SCS Same-Spin Energy      =      -0.0227405914120720 [Eh]
	 SCS Opposite-Spin Energy  =      -0.2585530611743946 [Eh]
	 SCS Correlation Energy    =      -0.2812936525864667 [Eh]
	 SCS Total Energy          =     -76.3420980529645306 [Eh]
	-----------------------------------------------------------

*** Psi4 exiting successfully. Buy a developer a beer!
