                               Psi4 1.8.2 release

  ==> Input File <==

--------------------------------------------------------------------------
MEMORY 60 GB

molecule dimer {
0 1
Gh(Cl)     0.000000     0.000000     0.000000
Gh(O)     -3.072186    -0.943385    -1.151340
Gh(H)     -2.109297    -0.833410    -1.232254
Gh(H)     -3.480580    -0.069519    -1.336406
Gh(O)     -2.170564     2.085398    -0.537936
Gh(H)     -1.492369     1.468992    -0.217548
Gh(H)     -1.948541     2.234535    -1.504709
Gh(O)      1.715914     2.702458    -1.046000
Gh(H)      2.231407     2.871279    -1.844869
Gh(H)      1.155635     1.946575    -1.231334
Gh(O)     -0.734965     0.285092    -3.206055
Gh(H)     -0.613228     0.151032    -2.243593
Gh(H)     -0.192858     1.041459    -3.457951
O         -1.691451    -2.961899     0.571525
H         -1.220428    -3.805275     0.457431
H         -1.045938    -2.256831     0.320946

units ang
no_reorient
no_com
symmetry c1
}

set {
basis        aug-cc-pVTZ
scf_type     df
}

energy("mp2")
--------------------------------------------------------------------------

    Molecular point group: c1

    Geometry (in Angstrom), charge = 0, multiplicity = 1:

       Center              X                  Y                   Z               Mass
    ------------   -----------------  -----------------  -----------------  -----------------
      Gh(CL)          0.000000000000     0.000000000000     0.000000000000    34.968852682000
      Gh(O)          -3.072186000000    -0.943385000000    -1.151340000000    15.994914619570
      Gh(H)          -2.109297000000    -0.833410000000    -1.232254000000     1.007825032230
      Gh(H)          -3.480580000000    -0.069519000000    -1.336406000000     1.007825032230
      Gh(O)          -2.170564000000     2.085398000000    -0.537936000000    15.994914619570
      Gh(H)          -1.492369000000     1.468992000000    -0.217548000000     1.007825032230
      Gh(H)          -1.948541000000     2.234535000000    -1.504709000000     1.007825032230
      Gh(O)           1.715914000000     2.702458000000    -1.046000000000    15.994914619570
      Gh(H)           2.231407000000     2.871279000000    -1.844869000000     1.007825032230
      Gh(H)           1.155635000000     1.946575000000    -1.231334000000     1.007825032230
      Gh(O)          -0.734965000000     0.285092000000    -3.206055000000    15.994914619570
      Gh(H)          -0.613228000000     0.151032000000    -2.243593000000     1.007825032230
      Gh(H)          -0.192858000000     1.041459000000    -3.457951000000     1.007825032230
         O           -1.691451000000    -2.961899000000     0.571525000000    15.994914619570
         H           -1.220428000000    -3.805275000000     0.457431000000     1.007825032230
         H           -1.045938000000    -2.256831000000     0.320946000000     1.007825032230

  Charge       = 0
  Multiplicity = 1
  Basis Set: AUG-CC-PVTZ
    Blend: AUG-CC-PVTZ
  Basis Set: (AUG-CC-PVTZ AUX)
    Blend: AUG-CC-PVTZ-JKFIT

    Orbital Energies [Eh]
    ---------------------

    Doubly Occupied:

       1A    -20.570585     2A     -1.341041     3A     -0.707662
       4A     -0.577902     5A     -0.508084

  @DF-RHF Final Energy:   -76.05802006877327

   => Energetics <=

    Nuclear Repulsion Energy =              8.9743358015975776
    One-Electron Energy =                -122.6541603600792882
    Two-Electron Energy =                  37.6218044897084454
    Total Energy =                        -76.0580200687732599
 Dipole X            :         30.5890900          -29.8538442            0.7352458
 Dipole Y            :         56.1396813          -56.2331435           -0.0934622
 Dipole Z            :        -10.3508187           10.1111251           -0.2396936
 Magnitude           :                                                    0.7789573
  Basis Set: (AUG-CC-PVTZ AUX)
    Blend: AUG-CC-PVTZ-RI
	 Reference Energy          =     -76.0580200687732741 [Eh]
	 Singles Energy            =      -0.0000000000000000 [Eh]
	 Same-Spin Energy          =      -0.0687689100618058 [Eh]
	 Opposite-Spin Energy      =      -0.2168506209312467 [Eh]
	 Correlation Energy        =      -0.2856195309930525 [Eh]
	 Total Energy              =     -76.3436395997663197 [Eh]

	 ================> DF-SCS-MP2 Energies <==================
	-----------------------------------------------------------
	 SCS Same-Spin Scale       =       0.3333333333333333 [-]
	 SCS Opposite-Spin Scale   =       1.2000000000000000 [-]
	 SCS Same-Spin Energy      =      -0.0229229700206019 [Eh]
	 SCS Opposite-Spin Energy  =      -0.2602207451174961 [Eh]
	 SCS Correlation Energy    =      -0.2831437151380980 [Eh]
	 SCS Total Energy          =     -76.3411637839113695 [Eh]
	-----------------------------------------------------------

*** Psi4 exiting successfully. Buy a developer a beer!
