                               Psi4 1.9 release

  ==> Input File <==

--------------------------------------------------------------------------
MEMORY 60 GB

molecule dimer {
-1 1
Cl     0.000000     0.000000     0.000000
--
0 1
O     -2.944867    -0.564899    -1.779154
H     -3.524928     0.182418    -1.593240
H     -2.264671    -0.498491    -1.118838
O     -2.727221     1.269441     1.357269
H     -2.050786     0.651012     1.147961
H     -3.477837     0.948943     0.929990
O      2.085863     1.943286     1.689448
H      2.901729     2.319648     1.384240
H      1.848548     1.201502     1.097555
O      0.575664    -2.444183     2.291224
H      0.275698    -1.738441     1.676952
H     -0.166814    -2.631813     2.907550
O     -0.427516     3.289022     1.005525
H     -0.401676     2.496842     0.384779
H      0.441407     3.173898     1.412293

units ang
no_reorient
no_com
symmetry c1
}

set {
basis        aug-cc-pVTZ
scf_type     df
}

energy("mp2", bsse_type="cp")
--------------------------------------------------------------------------

                               Psi4 1.9 release
    Molecular point group: c1
  Charge       = 0
  Multiplicity = 1
  Basis Set: AUG-CC-PVTZ
    Blend: AUG-CC-PVTZ
  Basis Set: (AUG-CC-PVTZ AUX)
    Blend: AUG-CC-PVTZ-JKFIT
  @DF-RHF Final Energy:  -380.28460418316831
    Total Energy =                       -380.2846041831683124
 Dipole X            :         64.5119414          -64.1069670            0.4049743
 Dipole Y            :        -64.8978920           64.3392295           -0.5586625
 Dipole Z            :        -85.0090636           84.5534106           -0.4556529
 Magnitude           :                                                    0.8268782
  Basis Set: (AUG-CC-PVTZ AUX)
    Blend: AUG-CC-PVTZ-RI
	 Reference Energy          =    -380.2846041831683124 [Eh]
	 Singles Energy            =      -0.0000000000000000 [Eh]
	 Same-Spin Energy          =      -0.3451884074368502 [Eh]
	 Opposite-Spin Energy      =      -1.0836311828757430 [Eh]
	 Correlation Energy        =      -1.4288195903125933 [Eh]
	 Total Energy              =    -381.7134237734808835 [Eh]
	 SCS Total Energy          =    -381.7000244050981337 [Eh]
                               Psi4 1.9 release
    Molecular point group: c1
  Multiplicity = 1
  Basis Set: AUG-CC-PVTZ
    Blend: AUG-CC-PVTZ
  Basis Set: (AUG-CC-PVTZ AUX)
    Blend: AUG-CC-PVTZ-JKFIT
  @DF-RHF Final Energy:  -459.57356611747309
    Total Energy =                       -459.5735661174730922
  Basis Set: (AUG-CC-PVTZ AUX)
	 Singles Energy            =      -0.0000000000000000 [Eh]
	 Same-Spin Energy          =      -0.0633266613372253 [Eh]
	 Opposite-Spin Energy      =      -0.1829111884665470 [Eh]
	 Correlation Energy        =      -0.2462378498037723 [Eh]
	 Total Energy              =    -459.8198039672768687 [Eh]
	 SCS Total Energy          =    -459.8141684307453829 [Eh]
                               Psi4 1.9 release
    Molecular point group: c1

    Geometry (in Bohr), charge = -1, multiplicity = 1:

       Center              X                  Y                   Z               Mass
    ------------   -----------------  -----------------  -----------------  -----------------
         CL           0.000000000000     0.000000000000     0.000000000000    34.968852682000
         O           -5.564992105899    -1.067504398545    -3.362113795013    15.994914619570
         H           -6.661148531958     0.344720060354    -3.010787252124     1.007825032230
         H           -4.279607954267    -0.942011466006    -2.114297398755     1.007825032230
         O           -5.153700773597     2.398895822427     2.564866688574    15.994914619570
         H           -3.875423881923     1.230234384387     2.169331892707     1.007825032230
         H           -6.572159438984     1.793242378670     1.757426399415     1.007825032230
         O            3.941709805226     3.672278323436     3.192594023202    15.994914619570
         H            5.483473100299     4.383499427466     2.615834491904     1.007825032230
         H            3.493249449763     2.270509719190     2.074078357627     1.007825032230
         O            1.087847300286    -4.618836470500     4.329785852076    15.994914619570
         H            0.520993713336    -3.285177375267     3.168980005539     1.007825032230
         H           -0.315232773892    -4.973405783420     5.494473196075     1.007825032230
         O           -0.807888154251     6.215350800606     1.900166862301    15.994914619570
         H           -0.759057631169     4.718347558540     0.727126928828     1.007825032230
         H            0.834138339860     5.997797970138     2.668846978901     1.007825032230

  Charge       = -1
  Multiplicity = 1
  Basis Set: AUG-CC-PVTZ
    Blend: AUG-CC-PVTZ
  Basis Set: (AUG-CC-PVTZ AUX)
    Blend: AUG-CC-PVTZ-JKFIT

    Orbital Energies [Eh]
    ---------------------

    Doubly Occupied:

       1A   -104.587079     2A    -20.438838     3A    -20.436276
       4A    -20.426320     5A    -20.415251     6A    -20.391208
       7A    -10.311835     8A     -7.777977     9A     -7.777922
      10A     -7.777885    11A     -1.225359    12A     -1.225056
      13A     -1.222887    14A     -1.197296    15A     -1.165376
      16A     -0.827216    17A     -0.597153    18A     -0.590317
      19A     -0.586526    20A     -0.568044    21A     -0.518294
      22A     -0.462554    23A     -0.456737    24A     -0.444324
      25A     -0.436610    26A     -0.424731    27A     -0.381941
      28A     -0.377297    29A     -0.369131    30A     -0.366646
      31A     -0.331410    32A     -0.243469    33A     -0.239974
      34A     -0.237275

  @DF-RHF Final Energy:  -839.92758552959367

   => Energetics <=

    Nuclear Repulsion Energy =            302.0930877531123997
    One-Electron Energy =               -1774.3689138695701786
    Two-Electron Energy =                 632.3482405868639944
    Total Energy =                       -839.9275855295936708
 Dipole X            :         64.8224374          -64.1069670            0.7154704
 Dipole Y            :        -65.1539355           64.3392295           -0.8147060
 Dipole Z            :        -85.5181315           84.5534106           -0.9647209
 Magnitude           :                                                    1.4513201
  Basis Set: (AUG-CC-PVTZ AUX)
    Blend: AUG-CC-PVTZ-RI
	 Reference Energy          =    -839.9275855295936708 [Eh]
	 Singles Energy            =      -0.0000000000000000 [Eh]
	 Same-Spin Energy          =      -0.4157415492599389 [Eh]
	 Opposite-Spin Energy      =      -1.2713582292555912 [Eh]
	 Correlation Energy        =      -1.6870997785155302 [Eh]
	 Total Energy              =    -841.6146853081091876 [Eh]

	 ================> DF-SCS-MP2 Energies <==================
	-----------------------------------------------------------
	 SCS Same-Spin Scale       =       0.3333333333333333 [-]
	 SCS Opposite-Spin Scale   =       1.2000000000000000 [-]
	 SCS Same-Spin Energy      =      -0.1385805164199796 [Eh]
	 SCS Opposite-Spin Energy  =      -1.5256298751067094 [Eh]
	 SCS Correlation Energy    =      -1.6642103915266890 [Eh]
	 SCS Total Energy          =    -841.5917959211203652 [Eh]
	-----------------------------------------------------------

*** Psi4 exiting successfully. Buy a developer a beer!
