                               Psi4 1.8.2 release

  ==> Input File <==

--------------------------------------------------------------------------
MEMORY 60 GB

molecule dimer {
-1 1
Cl         0.000000     0.000000     0.000000
Gh(O)     -2.053684     2.304311     0.217814
Gh(H)     -1.456383     2.956946     0.610925
Gh(H)     -1.443301     1.666290    -0.182013
Gh(O)      2.189604     1.887725    -1.286451
Gh(H)      1.490313     1.304328    -0.911948
Gh(H)      2.485988     1.522653    -2.115611
Gh(O)      1.794090    -2.315229    -1.369329
Gh(H)      1.050639    -2.681183    -1.877896
Gh(H)      1.473504    -1.592214    -0.862287
Gh(O)     -1.373675     0.424170    -2.840394
Gh(H)     -0.768222     0.275953    -3.546434
Gh(H)     -0.987035     0.245546    -1.972930

units ang
no_reorient
no_com
symmetry c1
}

set {
basis        aug-cc-pVTZ
scf_type     df
}

energy("mp2")
--------------------------------------------------------------------------

    Molecular point group: c1

    Geometry (in Angstrom), charge = -1, multiplicity = 1:

       Center              X                  Y                   Z               Mass
    ------------   -----------------  -----------------  -----------------  -----------------
         CL           0.000000000000     0.000000000000     0.000000000000    34.968852682000
      Gh(O)          -2.053684000000     2.304311000000     0.217814000000    15.994914619570
      Gh(H)          -1.456383000000     2.956946000000     0.610925000000     1.007825032230
      Gh(H)          -1.443301000000     1.666290000000    -0.182013000000     1.007825032230
      Gh(O)           2.189604000000     1.887725000000    -1.286451000000    15.994914619570
      Gh(H)           1.490313000000     1.304328000000    -0.911948000000     1.007825032230
      Gh(H)           2.485988000000     1.522653000000    -2.115611000000     1.007825032230
      Gh(O)           1.794090000000    -2.315229000000    -1.369329000000    15.994914619570
      Gh(H)           1.050639000000    -2.681183000000    -1.877896000000     1.007825032230
      Gh(H)           1.473504000000    -1.592214000000    -0.862287000000     1.007825032230
      Gh(O)          -1.373675000000     0.424170000000    -2.840394000000    15.994914619570
      Gh(H)          -0.768222000000     0.275953000000    -3.546434000000     1.007825032230
      Gh(H)          -0.987035000000     0.245546000000    -1.972930000000     1.007825032230

  Charge       = -1
  Multiplicity = 1
  Basis Set: AUG-CC-PVTZ
    Blend: AUG-CC-PVTZ
  Basis Set: (AUG-CC-PVTZ AUX)
    Blend: AUG-CC-PVTZ-JKFIT

    Orbital Energies [Eh]
    ---------------------

    Doubly Occupied:

       1A   -104.507203     2A    -10.230051     3A     -7.696112
       4A     -7.696107     5A     -7.696094     6A     -0.733473
       7A     -0.150315     8A     -0.150309     9A     -0.150308

  @DF-RHF Final Energy:  -459.57357051868883

   => Energetics <=

    Nuclear Repulsion Energy =              0.0000000000000000
    One-Electron Energy =                -641.1272090813910154
    Two-Electron Energy =                 181.5536385627021616
    Total Energy =                       -459.5735705186888254
 Dipole X            :          0.0000024            0.0000000            0.0000024
 Dipole Y            :          0.0002190            0.0000000            0.0002190
 Dipole Z            :         -0.0006168            0.0000000           -0.0006168
 Magnitude           :                                                    0.0006545
  Basis Set: (AUG-CC-PVTZ AUX)
    Blend: AUG-CC-PVTZ-RI
	 Reference Energy          =    -459.5735705186888254 [Eh]
	 Singles Energy            =      -0.0000000000000000 [Eh]
	 Same-Spin Energy          =      -0.0634630325551116 [Eh]
	 Opposite-Spin Energy      =      -0.1835819310837359 [Eh]
	 Correlation Energy        =      -0.2470449636388476 [Eh]
	 Total Energy              =    -459.8206154823276961 [Eh]

	 ================> DF-SCS-MP2 Energies <==================
	-----------------------------------------------------------
	 SCS Same-Spin Scale       =       0.3333333333333333 [-]
	 SCS Opposite-Spin Scale   =       1.2000000000000000 [-]
	 SCS Same-Spin Energy      =      -0.0211543441850372 [Eh]
	 SCS Opposite-Spin Energy  =      -0.2202983173004831 [Eh]
	 SCS Correlation Energy    =      -0.2414526614855204 [Eh]
	 SCS Total Energy          =    -459.8150231801743644 [Eh]
	-----------------------------------------------------------

*** Psi4 exiting successfully. Buy a developer a beer!
