                               Psi4 1.8.2 release

  ==> Input File <==

--------------------------------------------------------------------------
MEMORY 60 GB

molecule dimer {
0 1
Gh(Cl)     0.000000     0.000000     0.000000
O         -2.639249    -2.043355    -0.424183
H         -1.808856    -1.471762    -0.429724
H         -2.641062    -2.333764    -1.316977
Gh(O)      0.403629    -2.390235     2.477646
Gh(H)     -0.432481    -2.907837     2.347215
Gh(H)      0.412111    -1.672041     1.879690
Gh(O)     -0.714179     0.377929    -3.329396
Gh(H)     -1.198332    -0.133274    -2.628707
Gh(H)     -0.377953     1.213673    -2.933940
Gh(O)     -2.634641     1.896873     0.738049
Gh(H)     -1.800704     1.389428     0.628177
Gh(H)     -2.528308     2.751205     0.372104
Gh(O)      0.783633    -2.645861    -1.980641
Gh(H)      0.893785    -2.060143    -2.776260
Gh(H)      0.469594    -2.121247    -1.272007

units ang
no_reorient
no_com
symmetry c1
}

set {
basis        aug-cc-pVTZ
scf_type     df
}

energy("mp2")
--------------------------------------------------------------------------

    Molecular point group: c1

    Geometry (in Angstrom), charge = 0, multiplicity = 1:

       Center              X                  Y                   Z               Mass
    ------------   -----------------  -----------------  -----------------  -----------------
      Gh(CL)          0.000000000000     0.000000000000     0.000000000000    34.968852682000
         O           -2.639249000000    -2.043355000000    -0.424183000000    15.994914619570
         H           -1.808856000000    -1.471762000000    -0.429724000000     1.007825032230
         H           -2.641062000000    -2.333764000000    -1.316977000000     1.007825032230
      Gh(O)           0.403629000000    -2.390235000000     2.477646000000    15.994914619570
      Gh(H)          -0.432481000000    -2.907837000000     2.347215000000     1.007825032230
      Gh(H)           0.412111000000    -1.672041000000     1.879690000000     1.007825032230
      Gh(O)          -0.714179000000     0.377929000000    -3.329396000000    15.994914619570
      Gh(H)          -1.198332000000    -0.133274000000    -2.628707000000     1.007825032230
      Gh(H)          -0.377953000000     1.213673000000    -2.933940000000     1.007825032230
      Gh(O)          -2.634641000000     1.896873000000     0.738049000000    15.994914619570
      Gh(H)          -1.800704000000     1.389428000000     0.628177000000     1.007825032230
      Gh(H)          -2.528308000000     2.751205000000     0.372104000000     1.007825032230
      Gh(O)           0.783633000000    -2.645861000000    -1.980641000000    15.994914619570
      Gh(H)           0.893785000000    -2.060143000000    -2.776260000000     1.007825032230
      Gh(H)           0.469594000000    -2.121247000000    -1.272007000000     1.007825032230

  Charge       = 0
  Multiplicity = 1
  Basis Set: AUG-CC-PVTZ
    Blend: AUG-CC-PVTZ
  Basis Set: (AUG-CC-PVTZ AUX)
    Blend: AUG-CC-PVTZ-JKFIT

    Orbital Energies [Eh]
    ---------------------

    Doubly Occupied:

       1A    -20.571697     2A     -1.349694     3A     -0.700515
       4A     -0.590264     5A     -0.510487

  @DF-RHF Final Energy:   -76.05624635365083

   => Energetics <=

    Nuclear Repulsion Energy =              9.0634590940754460
    One-Electron Energy =                -122.7940947519784629
    Two-Electron Energy =                  37.6743893042521947
    Total Energy =                        -76.0562463536508346
 Dipole X            :         48.8402696          -48.3087886            0.5314810
 Dipole Y            :         38.2577279          -38.0824525            0.1752754
 Dipole Z            :          9.1210927           -9.7135041           -0.5924114
 Magnitude           :                                                    0.8149508
  Basis Set: (AUG-CC-PVTZ AUX)
    Blend: AUG-CC-PVTZ-RI
	 Reference Energy          =     -76.0562463536508346 [Eh]
	 Singles Energy            =      -0.0000000000000000 [Eh]
	 Same-Spin Energy          =      -0.0687806736805502 [Eh]
	 Opposite-Spin Energy      =      -0.2170530500697943 [Eh]
	 Correlation Energy        =      -0.2858337237503445 [Eh]
	 Total Energy              =     -76.3420800774011781 [Eh]

	 ================> DF-SCS-MP2 Energies <==================
	-----------------------------------------------------------
	 SCS Same-Spin Scale       =       0.3333333333333333 [-]
	 SCS Opposite-Spin Scale   =       1.2000000000000000 [-]
	 SCS Same-Spin Energy      =      -0.0229268912268501 [Eh]
	 SCS Opposite-Spin Energy  =      -0.2604636600837532 [Eh]
	 SCS Correlation Energy    =      -0.2833905513106033 [Eh]
	 SCS Total Energy          =     -76.3396369049614378 [Eh]
	-----------------------------------------------------------

*** Psi4 exiting successfully. Buy a developer a beer!
