                               Psi4 1.8.2 release

  ==> Input File <==

--------------------------------------------------------------------------
MEMORY 60 GB

molecule dimer {
0 1
Gh(Cl)     0.000000     0.000000     0.000000
Gh(O)      2.658287     1.773398    -0.370529
Gh(H)      2.091112     1.113408     0.001257
Gh(H)      3.169430     2.152468     0.380958
O          1.386953    -0.634513     2.886858
H          0.938120    -0.445849     2.084134
H          0.881418    -1.312523     3.349073
Gh(O)     -1.733809     0.841098    -2.621295
Gh(H)     -2.603293     1.359142    -2.652883
Gh(H)     -1.487596     0.630228    -1.696720
Gh(O)     -0.222632     3.133093     0.500279
Gh(H)     -1.083412     3.575365     0.472674
Gh(H)     -0.438957     2.179388     0.524477
Gh(O)     -2.943507     0.363094     1.076372
Gh(H)     -3.375816    -0.520414     0.951393
Gh(H)     -2.003804     0.267427     1.077284

units ang
no_reorient
no_com
symmetry c1
}

set {
basis        aug-cc-pVTZ
scf_type     df
}

energy("mp2")
--------------------------------------------------------------------------

    Molecular point group: c1

    Geometry (in Angstrom), charge = 0, multiplicity = 1:

       Center              X                  Y                   Z               Mass
    ------------   -----------------  -----------------  -----------------  -----------------
      Gh(CL)          0.000000000000     0.000000000000     0.000000000000    34.968852682000
      Gh(O)           2.658287000000     1.773398000000    -0.370529000000    15.994914619570
      Gh(H)           2.091112000000     1.113408000000     0.001257000000     1.007825032230
      Gh(H)           3.169430000000     2.152468000000     0.380958000000     1.007825032230
         O            1.386953000000    -0.634513000000     2.886858000000    15.994914619570
         H            0.938120000000    -0.445849000000     2.084134000000     1.007825032230
         H            0.881418000000    -1.312523000000     3.349073000000     1.007825032230
      Gh(O)          -1.733809000000     0.841098000000    -2.621295000000    15.994914619570
      Gh(H)          -2.603293000000     1.359142000000    -2.652883000000     1.007825032230
      Gh(H)          -1.487596000000     0.630228000000    -1.696720000000     1.007825032230
      Gh(O)          -0.222632000000     3.133093000000     0.500279000000    15.994914619570
      Gh(H)          -1.083412000000     3.575365000000     0.472674000000     1.007825032230
      Gh(H)          -0.438957000000     2.179388000000     0.524477000000     1.007825032230
      Gh(O)          -2.943507000000     0.363094000000     1.076372000000    15.994914619570
      Gh(H)          -3.375816000000    -0.520414000000     0.951393000000     1.007825032230
      Gh(H)          -2.003804000000     0.267427000000     1.077284000000     1.007825032230

  Charge       = 0
  Multiplicity = 1
  Basis Set: AUG-CC-PVTZ
    Blend: AUG-CC-PVTZ
  Basis Set: (AUG-CC-PVTZ AUX)
    Blend: AUG-CC-PVTZ-JKFIT

    Orbital Energies [Eh]
    ---------------------

    Doubly Occupied:

       1A    -20.564769     2A     -1.354665     3A     -0.726881
       4A     -0.580156     5A     -0.509986

  @DF-RHF Final Energy:   -76.06064206324749

   => Energetics <=

    Nuclear Repulsion Energy =              9.2465327077284236
    One-Electron Energy =                -123.1414329286390341
    Two-Electron Energy =                  37.8342581576631289
    Total Energy =                        -76.0606420632474851
 Dipole X            :        -25.0495432           24.4061190           -0.6434242
 Dipole Y            :         12.5875700          -12.9152879           -0.3277178
 Dipole Z            :        -54.1434694           53.9102411           -0.2332283
 Magnitude           :                                                    0.7588077
  Basis Set: (AUG-CC-PVTZ AUX)
    Blend: AUG-CC-PVTZ-RI
	 Reference Energy          =     -76.0606420632474851 [Eh]
	 Singles Energy            =      -0.0000000000000000 [Eh]
	 Same-Spin Energy          =      -0.0682393241653846 [Eh]
	 Opposite-Spin Energy      =      -0.2154418742304546 [Eh]
	 Correlation Energy        =      -0.2836811983958392 [Eh]
	 Total Energy              =     -76.3443232616433249 [Eh]

	 ================> DF-SCS-MP2 Energies <==================
	-----------------------------------------------------------
	 SCS Same-Spin Scale       =       0.3333333333333333 [-]
	 SCS Opposite-Spin Scale   =       1.2000000000000000 [-]
	 SCS Same-Spin Energy      =      -0.0227464413884615 [Eh]
	 SCS Opposite-Spin Energy  =      -0.2585302490765455 [Eh]
	 SCS Correlation Energy    =      -0.2812766904650070 [Eh]
	 SCS Total Energy          =     -76.3419187537124913 [Eh]
	-----------------------------------------------------------

*** Psi4 exiting successfully. Buy a developer a beer!
