                               Psi4 1.9 release

  ==> Input File <==

--------------------------------------------------------------------------
MEMORY 60 GB

molecule dimer {
-1 1
Cl     0.000000     0.000000     0.000000
--
0 1
O     -2.452431     1.179516    -1.383822
H     -1.837991     0.632158    -0.895002
H     -2.120427     2.027958    -1.619128
O     -1.167744    -2.919915    -0.939325
H     -1.764740    -2.860149    -0.192311
H     -0.702783    -2.092863    -0.831785
O      1.116976     2.890657    -0.274401
H      1.074806     1.920461    -0.397918
H      1.908259     3.184212    -0.701728
O      1.222605    -0.362937    -3.063516
H      2.064077    -0.758243    -2.722188
H      0.654956    -0.035259    -2.271002

units ang
no_reorient
no_com
symmetry c1
}

set {
basis        aug-cc-pVTZ
scf_type     df
}

energy("mp2", bsse_type="cp")
--------------------------------------------------------------------------

                               Psi4 1.9 release
    Molecular point group: c1
  Charge       = 0
  Multiplicity = 1
  Basis Set: AUG-CC-PVTZ
    Blend: AUG-CC-PVTZ
  Basis Set: (AUG-CC-PVTZ AUX)
    Blend: AUG-CC-PVTZ-JKFIT
  @DF-RHF Final Energy:  -304.22335639462955
    Total Energy =                       -304.2233563946295476
 Dipole X            :         21.9638349          -20.7276405            1.2361944
 Dipole Y            :        -15.3987476           15.7165555            0.3178079
 Dipole Z            :        104.7982669         -103.7829538            1.0153131
 Magnitude           :                                                    1.6309626
  Basis Set: (AUG-CC-PVTZ AUX)
    Blend: AUG-CC-PVTZ-RI
	 Reference Energy          =    -304.2233563946295476 [Eh]
	 Singles Energy            =      -0.0000000000000000 [Eh]
	 Same-Spin Energy          =      -0.2751499994182827 [Eh]
	 Opposite-Spin Energy      =      -0.8665590626124468 [Eh]
	 Correlation Energy        =      -1.1417090620307295 [Eh]
	 Total Energy              =    -305.3650654566602611 [Eh]
	 SCS Total Energy          =    -305.3549439362372482 [Eh]
                               Psi4 1.9 release
    Molecular point group: c1
  Multiplicity = 1
  Basis Set: AUG-CC-PVTZ
    Blend: AUG-CC-PVTZ
  Basis Set: (AUG-CC-PVTZ AUX)
    Blend: AUG-CC-PVTZ-JKFIT
  @DF-RHF Final Energy:  -459.57356892734782
    Total Energy =                       -459.5735689273478215
  Basis Set: (AUG-CC-PVTZ AUX)
	 Singles Energy            =      -0.0000000000000000 [Eh]
	 Same-Spin Energy          =      -0.0634286208572241 [Eh]
	 Opposite-Spin Energy      =      -0.1834085389192673 [Eh]
	 Correlation Energy        =      -0.2468371597764913 [Eh]
	 Total Energy              =    -459.8204060871242973 [Eh]
	 SCS Total Energy          =    -459.8148020476700140 [Eh]
                               Psi4 1.9 release
    Molecular point group: c1

    Geometry (in Bohr), charge = -1, multiplicity = 1:

       Center              X                  Y                   Z               Mass
    ------------   -----------------  -----------------  -----------------  -----------------
         CL           0.000000000000     0.000000000000     0.000000000000    34.968852682000
         O           -4.634422931583     2.228962200596    -2.615044586383    15.994914619570
         H           -3.473299611056     1.194605488017    -1.691308661737     1.007825032230
         H           -4.007026299026     3.832285213931    -3.059708482060     1.007825032230
         O           -2.206716344647    -5.517839659616    -1.775066992796    15.994914619570
         H           -3.334875282640    -5.404898288002    -0.363415120913     1.007825032230
         H           -1.328067395628    -3.954937888104    -1.571845845264     1.007825032230
         O            2.110778728709     5.462550052638    -0.518542738552    15.994914619570
         H            2.031088977999     3.629145324623    -0.751956040390     1.007825032230
         H            3.606086886440     6.017288605396    -1.326073734565     1.007825032230
         O            2.310388609615    -0.685851530795    -5.789206220958    15.994914619570
         H            3.900540231857    -1.432871606546    -5.144189782008     1.007825032230
         H            1.237687464225    -0.066629853458    -4.291571810367     1.007825032230

  Charge       = -1
  Multiplicity = 1
  Basis Set: AUG-CC-PVTZ
    Blend: AUG-CC-PVTZ
  Basis Set: (AUG-CC-PVTZ AUX)
    Blend: AUG-CC-PVTZ-JKFIT

    Orbital Energies [Eh]
    ---------------------

    Doubly Occupied:

       1A   -104.584146     2A    -20.419730     3A    -20.416714
       4A    -20.410798     5A    -20.389410     6A    -10.309763
       7A     -7.775850     8A     -7.775819     9A     -7.775769
      10A     -1.202978    11A     -1.202359    12A     -1.184304
      13A     -1.175857    14A     -0.830650    15A     -0.576937
      16A     -0.572558    17A     -0.553772    18A     -0.549717
      19A     -0.445592    20A     -0.436095    21A     -0.421370
      22A     -0.407878    23A     -0.362985    24A     -0.357928
      25A     -0.355343    26A     -0.342338    27A     -0.242582
      28A     -0.238389    29A     -0.236800

  @DF-RHF Final Energy:  -763.85727158278769

   => Energetics <=

    Nuclear Repulsion Energy =            225.4496871989089755
    One-Electron Energy =               -1515.5050536871069653
    Two-Electron Energy =                 526.1980949054102439
    Total Energy =                       -763.8572715827876891
 Dipole X            :         22.0720604          -20.7276405            1.3444199
 Dipole Y            :        -15.5283056           15.7165555            0.1882499
 Dipole Z            :        105.5572612         -103.7829538            1.7743074
 Magnitude           :                                                    2.2340702
  Basis Set: (AUG-CC-PVTZ AUX)
    Blend: AUG-CC-PVTZ-RI
	 Reference Energy          =    -763.8572715827876891 [Eh]
	 Singles Energy            =      -0.0000000000000000 [Eh]
	 Same-Spin Energy          =      -0.3469673496796432 [Eh]
	 Opposite-Spin Energy      =      -1.0555680812339061 [Eh]
	 Correlation Energy        =      -1.4025354309135494 [Eh]
	 Total Energy              =    -765.2598070137012201 [Eh]

	 ================> DF-SCS-MP2 Energies <==================
	-----------------------------------------------------------
	 SCS Same-Spin Scale       =       0.3333333333333333 [-]
	 SCS Opposite-Spin Scale   =       1.2000000000000000 [-]
	 SCS Same-Spin Energy      =      -0.1156557832265477 [Eh]
	 SCS Opposite-Spin Energy  =      -1.2666816974806874 [Eh]
	 SCS Correlation Energy    =      -1.3823374807072351 [Eh]
	 SCS Total Energy          =    -765.2396090634948678 [Eh]
	-----------------------------------------------------------

*** Psi4 exiting successfully. Buy a developer a beer!
