                               Psi4 1.8.2 release

  ==> Input File <==

--------------------------------------------------------------------------
MEMORY 60 GB

molecule dimer {
0 1
Gh(Cl)     0.000000     0.000000     0.000000
O         -2.053684     2.304311     0.217814
H         -1.456383     2.956946     0.610925
H         -1.443301     1.666290    -0.182013
Gh(O)      2.189604     1.887725    -1.286451
Gh(H)      1.490313     1.304328    -0.911948
Gh(H)      2.485988     1.522653    -2.115611
Gh(O)      1.794090    -2.315229    -1.369329
Gh(H)      1.050639    -2.681183    -1.877896
Gh(H)      1.473504    -1.592214    -0.862287
Gh(O)     -1.373675     0.424170    -2.840394
Gh(H)     -0.768222     0.275953    -3.546434
Gh(H)     -0.987035     0.245546    -1.972930

units ang
no_reorient
no_com
symmetry c1
}

set {
basis        aug-cc-pVTZ
scf_type     df
}

energy("mp2")
--------------------------------------------------------------------------

    Molecular point group: c1

    Geometry (in Angstrom), charge = 0, multiplicity = 1:

       Center              X                  Y                   Z               Mass
    ------------   -----------------  -----------------  -----------------  -----------------
      Gh(CL)          0.000000000000     0.000000000000     0.000000000000    34.968852682000
         O           -2.053684000000     2.304311000000     0.217814000000    15.994914619570
         H           -1.456383000000     2.956946000000     0.610925000000     1.007825032230
         H           -1.443301000000     1.666290000000    -0.182013000000     1.007825032230
      Gh(O)           2.189604000000     1.887725000000    -1.286451000000    15.994914619570
      Gh(H)           1.490313000000     1.304328000000    -0.911948000000     1.007825032230
      Gh(H)           2.485988000000     1.522653000000    -2.115611000000     1.007825032230
      Gh(O)           1.794090000000    -2.315229000000    -1.369329000000    15.994914619570
      Gh(H)           1.050639000000    -2.681183000000    -1.877896000000     1.007825032230
      Gh(H)           1.473504000000    -1.592214000000    -0.862287000000     1.007825032230
      Gh(O)          -1.373675000000     0.424170000000    -2.840394000000    15.994914619570
      Gh(H)          -0.768222000000     0.275953000000    -3.546434000000     1.007825032230
      Gh(H)          -0.987035000000     0.245546000000    -1.972930000000     1.007825032230

  Charge       = 0
  Multiplicity = 1
  Basis Set: AUG-CC-PVTZ
    Blend: AUG-CC-PVTZ
  Basis Set: (AUG-CC-PVTZ AUX)
    Blend: AUG-CC-PVTZ-JKFIT

    Orbital Energies [Eh]
    ---------------------

    Doubly Occupied:

       1A    -20.569864     2A     -1.348859     3A     -0.708377
       4A     -0.585896     5A     -0.509895

  @DF-RHF Final Energy:   -76.05953247651662

   => Energetics <=

    Nuclear Repulsion Energy =              9.0897977664925893
    One-Electron Energy =                -122.8528739397080329
    Two-Electron Energy =                  37.7035436966988158
    Total Energy =                        -76.0595324765166225
 Dipole X            :         37.3210421          -36.5268111            0.7942310
 Dipole Y            :        -43.5633990           43.5727834            0.0093844
 Dipole Z            :         -4.1078611            4.1033967           -0.0044645
 Magnitude           :                                                    0.7942990
  Basis Set: (AUG-CC-PVTZ AUX)
    Blend: AUG-CC-PVTZ-RI
	 Reference Energy          =     -76.0595324765166225 [Eh]
	 Singles Energy            =      -0.0000000000000000 [Eh]
	 Same-Spin Energy          =      -0.0686277329273254 [Eh]
	 Opposite-Spin Energy      =      -0.2165029434973507 [Eh]
	 Correlation Energy        =      -0.2851306764246760 [Eh]
	 Total Energy              =     -76.3446631529412940 [Eh]

	 ================> DF-SCS-MP2 Energies <==================
	-----------------------------------------------------------
	 SCS Same-Spin Scale       =       0.3333333333333333 [-]
	 SCS Opposite-Spin Scale   =       1.2000000000000000 [-]
	 SCS Same-Spin Energy      =      -0.0228759109757751 [Eh]
	 SCS Opposite-Spin Energy  =      -0.2598035321968208 [Eh]
	 SCS Correlation Energy    =      -0.2826794431725959 [Eh]
	 SCS Total Energy          =     -76.3422119196892197 [Eh]
	-----------------------------------------------------------

*** Psi4 exiting successfully. Buy a developer a beer!
