                               Psi4 1.8.2 release

  ==> Input File <==

--------------------------------------------------------------------------
MEMORY 60 GB

molecule dimer {
-1 1
Cl         0.000000     0.000000     0.000000
O          2.094734     2.420118    -0.988704
H          2.288132     3.072303    -0.322075
H          1.277471     1.962329    -0.721292
O          1.301190    -0.283191    -2.893486
H          0.711077     0.041554    -3.544511
H          0.857715    -0.109161    -2.051104
O         -1.945290     2.393035     1.309219
H         -2.923087     2.279788     1.331312
H         -1.540510     1.545688     0.980189
O          0.845936    -3.031399    -0.329358
H          0.345432    -2.188035    -0.437677
H          1.647577    -2.766488    -0.821843
O          1.967141     1.310230     2.500265
H          1.474350     0.935107     1.769862
H          2.839433     0.878062     2.441727

units ang
no_reorient
no_com
symmetry c1
}

set {
basis        aug-cc-pVTZ
scf_type     df
}

energy("mp2")
--------------------------------------------------------------------------

    Molecular point group: c1

    Geometry (in Angstrom), charge = -1, multiplicity = 1:

       Center              X                  Y                   Z               Mass
    ------------   -----------------  -----------------  -----------------  -----------------
         CL           0.000000000000     0.000000000000     0.000000000000    34.968852682000
         O            2.094734000000     2.420118000000    -0.988704000000    15.994914619570
         H            2.288132000000     3.072303000000    -0.322075000000     1.007825032230
         H            1.277471000000     1.962329000000    -0.721292000000     1.007825032230
         O            1.301190000000    -0.283191000000    -2.893486000000    15.994914619570
         H            0.711077000000     0.041554000000    -3.544511000000     1.007825032230
         H            0.857715000000    -0.109161000000    -2.051104000000     1.007825032230
         O           -1.945290000000     2.393035000000     1.309219000000    15.994914619570
         H           -2.923087000000     2.279788000000     1.331312000000     1.007825032230
         H           -1.540510000000     1.545688000000     0.980189000000     1.007825032230
         O            0.845936000000    -3.031399000000    -0.329358000000    15.994914619570
         H            0.345432000000    -2.188035000000    -0.437677000000     1.007825032230
         H            1.647577000000    -2.766488000000    -0.821843000000     1.007825032230
         O            1.967141000000     1.310230000000     2.500265000000    15.994914619570
         H            1.474350000000     0.935107000000     1.769862000000     1.007825032230
         H            2.839433000000     0.878062000000     2.441727000000     1.007825032230

  Charge       = -1
  Multiplicity = 1
  Basis Set: AUG-CC-PVTZ
    Blend: AUG-CC-PVTZ
  Basis Set: (AUG-CC-PVTZ AUX)
    Blend: AUG-CC-PVTZ-JKFIT

    Orbital Energies [Eh]
    ---------------------

    Doubly Occupied:

       1A   -104.596239     2A    -20.429783     3A    -20.426262
       4A    -20.416843     5A    -20.412024     6A    -20.411667
       7A    -10.321662     8A     -7.787793     9A     -7.787733
      10A     -7.787692    11A     -1.208582    12A     -1.206450
      13A     -1.200956    14A     -1.196400    15A     -1.188189
      16A     -0.841503    17A     -0.576867    18A     -0.572869
      19A     -0.569709    20A     -0.568213    21A     -0.534950
      22A     -0.447123    23A     -0.442845    24A     -0.440190
      25A     -0.435683    26A     -0.433457    27A     -0.371755
      28A     -0.368544    29A     -0.361555    30A     -0.360545
      31A     -0.353696    32A     -0.254342    33A     -0.251299
      34A     -0.248527

  @DF-RHF Final Energy:  -839.93152819764657

   => Energetics <=

    Nuclear Repulsion Energy =            301.5851494170899514
    One-Electron Energy =               -1773.4094520252706388
    Two-Electron Energy =                 631.8927744105341162
    Total Energy =                       -839.9315281976465712
 Dipole X            :        -78.9824146           77.6437027           -1.3387120
 Dipole Y            :        -53.3092413           53.1419162           -0.1673250
 Dipole Z            :          8.4815598           -8.6774787           -0.1959190
 Magnitude           :                                                    1.3632797
  Basis Set: (AUG-CC-PVTZ AUX)
    Blend: AUG-CC-PVTZ-RI
	 Reference Energy          =    -839.9315281976465712 [Eh]
	 Singles Energy            =      -0.0000000000000000 [Eh]
	 Same-Spin Energy          =      -0.4167595057899626 [Eh]
	 Opposite-Spin Energy      =      -1.2737546563870199 [Eh]
	 Correlation Energy        =      -1.6905141621769826 [Eh]
	 Total Energy              =    -841.6220423598235811 [Eh]

	 ================> DF-SCS-MP2 Energies <==================
	-----------------------------------------------------------
	 SCS Same-Spin Scale       =       0.3333333333333333 [-]
	 SCS Opposite-Spin Scale   =       1.2000000000000000 [-]
	 SCS Same-Spin Energy      =      -0.1389198352633209 [Eh]
	 SCS Opposite-Spin Energy  =      -1.5285055876644238 [Eh]
	 SCS Correlation Energy    =      -1.6674254229277445 [Eh]
	 SCS Total Energy          =    -841.5989536205743207 [Eh]
	-----------------------------------------------------------

*** Psi4 exiting successfully. Buy a developer a beer!
