                               Psi4 1.8.2 release

  ==> Input File <==

--------------------------------------------------------------------------
MEMORY 60 GB

molecule dimer {
0 1
Gh(Cl)     0.000000     0.000000     0.000000
Gh(O)     -0.939928     3.138189    -0.000936
Gh(H)     -0.820702     2.238321     0.375766
Gh(H)     -0.712248     3.077225    -0.943590
Gh(O)      1.774428     1.345338    -2.573145
Gh(H)      1.119620     1.302239    -1.824535
Gh(H)      1.660456     2.173050    -2.996113
Gh(O)     -2.265274    -2.324267     0.705293
Gh(H)     -2.834139    -2.738348     0.091603
Gh(H)     -1.824269    -1.638760     0.205252
O          0.930253    -0.455464     2.995589
H          0.429133     0.276974     3.481595
H          0.852726    -0.389826     2.071742

units ang
no_reorient
no_com
symmetry c1
}

set {
basis        aug-cc-pVTZ
scf_type     df
}

energy("mp2")
--------------------------------------------------------------------------

    Molecular point group: c1

    Geometry (in Angstrom), charge = 0, multiplicity = 1:

       Center              X                  Y                   Z               Mass
    ------------   -----------------  -----------------  -----------------  -----------------
      Gh(CL)          0.000000000000     0.000000000000     0.000000000000    34.968852682000
      Gh(O)          -0.939928000000     3.138189000000    -0.000936000000    15.994914619570
      Gh(H)          -0.820702000000     2.238321000000     0.375766000000     1.007825032230
      Gh(H)          -0.712248000000     3.077225000000    -0.943590000000     1.007825032230
      Gh(O)           1.774428000000     1.345338000000    -2.573145000000    15.994914619570
      Gh(H)           1.119620000000     1.302239000000    -1.824535000000     1.007825032230
      Gh(H)           1.660456000000     2.173050000000    -2.996113000000     1.007825032230
      Gh(O)          -2.265274000000    -2.324267000000     0.705293000000    15.994914619570
      Gh(H)          -2.834139000000    -2.738348000000     0.091603000000     1.007825032230
      Gh(H)          -1.824269000000    -1.638760000000     0.205252000000     1.007825032230
         O            0.930253000000    -0.455464000000     2.995589000000    15.994914619570
         H            0.429133000000     0.276974000000     3.481595000000     1.007825032230
         H            0.852726000000    -0.389826000000     2.071742000000     1.007825032230

  Charge       = 0
  Multiplicity = 1
  Basis Set: AUG-CC-PVTZ
    Blend: AUG-CC-PVTZ
  Basis Set: (AUG-CC-PVTZ AUX)
    Blend: AUG-CC-PVTZ-JKFIT

    Orbital Energies [Eh]
    ---------------------

    Doubly Occupied:

       1A    -20.565272     2A     -1.342856     3A     -0.725431
       4A     -0.566302     5A     -0.506835

  @DF-RHF Final Energy:   -76.05493883133167

   => Energetics <=

    Nuclear Repulsion Energy =              9.0663163795787938
    One-Electron Energy =                -122.8291147148911051
    Two-Electron Energy =                  37.7078595039806430
    Total Energy =                        -76.0549388313316683
 Dipole X            :        -16.8749367           16.4857496           -0.3891871
 Dipole Y            :          7.6351965           -7.0988771            0.5363193
 Dipole Z            :        -56.0872614           55.7810284           -0.3062331
 Magnitude           :                                                    0.7299888
  Basis Set: (AUG-CC-PVTZ AUX)
    Blend: AUG-CC-PVTZ-RI
	 Reference Energy          =     -76.0549388313316683 [Eh]
	 Singles Energy            =      -0.0000000000000000 [Eh]
	 Same-Spin Energy          =      -0.0685072117381316 [Eh]
	 Opposite-Spin Energy      =      -0.2162008388118090 [Eh]
	 Correlation Energy        =      -0.2847080505499406 [Eh]
	 Total Energy              =     -76.3396468818816061 [Eh]

	 ================> DF-SCS-MP2 Energies <==================
	-----------------------------------------------------------
	 SCS Same-Spin Scale       =       0.3333333333333333 [-]
	 SCS Opposite-Spin Scale   =       1.2000000000000000 [-]
	 SCS Same-Spin Energy      =      -0.0228357372460439 [Eh]
	 SCS Opposite-Spin Energy  =      -0.2594410065741708 [Eh]
	 SCS Correlation Energy    =      -0.2822767438202147 [Eh]
	 SCS Total Energy          =     -76.3372155751518875 [Eh]
	-----------------------------------------------------------

*** Psi4 exiting successfully. Buy a developer a beer!
