                               Psi4 1.8.2 release

  ==> Input File <==

--------------------------------------------------------------------------
MEMORY 60 GB

molecule dimer {
-1 1
Cl         0.000000     0.000000     0.000000
Gh(O)      2.247823     1.054428     2.091133
Gh(H)      1.975481     0.561471     1.348335
Gh(H)      2.892441     0.520458     2.606351
Gh(O)      0.349162    -2.885324     1.690405
Gh(H)      0.406239    -3.703972     1.217566
Gh(H)      0.590132    -2.160564     1.081020
Gh(O)      1.622947     1.853072    -2.013003
Gh(H)      2.373746     1.475204    -2.405921
Gh(H)      1.243024     1.154997    -1.444838

units ang
no_reorient
no_com
symmetry c1
}

set {
basis        aug-cc-pVTZ
scf_type     df
}

energy("mp2")
--------------------------------------------------------------------------

    Molecular point group: c1

    Geometry (in Angstrom), charge = -1, multiplicity = 1:

       Center              X                  Y                   Z               Mass
    ------------   -----------------  -----------------  -----------------  -----------------
         CL           0.000000000000     0.000000000000     0.000000000000    34.968852682000
      Gh(O)           2.247823000000     1.054428000000     2.091133000000    15.994914619570
      Gh(H)           1.975481000000     0.561471000000     1.348335000000     1.007825032230
      Gh(H)           2.892441000000     0.520458000000     2.606351000000     1.007825032230
      Gh(O)           0.349162000000    -2.885324000000     1.690405000000    15.994914619570
      Gh(H)           0.406239000000    -3.703972000000     1.217566000000     1.007825032230
      Gh(H)           0.590132000000    -2.160564000000     1.081020000000     1.007825032230
      Gh(O)           1.622947000000     1.853072000000    -2.013003000000    15.994914619570
      Gh(H)           2.373746000000     1.475204000000    -2.405921000000     1.007825032230
      Gh(H)           1.243024000000     1.154997000000    -1.444838000000     1.007825032230

  Charge       = -1
  Multiplicity = 1
  Basis Set: AUG-CC-PVTZ
    Blend: AUG-CC-PVTZ
  Basis Set: (AUG-CC-PVTZ AUX)
    Blend: AUG-CC-PVTZ-JKFIT

    Orbital Energies [Eh]
    ---------------------

    Doubly Occupied:

       1A   -104.506781     2A    -10.229940     3A     -7.696015
       4A     -7.695996     5A     -7.695966     6A     -0.733483
       7A     -0.150322     8A     -0.150320     9A     -0.150312

  @DF-RHF Final Energy:  -459.57354077761079

   => Energetics <=

    Nuclear Repulsion Energy =              0.0000000000000000
    One-Electron Energy =                -641.1288213631062263
    Two-Electron Energy =                 181.5552805854954102
    Total Energy =                       -459.5735407776107877
 Dipole X            :          0.0004063            0.0000000            0.0004063
 Dipole Y            :          0.0002251            0.0000000            0.0002251
 Dipole Z            :          0.0000666            0.0000000            0.0000666
 Magnitude           :                                                    0.0004693
  Basis Set: (AUG-CC-PVTZ AUX)
    Blend: AUG-CC-PVTZ-RI
	 Reference Energy          =    -459.5735407776107877 [Eh]
	 Singles Energy            =      -0.0000000000000000 [Eh]
	 Same-Spin Energy          =      -0.0630570332157372 [Eh]
	 Opposite-Spin Energy      =      -0.1818724976900939 [Eh]
	 Correlation Energy        =      -0.2449295309058312 [Eh]
	 Total Energy              =    -459.8184703085166234 [Eh]

	 ================> DF-SCS-MP2 Energies <==================
	-----------------------------------------------------------
	 SCS Same-Spin Scale       =       0.3333333333333333 [-]
	 SCS Opposite-Spin Scale   =       1.2000000000000000 [-]
	 SCS Same-Spin Energy      =      -0.0210190110719124 [Eh]
	 SCS Opposite-Spin Energy  =      -0.2182469972281127 [Eh]
	 SCS Correlation Energy    =      -0.2392660083000251 [Eh]
	 SCS Total Energy          =    -459.8128067859108228 [Eh]
	-----------------------------------------------------------

*** Psi4 exiting successfully. Buy a developer a beer!
