                               Psi4 1.8.2 release

  ==> Input File <==

--------------------------------------------------------------------------
MEMORY 60 GB

molecule dimer {
-1 1
Cl         0.000000     0.000000     0.000000
Gh(O)     -0.492503    -3.205237    -1.072721
Gh(H)     -0.160426    -3.707051    -0.306645
Gh(H)     -0.669682    -2.344857    -0.639707
Gh(O)      1.175860     2.754777    -0.846269
Gh(H)      0.509189     2.080200    -0.680117
Gh(H)      0.850151     3.534482    -0.372311
Gh(O)      1.094463     2.253006     1.985402
Gh(H)      0.167817     2.461694     2.105720
Gh(H)      1.107492     1.486664     1.400269
Gh(O)     -2.181360    -0.134466     2.316522
Gh(H)     -2.488476    -0.815776     1.739941
Gh(H)     -1.316019     0.166729     1.976239
Gh(O)      2.825452    -0.879212     0.944999
Gh(H)      1.891967    -0.727444     0.892758
Gh(H)      3.307089    -0.017689     1.010326

units ang
no_reorient
no_com
symmetry c1
}

set {
basis        aug-cc-pVTZ
scf_type     df
}

energy("mp2")
--------------------------------------------------------------------------

    Molecular point group: c1

    Geometry (in Angstrom), charge = -1, multiplicity = 1:

       Center              X                  Y                   Z               Mass
    ------------   -----------------  -----------------  -----------------  -----------------
         CL           0.000000000000     0.000000000000     0.000000000000    34.968852682000
      Gh(O)          -0.492503000000    -3.205237000000    -1.072721000000    15.994914619570
      Gh(H)          -0.160426000000    -3.707051000000    -0.306645000000     1.007825032230
      Gh(H)          -0.669682000000    -2.344857000000    -0.639707000000     1.007825032230
      Gh(O)           1.175860000000     2.754777000000    -0.846269000000    15.994914619570
      Gh(H)           0.509189000000     2.080200000000    -0.680117000000     1.007825032230
      Gh(H)           0.850151000000     3.534482000000    -0.372311000000     1.007825032230
      Gh(O)           1.094463000000     2.253006000000     1.985402000000    15.994914619570
      Gh(H)           0.167817000000     2.461694000000     2.105720000000     1.007825032230
      Gh(H)           1.107492000000     1.486664000000     1.400269000000     1.007825032230
      Gh(O)          -2.181360000000    -0.134466000000     2.316522000000    15.994914619570
      Gh(H)          -2.488476000000    -0.815776000000     1.739941000000     1.007825032230
      Gh(H)          -1.316019000000     0.166729000000     1.976239000000     1.007825032230
      Gh(O)           2.825452000000    -0.879212000000     0.944999000000    15.994914619570
      Gh(H)           1.891967000000    -0.727444000000     0.892758000000     1.007825032230
      Gh(H)           3.307089000000    -0.017689000000     1.010326000000     1.007825032230

  Charge       = -1
  Multiplicity = 1
  Basis Set: AUG-CC-PVTZ
    Blend: AUG-CC-PVTZ
  Basis Set: (AUG-CC-PVTZ AUX)
    Blend: AUG-CC-PVTZ-JKFIT

    Orbital Energies [Eh]
    ---------------------

    Doubly Occupied:

       1A   -104.507160     2A    -10.230031     3A     -7.696099
       4A     -7.696090     5A     -7.696077     6A     -0.733466
       7A     -0.150311     8A     -0.150306     9A     -0.150302

  @DF-RHF Final Energy:  -459.57357641901126

   => Energetics <=

    Nuclear Repulsion Energy =              0.0000000000000000
    One-Electron Energy =                -641.1274815630282546
    Two-Electron Energy =                 181.5539051440170226
    Total Energy =                       -459.5735764190112604
 Dipole X            :          0.0003282            0.0000000            0.0003282
 Dipole Y            :         -0.0000053            0.0000000           -0.0000053
 Dipole Z            :          0.0000761            0.0000000            0.0000761
 Magnitude           :                                                    0.0003370
  Basis Set: (AUG-CC-PVTZ AUX)
    Blend: AUG-CC-PVTZ-RI
	 Reference Energy          =    -459.5735764190112604 [Eh]
	 Singles Energy            =      -0.0000000000000000 [Eh]
	 Same-Spin Energy          =      -0.0634886134610134 [Eh]
	 Opposite-Spin Energy      =      -0.1837644775865088 [Eh]
	 Correlation Energy        =      -0.2472530910475221 [Eh]
	 Total Energy              =    -459.8208295100587861 [Eh]

	 ================> DF-SCS-MP2 Energies <==================
	-----------------------------------------------------------
	 SCS Same-Spin Scale       =       0.3333333333333333 [-]
	 SCS Opposite-Spin Scale   =       1.2000000000000000 [-]
	 SCS Same-Spin Energy      =      -0.0211628711536711 [Eh]
	 SCS Opposite-Spin Energy  =      -0.2205173731038106 [Eh]
	 SCS Correlation Energy    =      -0.2416802442574817 [Eh]
	 SCS Total Energy          =    -459.8152566632687694 [Eh]
	-----------------------------------------------------------

*** Psi4 exiting successfully. Buy a developer a beer!
