                               Psi4 1.9 release

  ==> Input File <==

--------------------------------------------------------------------------
MEMORY 60 GB

molecule dimer {
-1 1
Cl     0.000000     0.000000     0.000000
--
0 1
O     -0.212648    -0.458124    -3.393214
H     -0.448749    -1.349680    -3.579356
H      0.402197    -0.522361    -2.656061
O      2.027595    -1.452571     2.158350
H      2.804391    -1.701626     1.514130
H      1.635052    -0.772877     1.583500
O      0.444892    -2.976621    -0.997622
H      0.671190    -2.173167    -0.459218
H      1.108987    -3.642094    -0.739784
O     -1.886927    -2.865595     0.501677
H     -2.776314    -2.613300     0.315070
H     -1.242520    -2.183692     0.152953
O     -1.815396     0.378644     2.887949
H     -1.393814     0.212010     2.034179
H     -2.619610     0.917524     2.698395

units ang
no_reorient
no_com
symmetry c1
}

set {
basis        aug-cc-pVTZ
scf_type     df
}

energy("mp2", bsse_type="cp")
--------------------------------------------------------------------------

                               Psi4 1.9 release
    Molecular point group: c1
  Charge       = 0
  Multiplicity = 1
  Basis Set: AUG-CC-PVTZ
    Blend: AUG-CC-PVTZ
  Basis Set: (AUG-CC-PVTZ AUX)
    Blend: AUG-CC-PVTZ-JKFIT
  @DF-RHF Final Energy:  -380.27124584938718
    Total Energy =                       -380.2712458493871850
 Dipole X            :         25.9898017          -25.3205575            0.6692442
 Dipole Y            :        138.0038309         -137.6162796            0.3875513
 Dipole Z            :        -19.9835244           19.1257821           -0.8577423
 Magnitude           :                                                    1.1549051
  Basis Set: (AUG-CC-PVTZ AUX)
    Blend: AUG-CC-PVTZ-RI
	 Reference Energy          =    -380.2712458493871850 [Eh]
	 Singles Energy            =      -0.0000000000000000 [Eh]
	 Same-Spin Energy          =      -0.3463191652280334 [Eh]
	 Opposite-Spin Energy      =      -1.0874087308848972 [Eh]
	 Correlation Energy        =      -1.4337278961129307 [Eh]
	 Total Energy              =    -381.7049737455001264 [Eh]
	 SCS Total Energy          =    -381.6915760481917346 [Eh]
                               Psi4 1.9 release
    Molecular point group: c1
  Multiplicity = 1
  Basis Set: AUG-CC-PVTZ
    Blend: AUG-CC-PVTZ
  Basis Set: (AUG-CC-PVTZ AUX)
    Blend: AUG-CC-PVTZ-JKFIT
  @DF-RHF Final Energy:  -459.57356660563607
    Total Energy =                       -459.5735666056360742
  Basis Set: (AUG-CC-PVTZ AUX)
	 Singles Energy            =      -0.0000000000000000 [Eh]
	 Same-Spin Energy          =      -0.0633762912617260 [Eh]
	 Opposite-Spin Energy      =      -0.1830899489607489 [Eh]
	 Correlation Energy        =      -0.2464662402224748 [Eh]
	 Total Energy              =    -459.8200328458585773 [Eh]
	 SCS Total Energy          =    -459.8143999748095325 [Eh]
                               Psi4 1.9 release
    Molecular point group: c1

    Geometry (in Bohr), charge = -1, multiplicity = 1:

       Center              X                  Y                   Z               Mass
    ------------   -----------------  -----------------  -----------------  -----------------
         CL           0.000000000000     0.000000000000     0.000000000000    34.968852682000
         O           -0.401846481126    -0.865728891499    -6.412245145069    15.994914619570
         H           -0.848012709073    -2.550525557008    -6.764002545514     1.007825032230
         H            0.760042178481    -0.987119228620    -5.019227862510     1.007825032230
         O            3.831599243348    -2.744961367782     4.078690382882    15.994914619570
         H            5.299530938699    -3.215607107958     2.861291018339     1.007825032230
         H            3.089800480882    -1.460525858665     2.992381319662     1.007825032230
         O            0.840724035407    -5.624998469286    -1.885232356731    15.994914619570
         H            1.268365278146    -4.106690454883    -0.867796251880     1.007825032230
         H            2.095681706693    -6.882560183173    -1.397989151996     1.007825032230
         O           -3.565775248732    -5.415189736481     0.948032133441    15.994914619570
         H           -5.246473098274    -4.938421283659     0.595396010348     1.007825032230
         H           -2.348022505404    -4.126579822353     0.289039280067     1.007825032230
         O           -3.430601249252     0.715533459048     5.457432674290    15.994914619570
         H           -2.633926729829     0.400640835858     3.844041200158     1.007825032230
         H           -4.950345455511     1.733869073535     5.099227528305     1.007825032230

  Charge       = -1
  Multiplicity = 1
  Basis Set: AUG-CC-PVTZ
    Blend: AUG-CC-PVTZ
  Basis Set: (AUG-CC-PVTZ AUX)
    Blend: AUG-CC-PVTZ-JKFIT

    Orbital Energies [Eh]
    ---------------------

    Doubly Occupied:

       1A   -104.580848     2A    -20.433344     3A    -20.426695
       4A    -20.420913     5A    -20.418212     6A    -20.399707
       7A    -10.305706     8A     -7.771825     9A     -7.771774
      10A     -7.771751    11A     -1.212874    12A     -1.202575
      13A     -1.193277    14A     -1.192953    15A     -1.178769
      16A     -0.821972    17A     -0.577794    18A     -0.575986
      19A     -0.561548    20A     -0.551546    21A     -0.534707
      22A     -0.452523    23A     -0.447871    24A     -0.440540
      25A     -0.431439    26A     -0.409932    27A     -0.372280
      28A     -0.368528    29A     -0.367003    30A     -0.359684
      31A     -0.339335    32A     -0.236372    33A     -0.233367
      34A     -0.232541

  @DF-RHF Final Energy:  -839.90648995912102

   => Energetics <=

    Nuclear Repulsion Energy =            305.7280490700923679
    One-Electron Energy =               -1782.0766937533044256
    Two-Electron Energy =                 636.4421547240910968
    Total Energy =                       -839.9064899591210178
 Dipole X            :         25.9662433          -25.3205575            0.6456858
 Dipole Y            :        138.8139406         -137.6162796            1.1976610
 Dipole Z            :        -20.1985135           19.1257821           -1.0727315
 Magnitude           :                                                    1.7326439
  Basis Set: (AUG-CC-PVTZ AUX)
    Blend: AUG-CC-PVTZ-RI
	 Reference Energy          =    -839.9064899591210178 [Eh]
	 Singles Energy            =      -0.0000000000000000 [Eh]
	 Same-Spin Energy          =      -0.4173078940995282 [Eh]
	 Opposite-Spin Energy      =      -1.2758422215098546 [Eh]
	 Correlation Energy        =      -1.6931501156093827 [Eh]
	 Total Energy              =    -841.5996400747303596 [Eh]

	 ================> DF-SCS-MP2 Energies <==================
	-----------------------------------------------------------
	 SCS Same-Spin Scale       =       0.3333333333333333 [-]
	 SCS Opposite-Spin Scale   =       1.2000000000000000 [-]
	 SCS Same-Spin Energy      =      -0.1391026313665094 [Eh]
	 SCS Opposite-Spin Energy  =      -1.5310106658118254 [Eh]
	 SCS Correlation Energy    =      -1.6701132971783348 [Eh]
	 SCS Total Energy          =    -841.5766032562993360 [Eh]
	-----------------------------------------------------------

*** Psi4 exiting successfully. Buy a developer a beer!
