                               Psi4 1.8.2 release

  ==> Input File <==

--------------------------------------------------------------------------
MEMORY 60 GB

molecule dimer {
0 1
Gh(Cl)     0.000000     0.000000     0.000000
O          3.112411    -0.510579     1.136854
H          2.370520    -0.257961     1.690682
H          3.753338    -1.047204     1.647019
Gh(O)     -2.960096    -1.202549     0.650023
Gh(H)     -2.871814    -2.140675     0.467832
Gh(H)     -2.150687    -0.805819     0.422640
Gh(O)     -2.286463     2.389191     0.707858
Gh(H)     -1.879680     1.516328     0.601139
Gh(H)     -3.105064     2.383095     0.187160
Gh(O)      0.222845     1.410868     2.777416
Gh(H)      0.764077     2.178359     2.611442
Gh(H)      0.077727     1.005070     1.910475

units ang
no_reorient
no_com
symmetry c1
}

set {
basis        aug-cc-pVTZ
scf_type     df
}

energy("mp2")
--------------------------------------------------------------------------

    Molecular point group: c1

    Geometry (in Angstrom), charge = 0, multiplicity = 1:

       Center              X                  Y                   Z               Mass
    ------------   -----------------  -----------------  -----------------  -----------------
      Gh(CL)          0.000000000000     0.000000000000     0.000000000000    34.968852682000
         O            3.112411000000    -0.510579000000     1.136854000000    15.994914619570
         H            2.370520000000    -0.257961000000     1.690682000000     1.007825032230
         H            3.753338000000    -1.047204000000     1.647019000000     1.007825032230
      Gh(O)          -2.960096000000    -1.202549000000     0.650023000000    15.994914619570
      Gh(H)          -2.871814000000    -2.140675000000     0.467832000000     1.007825032230
      Gh(H)          -2.150687000000    -0.805819000000     0.422640000000     1.007825032230
      Gh(O)          -2.286463000000     2.389191000000     0.707858000000    15.994914619570
      Gh(H)          -1.879680000000     1.516328000000     0.601139000000     1.007825032230
      Gh(H)          -3.105064000000     2.383095000000     0.187160000000     1.007825032230
      Gh(O)           0.222845000000     1.410868000000     2.777416000000    15.994914619570
      Gh(H)           0.764077000000     2.178359000000     2.611442000000     1.007825032230
      Gh(H)           0.077727000000     1.005070000000     1.910475000000     1.007825032230

  Charge       = 0
  Multiplicity = 1
  Basis Set: AUG-CC-PVTZ
    Blend: AUG-CC-PVTZ
  Basis Set: (AUG-CC-PVTZ AUX)
    Blend: AUG-CC-PVTZ-JKFIT

    Orbital Energies [Eh]
    ---------------------

    Doubly Occupied:

       1A    -20.566551     2A     -1.343378     3A     -0.722009
       4A     -0.571089     5A     -0.507532

  @DF-RHF Final Energy:   -76.05871132287865

   => Energetics <=

    Nuclear Repulsion Energy =              9.0665292999230029
    One-Electron Energy =                -122.8293572961609925
    Two-Electron Energy =                  37.7041166733593300
    Total Energy =                        -76.0587113228786507
 Dipole X            :        -58.6957186           58.6252495           -0.0704691
 Dipole Y            :          9.9954462          -10.1852402           -0.1897940
 Dipole Z            :        -22.7778520           23.4940824            0.7162304
 Magnitude           :                                                    0.7442941
  Basis Set: (AUG-CC-PVTZ AUX)
    Blend: AUG-CC-PVTZ-RI
	 Reference Energy          =     -76.0587113228786507 [Eh]
	 Singles Energy            =      -0.0000000000000000 [Eh]
	 Same-Spin Energy          =      -0.0685012053998287 [Eh]
	 Opposite-Spin Energy      =      -0.2158214084477773 [Eh]
	 Correlation Energy        =      -0.2843226138476060 [Eh]
	 Total Energy              =     -76.3430339367262576 [Eh]

	 ================> DF-SCS-MP2 Energies <==================
	-----------------------------------------------------------
	 SCS Same-Spin Scale       =       0.3333333333333333 [-]
	 SCS Opposite-Spin Scale   =       1.2000000000000000 [-]
	 SCS Same-Spin Energy      =      -0.0228337351332762 [Eh]
	 SCS Opposite-Spin Energy  =      -0.2589856901373327 [Eh]
	 SCS Correlation Energy    =      -0.2818194252706090 [Eh]
	 SCS Total Energy          =     -76.3405307481492628 [Eh]
	-----------------------------------------------------------

*** Psi4 exiting successfully. Buy a developer a beer!
