                               Psi4 1.9 release

  ==> Input File <==

--------------------------------------------------------------------------
MEMORY 60 GB

molecule dimer {
-1 1
Cl     0.000000     0.000000     0.000000
--
0 1
O     -0.847666     1.123183    -2.635575
H     -0.437574     0.880472    -1.760595
H     -0.764447     2.074687    -2.698382
O     -1.923843    -1.041384     2.309194
H     -0.989393    -0.988290     2.002993
H     -1.922107    -1.234669     3.265432
O     -1.085792     2.891213     1.281354
H     -0.827850     2.048774     0.893722
H     -1.837629     3.227416     0.720403
O      2.086666    -0.280613     2.774800
H      2.485722    -0.200190     3.622985
H      2.716073     0.112459     2.212730
O     -3.218433     0.993576    -0.104983
H     -3.390588     0.720767    -1.017887
H     -2.341262     0.608606     0.113792

units ang
no_reorient
no_com
symmetry c1
}

set {
basis        aug-cc-pVTZ
scf_type     df
}

energy("mp2", bsse_type="cp")
--------------------------------------------------------------------------

                               Psi4 1.9 release
    Molecular point group: c1
  Charge       = 0
  Multiplicity = 1
  Basis Set: AUG-CC-PVTZ
    Blend: AUG-CC-PVTZ
  Basis Set: (AUG-CC-PVTZ AUX)
    Blend: AUG-CC-PVTZ-JKFIT
  @DF-RHF Final Energy:  -380.29264222564086
    Total Energy =                       -380.2926422256408614
 Dipole X            :         90.9463293          -89.2358893            1.7104399
 Dipole Y            :        -69.5113177           69.4244409           -0.0868768
 Dipole Z            :        -68.5780658           68.6981833            0.1201175
 Magnitude           :                                                    1.7168519
  Basis Set: (AUG-CC-PVTZ AUX)
    Blend: AUG-CC-PVTZ-RI
	 Reference Energy          =    -380.2926422256408614 [Eh]
	 Singles Energy            =      -0.0000000000000000 [Eh]
	 Same-Spin Energy          =      -0.3447871960747976 [Eh]
	 Opposite-Spin Energy      =      -1.0834699344107313 [Eh]
	 Correlation Energy        =      -1.4282571304855289 [Eh]
	 Total Energy              =    -381.7208993561263810 [Eh]
	 SCS Total Energy          =    -381.7077352122919933 [Eh]
                               Psi4 1.9 release
    Molecular point group: c1
  Multiplicity = 1
  Basis Set: AUG-CC-PVTZ
    Blend: AUG-CC-PVTZ
  Basis Set: (AUG-CC-PVTZ AUX)
    Blend: AUG-CC-PVTZ-JKFIT
  @DF-RHF Final Energy:  -459.57357027216898
    Total Energy =                       -459.5735702721690359
  Basis Set: (AUG-CC-PVTZ AUX)
	 Singles Energy            =      -0.0000000000000000 [Eh]
	 Same-Spin Energy          =      -0.0634518587483492 [Eh]
	 Opposite-Spin Energy      =      -0.1834785173441734 [Eh]
	 Correlation Energy        =      -0.2469303760925226 [Eh]
	 Total Energy              =    -459.8205006482614863 [Eh]
	 SCS Total Energy          =    -459.8148951125647841 [Eh]
                               Psi4 1.9 release
    Molecular point group: c1

    Geometry (in Bohr), charge = -1, multiplicity = 1:

       Center              X                  Y                   Z               Mass
    ------------   -----------------  -----------------  -----------------  -----------------
         CL           0.000000000000     0.000000000000     0.000000000000    34.968852682000
         O           -1.601856585862     2.122508258770    -4.980514933104    15.994914619570
         H           -0.826895019621     1.663850941134    -3.327042367850     1.007825032230
         H           -1.444595467428     3.920590226048    -5.099202961865     1.007825032230
         O           -3.635536378379    -1.967930551434     4.363744230550    15.994914619570
         H           -1.869681800445    -1.867597432529     3.785108201209     1.007825032230
         H           -3.632255813825    -2.333186265593     6.170772161306     1.007825032230
         O           -2.051849509213     5.463600740363     2.421408129760    15.994914619570
         H           -1.564409772960     3.871621752959     1.688889812296     1.007825032230
         H           -3.472615530199     6.098932332921     1.361364369958     1.007825032230
         O            3.943227255305    -0.530281717243     5.243612052920    15.994914619570
         H            4.697333804025    -0.378304273055     6.846449406642     1.007825032230
         H            5.132634106751     0.212516710343     4.181453689584     1.007825032230
         O           -6.081956923136     1.877586524828    -0.198389117829    15.994914619570
         H           -6.407282724264     1.362052230268    -1.923527656664     1.007825032230
         H           -4.424343967942     1.150098658310     0.215035715268     1.007825032230

  Charge       = -1
  Multiplicity = 1
  Basis Set: AUG-CC-PVTZ
    Blend: AUG-CC-PVTZ
  Basis Set: (AUG-CC-PVTZ AUX)
    Blend: AUG-CC-PVTZ-JKFIT

    Orbital Energies [Eh]
    ---------------------

    Doubly Occupied:

       1A   -104.566290     2A    -20.450023     3A    -20.409966
       4A    -20.399380     5A    -20.397839     6A    -20.392961
       7A    -10.291835     8A     -7.757962     9A     -7.757885
      10A     -7.757835    11A     -1.251916    12A     -1.182402
      13A     -1.177549    14A     -1.173855    15A     -1.172139
      16A     -0.812804    17A     -0.611316    18A     -0.556220
      19A     -0.544309    20A     -0.541621    21A     -0.538730
      22A     -0.476446    23A     -0.419637    24A     -0.417723
      25A     -0.416170    26A     -0.414275    27A     -0.397577
      28A     -0.350852    29A     -0.346383    30A     -0.340725
      31A     -0.333648    32A     -0.223701    33A     -0.222416
      34A     -0.218988

  @DF-RHF Final Energy:  -839.90878746578755

   => Energetics <=

    Nuclear Repulsion Energy =            309.5322218000409293
    One-Electron Energy =               -1790.2352567731099953
    Two-Electron Energy =                 640.7942475072813977
    Total Energy =                       -839.9087874657875545
 Dipole X            :         91.6017468          -89.2358893            2.3658575
 Dipole Y            :        -70.0888012           69.4244409           -0.6643602
 Dipole Z            :        -68.5088100           68.6981833            0.1893732
 Magnitude           :                                                    2.4646538
  Basis Set: (AUG-CC-PVTZ AUX)
    Blend: AUG-CC-PVTZ-RI
	 Reference Energy          =    -839.9087874657875545 [Eh]
	 Singles Energy            =      -0.0000000000000000 [Eh]
	 Same-Spin Energy          =      -0.4174533895337148 [Eh]
	 Opposite-Spin Energy      =      -1.2743685362265389 [Eh]
	 Correlation Energy        =      -1.6918219257602538 [Eh]
	 Total Energy              =    -841.6006093915477777 [Eh]

	 ================> DF-SCS-MP2 Energies <==================
	-----------------------------------------------------------
	 SCS Same-Spin Scale       =       0.3333333333333333 [-]
	 SCS Opposite-Spin Scale   =       1.2000000000000000 [-]
	 SCS Same-Spin Energy      =      -0.1391511298445716 [Eh]
	 SCS Opposite-Spin Energy  =      -1.5292422434718467 [Eh]
	 SCS Correlation Energy    =      -1.6683933733164182 [Eh]
	 SCS Total Energy          =    -841.5771808391040167 [Eh]
	-----------------------------------------------------------

*** Psi4 exiting successfully. Buy a developer a beer!
