                               Psi4 1.8.2 release

  ==> Input File <==

--------------------------------------------------------------------------
MEMORY 60 GB

molecule dimer {
0 1
Gh(Cl)     0.000000     0.000000     0.000000
Gh(O)      1.897040     2.508472     0.302538
Gh(H)      1.357854     1.760957     0.096876
Gh(H)      1.821429     3.097428    -0.472561
O          1.468839    -2.859802     0.731682
H          0.736236    -2.305230     0.469404
H          1.608881    -2.605813     1.655215
Gh(O)     -0.432860     1.202269     3.088280
Gh(H)     -0.095501     0.925593     2.231419
Gh(H)     -0.432197     2.174121     3.067087
Gh(O)     -2.583472    -1.827415     0.818109
Gh(H)     -3.021839    -1.220259     0.255210
Gh(H)     -1.746720    -1.415553     1.142264
Gh(O)     -2.492733     2.189682    -0.627088
Gh(H)     -2.444094     2.136340    -1.579013
Gh(H)     -2.056599     1.404262    -0.404676

units ang
no_reorient
no_com
symmetry c1
}

set {
basis        aug-cc-pVTZ
scf_type     df
}

energy("mp2")
--------------------------------------------------------------------------

    Molecular point group: c1

    Geometry (in Angstrom), charge = 0, multiplicity = 1:

       Center              X                  Y                   Z               Mass
    ------------   -----------------  -----------------  -----------------  -----------------
      Gh(CL)          0.000000000000     0.000000000000     0.000000000000    34.968852682000
      Gh(O)           1.897040000000     2.508472000000     0.302538000000    15.994914619570
      Gh(H)           1.357854000000     1.760957000000     0.096876000000     1.007825032230
      Gh(H)           1.821429000000     3.097428000000    -0.472561000000     1.007825032230
         O            1.468839000000    -2.859802000000     0.731682000000    15.994914619570
         H            0.736236000000    -2.305230000000     0.469404000000     1.007825032230
         H            1.608881000000    -2.605813000000     1.655215000000     1.007825032230
      Gh(O)          -0.432860000000     1.202269000000     3.088280000000    15.994914619570
      Gh(H)          -0.095501000000     0.925593000000     2.231419000000     1.007825032230
      Gh(H)          -0.432197000000     2.174121000000     3.067087000000     1.007825032230
      Gh(O)          -2.583472000000    -1.827415000000     0.818109000000    15.994914619570
      Gh(H)          -3.021839000000    -1.220259000000     0.255210000000     1.007825032230
      Gh(H)          -1.746720000000    -1.415553000000     1.142264000000     1.007825032230
      Gh(O)          -2.492733000000     2.189682000000    -0.627088000000    15.994914619570
      Gh(H)          -2.444094000000     2.136340000000    -1.579013000000     1.007825032230
      Gh(H)          -2.056599000000     1.404262000000    -0.404676000000     1.007825032230

  Charge       = 0
  Multiplicity = 1
  Basis Set: AUG-CC-PVTZ
    Blend: AUG-CC-PVTZ
  Basis Set: (AUG-CC-PVTZ AUX)
    Blend: AUG-CC-PVTZ-JKFIT

    Orbital Energies [Eh]
    ---------------------

    Doubly Occupied:

       1A    -20.568682     2A     -1.352527     3A     -0.711851
       4A     -0.587486     5A     -0.510491

  @DF-RHF Final Energy:   -76.06007307585500

   => Energetics <=

    Nuclear Repulsion Energy =              9.1559140230902276
    One-Electron Energy =                -122.9698954378250448
    Two-Electron Energy =                  37.7539083388798105
    Total Energy =                        -76.0600730758550014
 Dipole X            :        -27.0300833           26.6372563           -0.3928270
 Dipole Y            :         53.0486108          -52.5144667            0.5341442
 Dipole Z            :        -14.6419401           15.0763768            0.4344367
 Magnitude           :                                                    0.7926905
  Basis Set: (AUG-CC-PVTZ AUX)
    Blend: AUG-CC-PVTZ-RI
	 Reference Energy          =     -76.0600730758550014 [Eh]
	 Singles Energy            =      -0.0000000000000000 [Eh]
	 Same-Spin Energy          =      -0.0684961885051959 [Eh]
	 Opposite-Spin Energy      =      -0.2160095572405466 [Eh]
	 Correlation Energy        =      -0.2845057457457425 [Eh]
	 Total Energy              =     -76.3445788216007486 [Eh]

	 ================> DF-SCS-MP2 Energies <==================
	-----------------------------------------------------------
	 SCS Same-Spin Scale       =       0.3333333333333333 [-]
	 SCS Opposite-Spin Scale   =       1.2000000000000000 [-]
	 SCS Same-Spin Energy      =      -0.0228320628350653 [Eh]
	 SCS Opposite-Spin Energy  =      -0.2592114686886560 [Eh]
	 SCS Correlation Energy    =      -0.2820435315237212 [Eh]
	 SCS Total Energy          =     -76.3421166073787276 [Eh]
	-----------------------------------------------------------

*** Psi4 exiting successfully. Buy a developer a beer!
