                               Psi4 1.8.2 release

  ==> Input File <==

--------------------------------------------------------------------------
MEMORY 60 GB

molecule dimer {
0 1
Gh(Cl)     0.000000     0.000000     0.000000
O          2.658287     1.773398    -0.370529
H          2.091112     1.113408     0.001257
H          3.169430     2.152468     0.380958
Gh(O)      1.386953    -0.634513     2.886858
Gh(H)      0.938120    -0.445849     2.084134
Gh(H)      0.881418    -1.312523     3.349073
Gh(O)     -1.733809     0.841098    -2.621295
Gh(H)     -2.603293     1.359142    -2.652883
Gh(H)     -1.487596     0.630228    -1.696720
Gh(O)     -0.222632     3.133093     0.500279
Gh(H)     -1.083412     3.575365     0.472674
Gh(H)     -0.438957     2.179388     0.524477
Gh(O)     -2.943507     0.363094     1.076372
Gh(H)     -3.375816    -0.520414     0.951393
Gh(H)     -2.003804     0.267427     1.077284

units ang
no_reorient
no_com
symmetry c1
}

set {
basis        aug-cc-pVTZ
scf_type     df
}

energy("mp2")
--------------------------------------------------------------------------

    Molecular point group: c1

    Geometry (in Angstrom), charge = 0, multiplicity = 1:

       Center              X                  Y                   Z               Mass
    ------------   -----------------  -----------------  -----------------  -----------------
      Gh(CL)          0.000000000000     0.000000000000     0.000000000000    34.968852682000
         O            2.658287000000     1.773398000000    -0.370529000000    15.994914619570
         H            2.091112000000     1.113408000000     0.001257000000     1.007825032230
         H            3.169430000000     2.152468000000     0.380958000000     1.007825032230
      Gh(O)           1.386953000000    -0.634513000000     2.886858000000    15.994914619570
      Gh(H)           0.938120000000    -0.445849000000     2.084134000000     1.007825032230
      Gh(H)           0.881418000000    -1.312523000000     3.349073000000     1.007825032230
      Gh(O)          -1.733809000000     0.841098000000    -2.621295000000    15.994914619570
      Gh(H)          -2.603293000000     1.359142000000    -2.652883000000     1.007825032230
      Gh(H)          -1.487596000000     0.630228000000    -1.696720000000     1.007825032230
      Gh(O)          -0.222632000000     3.133093000000     0.500279000000    15.994914619570
      Gh(H)          -1.083412000000     3.575365000000     0.472674000000     1.007825032230
      Gh(H)          -0.438957000000     2.179388000000     0.524477000000     1.007825032230
      Gh(O)          -2.943507000000     0.363094000000     1.076372000000    15.994914619570
      Gh(H)          -3.375816000000    -0.520414000000     0.951393000000     1.007825032230
      Gh(H)          -2.003804000000     0.267427000000     1.077284000000     1.007825032230

  Charge       = 0
  Multiplicity = 1
  Basis Set: AUG-CC-PVTZ
    Blend: AUG-CC-PVTZ
  Basis Set: (AUG-CC-PVTZ AUX)
    Blend: AUG-CC-PVTZ-JKFIT

    Orbital Energies [Eh]
    ---------------------

    Doubly Occupied:

       1A    -20.567738     2A     -1.348442     3A     -0.716665
       4A     -0.579816     5A     -0.509171

  @DF-RHF Final Energy:   -76.05930457678876

   => Energetics <=

    Nuclear Repulsion Energy =              9.1152178778890907
    One-Electron Energy =                -122.9053779808868114
    Two-Electron Energy =                  37.7308555262089556
    Total Energy =                        -76.0593045767887617
 Dipole X            :        -50.1700182           50.1284588           -0.0415594
 Dipole Y            :        -33.1732641           32.9815035           -0.1917606
 Dipole Z            :          5.6255776           -4.8793050            0.7462726
 Magnitude           :                                                    0.7716360
  Basis Set: (AUG-CC-PVTZ AUX)
    Blend: AUG-CC-PVTZ-RI
	 Reference Energy          =     -76.0593045767887617 [Eh]
	 Singles Energy            =      -0.0000000000000000 [Eh]
	 Same-Spin Energy          =      -0.0684944431665159 [Eh]
	 Opposite-Spin Energy      =      -0.2160894242082113 [Eh]
	 Correlation Energy        =      -0.2845838673747271 [Eh]
	 Total Energy              =     -76.3438884441634826 [Eh]

	 ================> DF-SCS-MP2 Energies <==================
	-----------------------------------------------------------
	 SCS Same-Spin Scale       =       0.3333333333333333 [-]
	 SCS Opposite-Spin Scale   =       1.2000000000000000 [-]
	 SCS Same-Spin Energy      =      -0.0228314810555053 [Eh]
	 SCS Opposite-Spin Energy  =      -0.2593073090498535 [Eh]
	 SCS Correlation Energy    =      -0.2821387901053588 [Eh]
	 SCS Total Energy          =     -76.3414433668941257 [Eh]
	-----------------------------------------------------------

*** Psi4 exiting successfully. Buy a developer a beer!
