                               Psi4 1.8.2 release

  ==> Input File <==

--------------------------------------------------------------------------
MEMORY 60 GB

molecule dimer {
0 1
Gh(Cl)     0.000000     0.000000     0.000000
Gh(O)      3.283874     0.023914     0.066002
Gh(H)      2.312251    -0.077803    -0.109892
Gh(H)      3.539398     0.361898    -0.833054
Gh(O)     -0.063433     0.767355    -3.215659
Gh(H)      0.774290     0.372773    -3.374160
Gh(H)     -0.183096     0.530838    -2.284812
Gh(O)     -0.156099    -2.335974    -2.061858
Gh(H)     -0.228404    -1.613551    -1.460921
Gh(H)      0.568802    -2.828920    -1.752202
O          1.706919    -0.782022     2.837503
H          2.308159    -0.635102     2.121010
H          1.957319    -0.183287     3.612115
Gh(O)     -2.623918     1.199652    -1.550824
Gh(H)     -2.518364     2.157209    -1.867397
Gh(H)     -1.847456     0.943078    -1.098054
Gh(O)      1.334315     2.964091    -0.575831
Gh(H)      1.001079     2.053987    -0.510309
Gh(H)      0.576362     3.472885    -0.217357

units ang
no_reorient
no_com
symmetry c1
}

set {
basis        aug-cc-pVTZ
scf_type     df
}

energy("mp2")
--------------------------------------------------------------------------

    Molecular point group: c1

    Geometry (in Angstrom), charge = 0, multiplicity = 1:

       Center              X                  Y                   Z               Mass
    ------------   -----------------  -----------------  -----------------  -----------------
      Gh(CL)          0.000000000000     0.000000000000     0.000000000000    34.968852682000
      Gh(O)           3.283874000000     0.023914000000     0.066002000000    15.994914619570
      Gh(H)           2.312251000000    -0.077803000000    -0.109892000000     1.007825032230
      Gh(H)           3.539398000000     0.361898000000    -0.833054000000     1.007825032230
      Gh(O)          -0.063433000000     0.767355000000    -3.215659000000    15.994914619570
      Gh(H)           0.774290000000     0.372773000000    -3.374160000000     1.007825032230
      Gh(H)          -0.183096000000     0.530838000000    -2.284812000000     1.007825032230
      Gh(O)          -0.156099000000    -2.335974000000    -2.061858000000    15.994914619570
      Gh(H)          -0.228404000000    -1.613551000000    -1.460921000000     1.007825032230
      Gh(H)           0.568802000000    -2.828920000000    -1.752202000000     1.007825032230
         O            1.706919000000    -0.782022000000     2.837503000000    15.994914619570
         H            2.308159000000    -0.635102000000     2.121010000000     1.007825032230
         H            1.957319000000    -0.183287000000     3.612115000000     1.007825032230
      Gh(O)          -2.623918000000     1.199652000000    -1.550824000000    15.994914619570
      Gh(H)          -2.518364000000     2.157209000000    -1.867397000000     1.007825032230
      Gh(H)          -1.847456000000     0.943078000000    -1.098054000000     1.007825032230
      Gh(O)           1.334315000000     2.964091000000    -0.575831000000    15.994914619570
      Gh(H)           1.001079000000     2.053987000000    -0.510309000000     1.007825032230
      Gh(H)           0.576362000000     3.472885000000    -0.217357000000     1.007825032230

  Charge       = 0
  Multiplicity = 1
  Basis Set: AUG-CC-PVTZ
    Blend: AUG-CC-PVTZ
  Basis Set: (AUG-CC-PVTZ AUX)
    Blend: AUG-CC-PVTZ-JKFIT

    Orbital Energies [Eh]
    ---------------------

    Doubly Occupied:

       1A    -20.568397     2A     -1.340448     3A     -0.715138
       4A     -0.571249     5A     -0.507197

  @DF-RHF Final Energy:   -76.05615825591029

   => Energetics <=

    Nuclear Repulsion Energy =              8.9918454124514824
    One-Electron Energy =                -122.6911463980560626
    Two-Electron Energy =                  37.6431427296942900
    Total Energy =                        -76.0561582559102902
 Dipole X            :        -33.2951293           33.8654606            0.5703314
 Dipole Y            :         13.8631633          -13.3689903            0.4941730
 Dipole Z            :        -53.7008647           53.7308645            0.0299998
 Magnitude           :                                                    0.7552382
  Basis Set: (AUG-CC-PVTZ AUX)
    Blend: AUG-CC-PVTZ-RI
	 Reference Energy          =     -76.0561582559102902 [Eh]
	 Singles Energy            =      -0.0000000000000000 [Eh]
	 Same-Spin Energy          =      -0.0686799182710833 [Eh]
	 Opposite-Spin Energy      =      -0.2167231146367859 [Eh]
	 Correlation Energy        =      -0.2854030329078692 [Eh]
	 Total Energy              =     -76.3415612888181556 [Eh]

	 ================> DF-SCS-MP2 Energies <==================
	-----------------------------------------------------------
	 SCS Same-Spin Scale       =       0.3333333333333333 [-]
	 SCS Opposite-Spin Scale   =       1.2000000000000000 [-]
	 SCS Same-Spin Energy      =      -0.0228933060903611 [Eh]
	 SCS Opposite-Spin Energy  =      -0.2600677375641431 [Eh]
	 SCS Correlation Energy    =      -0.2829610436545042 [Eh]
	 SCS Total Energy          =     -76.3391192995647998 [Eh]
	-----------------------------------------------------------

*** Psi4 exiting successfully. Buy a developer a beer!
