                               Psi4 1.9 release

  ==> Input File <==

--------------------------------------------------------------------------
MEMORY 60 GB

molecule dimer {
-1 1
Cl     0.000000     0.000000     0.000000
--
0 1
O     -2.639249    -2.043355    -0.424183
H     -1.808856    -1.471762    -0.429724
H     -2.641062    -2.333764    -1.316977
O      0.403629    -2.390235     2.477646
H     -0.432481    -2.907837     2.347215
H      0.412111    -1.672041     1.879690
O     -0.714179     0.377929    -3.329396
H     -1.198332    -0.133274    -2.628707
H     -0.377953     1.213673    -2.933940
O     -2.634641     1.896873     0.738049
H     -1.800704     1.389428     0.628177
H     -2.528308     2.751205     0.372104
O      0.783633    -2.645861    -1.980641
H      0.893785    -2.060143    -2.776260
H      0.469594    -2.121247    -1.272007

units ang
no_reorient
no_com
symmetry c1
}

set {
basis        aug-cc-pVTZ
scf_type     df
}

energy("mp2", bsse_type="cp")
--------------------------------------------------------------------------

                               Psi4 1.9 release
    Molecular point group: c1
  Charge       = 0
  Multiplicity = 1
  Basis Set: AUG-CC-PVTZ
    Blend: AUG-CC-PVTZ
  Basis Set: (AUG-CC-PVTZ AUX)
    Blend: AUG-CC-PVTZ-JKFIT
  @DF-RHF Final Energy:  -380.28109350683457
    Total Energy =                       -380.2810935068345657
 Dipole X            :         89.8911298          -89.6082844            0.2828454
 Dipole Y            :         87.9916491          -86.5172443            1.4744048
 Dipole Z            :         48.8835316          -49.6594118           -0.7758801
 Magnitude           :                                                    1.6899293
  Basis Set: (AUG-CC-PVTZ AUX)
    Blend: AUG-CC-PVTZ-RI
	 Reference Energy          =    -380.2810935068345657 [Eh]
	 Singles Energy            =      -0.0000000000000000 [Eh]
	 Same-Spin Energy          =      -0.3443459572577645 [Eh]
	 Opposite-Spin Energy      =      -1.0837591701156926 [Eh]
	 Correlation Energy        =      -1.4281051273734571 [Eh]
	 Total Energy              =    -381.7091986342080077 [Eh]
	 SCS Total Energy          =    -381.6963864967260065 [Eh]
                               Psi4 1.9 release
    Molecular point group: c1
  Multiplicity = 1
  Basis Set: AUG-CC-PVTZ
    Blend: AUG-CC-PVTZ
  Basis Set: (AUG-CC-PVTZ AUX)
    Blend: AUG-CC-PVTZ-JKFIT
  @DF-RHF Final Energy:  -459.57356918955105
    Total Energy =                       -459.5735691895510513
  Basis Set: (AUG-CC-PVTZ AUX)
	 Singles Energy            =      -0.0000000000000000 [Eh]
	 Same-Spin Energy          =      -0.0633927115062261 [Eh]
	 Opposite-Spin Energy      =      -0.1830790122483121 [Eh]
	 Correlation Energy        =      -0.2464717237545382 [Eh]
	 Total Energy              =    -459.8200409133056041 [Eh]
	 SCS Total Energy          =    -459.8143949080844095 [Eh]
                               Psi4 1.9 release
    Molecular point group: c1

    Geometry (in Bohr), charge = -1, multiplicity = 1:

       Center              X                  Y                   Z               Mass
    ------------   -----------------  -----------------  -----------------  -----------------
         CL           0.000000000000     0.000000000000     0.000000000000    34.968852682000
         O           -4.987457786888    -3.861381327085    -0.801589697075    15.994914619570
         H           -3.418242440391    -2.781227101856    -0.812060669536     1.007825032230
         H           -4.990883860354    -4.410174801453    -2.488725843527     1.007825032230
         O            0.762748266292    -4.516889525484     4.682072375836    15.994914619570
         H           -0.817270644464    -5.495015547473     4.435593507566     1.007825032230
         H            0.778776923289    -3.159699560537     3.552099300762     1.007825032230
         O           -1.349602714553     0.714182304868    -6.291646603195    15.994914619570
         H           -2.264519287372    -0.251851359644    -4.967536294074     1.007825032230
         H           -0.714227658295     2.293509575863    -5.544343068526     1.007825032230
         O           -4.978749928902     3.584570464776     1.394710477168    15.994914619570
         H           -3.402837393016     2.625638391043     1.187082488312     1.007825032230
         H           -4.777809680804     5.199023964990     0.703174650187     1.007825032230
         O            1.480851752871    -4.999952656030    -3.742869042853    15.994914619570
         H            1.689008865042    -3.893106049279    -5.246371053064     1.007825032230
         H            0.887404050158    -4.008575874449    -2.403744859665     1.007825032230

  Charge       = -1
  Multiplicity = 1
  Basis Set: AUG-CC-PVTZ
    Blend: AUG-CC-PVTZ
  Basis Set: (AUG-CC-PVTZ AUX)
    Blend: AUG-CC-PVTZ-JKFIT

    Orbital Energies [Eh]
    ---------------------

    Doubly Occupied:

       1A   -104.591978     2A    -20.446860     3A    -20.427777
       4A    -20.424078     5A    -20.419669     6A    -20.418685
       7A    -10.316717     8A     -7.782840     9A     -7.782804
      10A     -7.782760    11A     -1.213333    12A     -1.209952
      13A     -1.207054    14A     -1.206640    15A     -1.203199
      16A     -0.832217    17A     -0.587558    18A     -0.583556
      19A     -0.581007    20A     -0.578795    21A     -0.561063
      22A     -0.455959    23A     -0.451706    24A     -0.440469
      25A     -0.435402    26A     -0.434220    27A     -0.386064
      28A     -0.372382    29A     -0.368315    30A     -0.365690
      31A     -0.365011    32A     -0.246950    33A     -0.244721
      34A     -0.243043

  @DF-RHF Final Energy:  -839.92859729282452

   => Energetics <=

    Nuclear Repulsion Energy =            299.9644301787146787
    One-Electron Energy =               -1769.8490943636988959
    Two-Electron Energy =                 629.9560668921595834
    Total Energy =                       -839.9285972928245201
 Dipole X            :         90.5077851          -89.6082844            0.8995007
 Dipole Y            :         88.4090391          -86.5172443            1.8917949
 Dipole Z            :         49.1139102          -49.6594118           -0.5455015
 Magnitude           :                                                    2.1646157
  Basis Set: (AUG-CC-PVTZ AUX)
    Blend: AUG-CC-PVTZ-RI
	 Reference Energy          =    -839.9285972928245201 [Eh]
	 Singles Energy            =      -0.0000000000000000 [Eh]
	 Same-Spin Energy          =      -0.4146592160063476 [Eh]
	 Opposite-Spin Energy      =      -1.2709860342658739 [Eh]
	 Correlation Energy        =      -1.6856452502722215 [Eh]
	 Total Energy              =    -841.6142425430967933 [Eh]

	 ================> DF-SCS-MP2 Energies <==================
	-----------------------------------------------------------
	 SCS Same-Spin Scale       =       0.3333333333333333 [-]
	 SCS Opposite-Spin Scale   =       1.2000000000000000 [-]
	 SCS Same-Spin Energy      =      -0.1382197386687825 [Eh]
	 SCS Opposite-Spin Energy  =      -1.5251832411190487 [Eh]
	 SCS Correlation Energy    =      -1.6634029797878311 [Eh]
	 SCS Total Energy          =    -841.5920002726123812 [Eh]
	-----------------------------------------------------------

*** Psi4 exiting successfully. Buy a developer a beer!
