                               Psi4 1.8.2 release

  ==> Input File <==

--------------------------------------------------------------------------
MEMORY 60 GB

molecule dimer {
0 1
Gh(Cl)     0.000000     0.000000     0.000000
Gh(O)      2.577144     1.301097    -1.507566
Gh(H)      1.636751     1.082512    -1.310522
Gh(H)      2.493026     1.546902    -2.431710
Gh(O)     -0.803884    -0.114309     3.230273
Gh(H)     -1.032596    -0.160666     2.314983
Gh(H)     -1.231357    -0.797408     3.797174
Gh(O)      0.843661    -2.286358    -2.084704
Gh(H)      0.687224    -1.478250    -1.561391
Gh(H)      0.748808    -1.967004    -2.989697
O         -3.119480    -1.368652    -0.412857
H         -2.259889    -0.968028    -0.211314
H         -2.868990    -2.275884    -0.520071

units ang
no_reorient
no_com
symmetry c1
}

set {
basis        aug-cc-pVTZ
scf_type     df
}

energy("mp2")
--------------------------------------------------------------------------

    Molecular point group: c1

    Geometry (in Angstrom), charge = 0, multiplicity = 1:

       Center              X                  Y                   Z               Mass
    ------------   -----------------  -----------------  -----------------  -----------------
      Gh(CL)          0.000000000000     0.000000000000     0.000000000000    34.968852682000
      Gh(O)           2.577144000000     1.301097000000    -1.507566000000    15.994914619570
      Gh(H)           1.636751000000     1.082512000000    -1.310522000000     1.007825032230
      Gh(H)           2.493026000000     1.546902000000    -2.431710000000     1.007825032230
      Gh(O)          -0.803884000000    -0.114309000000     3.230273000000    15.994914619570
      Gh(H)          -1.032596000000    -0.160666000000     2.314983000000     1.007825032230
      Gh(H)          -1.231357000000    -0.797408000000     3.797174000000     1.007825032230
      Gh(O)           0.843661000000    -2.286358000000    -2.084704000000    15.994914619570
      Gh(H)           0.687224000000    -1.478250000000    -1.561391000000     1.007825032230
      Gh(H)           0.748808000000    -1.967004000000    -2.989697000000     1.007825032230
         O           -3.119480000000    -1.368652000000    -0.412857000000    15.994914619570
         H           -2.259889000000    -0.968028000000    -0.211314000000     1.007825032230
         H           -2.868990000000    -2.275884000000    -0.520071000000     1.007825032230

  Charge       = 0
  Multiplicity = 1
  Basis Set: AUG-CC-PVTZ
    Blend: AUG-CC-PVTZ
  Basis Set: (AUG-CC-PVTZ AUX)
    Blend: AUG-CC-PVTZ-JKFIT

    Orbital Energies [Eh]
    ---------------------

    Doubly Occupied:

       1A    -20.569001     2A     -1.355931     3A     -0.709526
       4A     -0.592248     5A     -0.511381

  @DF-RHF Final Energy:   -76.05967768924448

   => Energetics <=

    Nuclear Repulsion Energy =              9.1941635685408833
    One-Electron Energy =                -123.0315055032138361
    Two-Electron Energy =                  37.7776642454284755
    Total Energy =                        -76.0596776892444666
 Dipole X            :         57.5806129          -56.8518795            0.7287334
 Dipole Y            :         26.4842702          -26.8211248           -0.3368546
 Dipole Z            :          7.6847229           -7.6236106            0.0611123
 Magnitude           :                                                    0.8051448
  Basis Set: (AUG-CC-PVTZ AUX)
    Blend: AUG-CC-PVTZ-RI
	 Reference Energy          =     -76.0596776892444808 [Eh]
	 Singles Energy            =      -0.0000000000000000 [Eh]
	 Same-Spin Energy          =      -0.0684875334701970 [Eh]
	 Opposite-Spin Energy      =      -0.2160171204337297 [Eh]
	 Correlation Energy        =      -0.2845046539039267 [Eh]
	 Total Energy              =     -76.3441823431484039 [Eh]

	 ================> DF-SCS-MP2 Energies <==================
	-----------------------------------------------------------
	 SCS Same-Spin Scale       =       0.3333333333333333 [-]
	 SCS Opposite-Spin Scale   =       1.2000000000000000 [-]
	 SCS Same-Spin Energy      =      -0.0228291778233990 [Eh]
	 SCS Opposite-Spin Energy  =      -0.2592205445204756 [Eh]
	 SCS Correlation Energy    =      -0.2820497223438746 [Eh]
	 SCS Total Energy          =     -76.3417274115883515 [Eh]
	-----------------------------------------------------------

*** Psi4 exiting successfully. Buy a developer a beer!
