                               Psi4 1.8.2 release

  ==> Input File <==

--------------------------------------------------------------------------
MEMORY 60 GB

molecule dimer {
-1 1
Cl         0.000000     0.000000     0.000000
Gh(O)     -0.847666     1.123183    -2.635575
Gh(H)     -0.437574     0.880472    -1.760595
Gh(H)     -0.764447     2.074687    -2.698382
Gh(O)     -1.923843    -1.041384     2.309194
Gh(H)     -0.989393    -0.988290     2.002993
Gh(H)     -1.922107    -1.234669     3.265432
Gh(O)     -1.085792     2.891213     1.281354
Gh(H)     -0.827850     2.048774     0.893722
Gh(H)     -1.837629     3.227416     0.720403
Gh(O)      2.086666    -0.280613     2.774800
Gh(H)      2.485722    -0.200190     3.622985
Gh(H)      2.716073     0.112459     2.212730
Gh(O)     -3.218433     0.993576    -0.104983
Gh(H)     -3.390588     0.720767    -1.017887
Gh(H)     -2.341262     0.608606     0.113792

units ang
no_reorient
no_com
symmetry c1
}

set {
basis        aug-cc-pVTZ
scf_type     df
}

energy("mp2")
--------------------------------------------------------------------------

    Molecular point group: c1

    Geometry (in Angstrom), charge = -1, multiplicity = 1:

       Center              X                  Y                   Z               Mass
    ------------   -----------------  -----------------  -----------------  -----------------
         CL           0.000000000000     0.000000000000     0.000000000000    34.968852682000
      Gh(O)          -0.847666000000     1.123183000000    -2.635575000000    15.994914619570
      Gh(H)          -0.437574000000     0.880472000000    -1.760595000000     1.007825032230
      Gh(H)          -0.764447000000     2.074687000000    -2.698382000000     1.007825032230
      Gh(O)          -1.923843000000    -1.041384000000     2.309194000000    15.994914619570
      Gh(H)          -0.989393000000    -0.988290000000     2.002993000000     1.007825032230
      Gh(H)          -1.922107000000    -1.234669000000     3.265432000000     1.007825032230
      Gh(O)          -1.085792000000     2.891213000000     1.281354000000    15.994914619570
      Gh(H)          -0.827850000000     2.048774000000     0.893722000000     1.007825032230
      Gh(H)          -1.837629000000     3.227416000000     0.720403000000     1.007825032230
      Gh(O)           2.086666000000    -0.280613000000     2.774800000000    15.994914619570
      Gh(H)           2.485722000000    -0.200190000000     3.622985000000     1.007825032230
      Gh(H)           2.716073000000     0.112459000000     2.212730000000     1.007825032230
      Gh(O)          -3.218433000000     0.993576000000    -0.104983000000    15.994914619570
      Gh(H)          -3.390588000000     0.720767000000    -1.017887000000     1.007825032230
      Gh(H)          -2.341262000000     0.608606000000     0.113792000000     1.007825032230

  Charge       = -1
  Multiplicity = 1
  Basis Set: AUG-CC-PVTZ
    Blend: AUG-CC-PVTZ
  Basis Set: (AUG-CC-PVTZ AUX)
    Blend: AUG-CC-PVTZ-JKFIT

    Orbital Energies [Eh]
    ---------------------

    Doubly Occupied:

       1A   -104.507173     2A    -10.230038     3A     -7.696120
       4A     -7.696091     5A     -7.696072     6A     -0.733469
       7A     -0.150311     8A     -0.150308     9A     -0.150304

  @DF-RHF Final Energy:  -459.57357027217722

   => Energetics <=

    Nuclear Repulsion Energy =              0.0000000000000000
    One-Electron Energy =                -641.1273815606386961
    Two-Electron Energy =                 181.5538112884614748
    Total Energy =                       -459.5735702721772213
 Dipole X            :         -0.0003823            0.0000000           -0.0003823
 Dipole Y            :          0.0002798            0.0000000            0.0002798
 Dipole Z            :          0.0000402            0.0000000            0.0000402
 Magnitude           :                                                    0.0004755
  Basis Set: (AUG-CC-PVTZ AUX)
    Blend: AUG-CC-PVTZ-RI
	 Reference Energy          =    -459.5735702721772213 [Eh]
	 Singles Energy            =      -0.0000000000000000 [Eh]
	 Same-Spin Energy          =      -0.0634518587483501 [Eh]
	 Opposite-Spin Energy      =      -0.1834785173442147 [Eh]
	 Correlation Energy        =      -0.2469303760925648 [Eh]
	 Total Energy              =    -459.8205006482697854 [Eh]

	 ================> DF-SCS-MP2 Energies <==================
	-----------------------------------------------------------
	 SCS Same-Spin Scale       =       0.3333333333333333 [-]
	 SCS Opposite-Spin Scale   =       1.2000000000000000 [-]
	 SCS Same-Spin Energy      =      -0.0211506195827834 [Eh]
	 SCS Opposite-Spin Energy  =      -0.2201742208130576 [Eh]
	 SCS Correlation Energy    =      -0.2413248403958410 [Eh]
	 SCS Total Energy          =    -459.8148951125730832 [Eh]
	-----------------------------------------------------------

*** Psi4 exiting successfully. Buy a developer a beer!
