                               Psi4 1.8.2 release

  ==> Input File <==

--------------------------------------------------------------------------
MEMORY 60 GB

molecule dimer {
0 1
Gh(Cl)     0.000000     0.000000     0.000000
O         -1.308514    -3.021033     0.224570
H         -0.936905    -2.106332     0.230301
H         -1.583115    -3.224008    -0.634500
Gh(O)      2.034987    -2.736438     0.261525
Gh(H)      1.926419    -3.209727     1.152196
Gh(H)      1.340897    -2.074538     0.255592
Gh(O)      2.614152     1.974738    -1.057657
Gh(H)      2.604676     1.369411    -0.325218
Gh(H)      3.499309     2.340070    -1.031330
Gh(O)     -0.443471     1.169568    -3.144304
Gh(H)     -0.589228     0.505431    -2.398513
Gh(H)     -0.814852     0.803347    -3.980457
Gh(O)      3.188344    -0.067036     1.347838
Gh(H)      3.603647     0.506360     1.946832
Gh(H)      2.585837    -0.642943     1.833742
Gh(O)      0.074816    -0.986092     3.001192
Gh(H)     -0.185721    -0.495387     2.211357
Gh(H)     -0.346700    -0.687598     3.778177
Gh(O)     -3.028136    -0.051263     0.795317
Gh(H)     -3.215716     0.852168     1.057333
Gh(H)     -2.058031    -0.146230     0.730970

units ang
no_reorient
no_com
symmetry c1
}

set {
basis        aug-cc-pVTZ
scf_type     df
}

energy("mp2")
--------------------------------------------------------------------------

    Molecular point group: c1

    Geometry (in Angstrom), charge = 0, multiplicity = 1:

       Center              X                  Y                   Z               Mass
    ------------   -----------------  -----------------  -----------------  -----------------
      Gh(CL)          0.000000000000     0.000000000000     0.000000000000    34.968852682000
         O           -1.308514000000    -3.021033000000     0.224570000000    15.994914619570
         H           -0.936905000000    -2.106332000000     0.230301000000     1.007825032230
         H           -1.583115000000    -3.224008000000    -0.634500000000     1.007825032230
      Gh(O)           2.034987000000    -2.736438000000     0.261525000000    15.994914619570
      Gh(H)           1.926419000000    -3.209727000000     1.152196000000     1.007825032230
      Gh(H)           1.340897000000    -2.074538000000     0.255592000000     1.007825032230
      Gh(O)           2.614152000000     1.974738000000    -1.057657000000    15.994914619570
      Gh(H)           2.604676000000     1.369411000000    -0.325218000000     1.007825032230
      Gh(H)           3.499309000000     2.340070000000    -1.031330000000     1.007825032230
      Gh(O)          -0.443471000000     1.169568000000    -3.144304000000    15.994914619570
      Gh(H)          -0.589228000000     0.505431000000    -2.398513000000     1.007825032230
      Gh(H)          -0.814852000000     0.803347000000    -3.980457000000     1.007825032230
      Gh(O)           3.188344000000    -0.067036000000     1.347838000000    15.994914619570
      Gh(H)           3.603647000000     0.506360000000     1.946832000000     1.007825032230
      Gh(H)           2.585837000000    -0.642943000000     1.833742000000     1.007825032230
      Gh(O)           0.074816000000    -0.986092000000     3.001192000000    15.994914619570
      Gh(H)          -0.185721000000    -0.495387000000     2.211357000000     1.007825032230
      Gh(H)          -0.346700000000    -0.687598000000     3.778177000000     1.007825032230
      Gh(O)          -3.028136000000    -0.051263000000     0.795317000000    15.994914619570
      Gh(H)          -3.215716000000     0.852168000000     1.057333000000     1.007825032230
      Gh(H)          -2.058031000000    -0.146230000000     0.730970000000     1.007825032230

  Charge       = 0
  Multiplicity = 1
  Basis Set: AUG-CC-PVTZ
    Blend: AUG-CC-PVTZ
  Basis Set: (AUG-CC-PVTZ AUX)
    Blend: AUG-CC-PVTZ-JKFIT

    Orbital Energies [Eh]
    ---------------------

    Doubly Occupied:

       1A    -20.564729     2A     -1.352209     3A     -0.726688
       4A     -0.576672     5A     -0.509272

  @DF-RHF Final Energy:   -76.05860205737410

   => Energetics <=

    Nuclear Repulsion Energy =              9.2077190437723235
    One-Electron Energy =                -123.0734993148050904
    Two-Electron Energy =                  37.8071782136586663
    Total Energy =                        -76.0586020573740882
 Dipole X            :         24.6055729          -24.5440124            0.0615605
 Dipole Y            :         56.2179191          -55.7442826            0.4736364
 Dipole Z            :         -3.2122205            2.6311810           -0.5810395
 Magnitude           :                                                    0.7521490
  Basis Set: (AUG-CC-PVTZ AUX)
    Blend: AUG-CC-PVTZ-RI
	 Reference Energy          =     -76.0586020573741024 [Eh]
	 Singles Energy            =      -0.0000000000000000 [Eh]
	 Same-Spin Energy          =      -0.0683230669295260 [Eh]
	 Opposite-Spin Energy      =      -0.2158664896352172 [Eh]
	 Correlation Energy        =      -0.2841895565647432 [Eh]
	 Total Energy              =     -76.3427916139388429 [Eh]

	 ================> DF-SCS-MP2 Energies <==================
	-----------------------------------------------------------
	 SCS Same-Spin Scale       =       0.3333333333333333 [-]
	 SCS Opposite-Spin Scale   =       1.2000000000000000 [-]
	 SCS Same-Spin Energy      =      -0.0227743556431753 [Eh]
	 SCS Opposite-Spin Energy  =      -0.2590397875622606 [Eh]
	 SCS Correlation Energy    =      -0.2818141432054360 [Eh]
	 SCS Total Energy          =     -76.3404162005795399 [Eh]
	-----------------------------------------------------------

*** Psi4 exiting successfully. Buy a developer a beer!
