                               Psi4 1.8.2 release

  ==> Input File <==

--------------------------------------------------------------------------
MEMORY 60 GB

molecule dimer {
0 1
Gh(Cl)     0.000000     0.000000     0.000000
O          2.004466    -0.496177     2.546536
H          2.585244    -1.154785     2.189831
H          1.363421    -0.266412     1.830507
Gh(O)      2.479580    -1.598125    -1.227379
Gh(H)      1.827334    -1.093465    -0.781736
Gh(H)      2.036467    -2.371329    -1.587810
Gh(O)     -2.771537     0.837457     1.822875
Gh(H)     -3.237440     0.820329     0.989508
Gh(H)     -2.323566     0.003383     1.867055
Gh(O)     -0.416174    -1.379225    -3.003309
Gh(H)     -0.168991    -0.896023    -2.169454
Gh(H)      0.155754    -2.140456    -3.062651

units ang
no_reorient
no_com
symmetry c1
}

set {
basis        aug-cc-pVTZ
scf_type     df
}

energy("mp2")
--------------------------------------------------------------------------

    Molecular point group: c1

    Geometry (in Angstrom), charge = 0, multiplicity = 1:

       Center              X                  Y                   Z               Mass
    ------------   -----------------  -----------------  -----------------  -----------------
      Gh(CL)          0.000000000000     0.000000000000     0.000000000000    34.968852682000
         O            2.004466000000    -0.496177000000     2.546536000000    15.994914619570
         H            2.585244000000    -1.154785000000     2.189831000000     1.007825032230
         H            1.363421000000    -0.266412000000     1.830507000000     1.007825032230
      Gh(O)           2.479580000000    -1.598125000000    -1.227379000000    15.994914619570
      Gh(H)           1.827334000000    -1.093465000000    -0.781736000000     1.007825032230
      Gh(H)           2.036467000000    -2.371329000000    -1.587810000000     1.007825032230
      Gh(O)          -2.771537000000     0.837457000000     1.822875000000    15.994914619570
      Gh(H)          -3.237440000000     0.820329000000     0.989508000000     1.007825032230
      Gh(H)          -2.323566000000     0.003383000000     1.867055000000     1.007825032230
      Gh(O)          -0.416174000000    -1.379225000000    -3.003309000000    15.994914619570
      Gh(H)          -0.168991000000    -0.896023000000    -2.169454000000     1.007825032230
      Gh(H)           0.155754000000    -2.140456000000    -3.062651000000     1.007825032230

  Charge       = 0
  Multiplicity = 1
  Basis Set: AUG-CC-PVTZ
    Blend: AUG-CC-PVTZ
  Basis Set: (AUG-CC-PVTZ AUX)
    Blend: AUG-CC-PVTZ-JKFIT

    Orbital Energies [Eh]
    ---------------------

    Doubly Occupied:

       1A    -20.568024     2A     -1.346996     3A     -0.716085
       4A     -0.578597     5A     -0.508856

  @DF-RHF Final Energy:   -76.05894063738164

   => Energetics <=

    Nuclear Repulsion Energy =              9.0916218394436861
    One-Electron Energy =                -122.8640078826762760
    Two-Electron Energy =                  37.7134454058509476
    Total Energy =                        -76.0589406373816388
 Dipole X            :        -37.8001513           37.7650296           -0.0351217
 Dipole Y            :          9.8977748          -10.1867822           -0.2890074
 Dipole Z            :        -46.8078868           46.0953826           -0.7125042
 Magnitude           :                                                    0.7696889
  Basis Set: (AUG-CC-PVTZ AUX)
    Blend: AUG-CC-PVTZ-RI
	 Reference Energy          =     -76.0589406373816388 [Eh]
	 Singles Energy            =      -0.0000000000000000 [Eh]
	 Same-Spin Energy          =      -0.0685216216753615 [Eh]
	 Opposite-Spin Energy      =      -0.2162037765822767 [Eh]
	 Correlation Energy        =      -0.2847253982576383 [Eh]
	 Total Energy              =     -76.3436660356392736 [Eh]

	 ================> DF-SCS-MP2 Energies <==================
	-----------------------------------------------------------
	 SCS Same-Spin Scale       =       0.3333333333333333 [-]
	 SCS Opposite-Spin Scale   =       1.2000000000000000 [-]
	 SCS Same-Spin Energy      =      -0.0228405405584538 [Eh]
	 SCS Opposite-Spin Energy  =      -0.2594445318987321 [Eh]
	 SCS Correlation Energy    =      -0.2822850724571859 [Eh]
	 SCS Total Energy          =     -76.3412257098388238 [Eh]
	-----------------------------------------------------------

*** Psi4 exiting successfully. Buy a developer a beer!
