                               Psi4 1.8.2 release

  ==> Input File <==

--------------------------------------------------------------------------
MEMORY 60 GB

molecule dimer {
0 1
Gh(Cl)     0.000000     0.000000     0.000000
Gh(O)      0.492480     2.119925     2.296583
Gh(H)      1.238518     2.643439     2.041108
Gh(H)      0.428501     1.470490     1.595291
Gh(O)      1.846097    -0.277742    -2.537849
Gh(H)      1.865917     0.411947    -1.809728
Gh(H)      2.620355    -0.119265    -3.081945
O          3.187083    -0.808910     0.753096
H          3.837814    -1.275304     0.218624
H          2.304602    -0.967605     0.432768
Gh(O)      0.003568    -2.530042     1.974166
Gh(H)      0.083099    -2.248155     2.894335
Gh(H)     -0.019839    -1.660895     1.441275
Gh(O)     -3.021706     1.403988     0.981928
Gh(H)     -3.587380     0.629525     1.177356
Gh(H)     -2.182889     0.987880     0.753889

units ang
no_reorient
no_com
symmetry c1
}

set {
basis        aug-cc-pVTZ
scf_type     df
}

energy("mp2")
--------------------------------------------------------------------------

    Molecular point group: c1

    Geometry (in Angstrom), charge = 0, multiplicity = 1:

       Center              X                  Y                   Z               Mass
    ------------   -----------------  -----------------  -----------------  -----------------
      Gh(CL)          0.000000000000     0.000000000000     0.000000000000    34.968852682000
      Gh(O)           0.492480000000     2.119925000000     2.296583000000    15.994914619570
      Gh(H)           1.238518000000     2.643439000000     2.041108000000     1.007825032230
      Gh(H)           0.428501000000     1.470490000000     1.595291000000     1.007825032230
      Gh(O)           1.846097000000    -0.277742000000    -2.537849000000    15.994914619570
      Gh(H)           1.865917000000     0.411947000000    -1.809728000000     1.007825032230
      Gh(H)           2.620355000000    -0.119265000000    -3.081945000000     1.007825032230
         O            3.187083000000    -0.808910000000     0.753096000000    15.994914619570
         H            3.837814000000    -1.275304000000     0.218624000000     1.007825032230
         H            2.304602000000    -0.967605000000     0.432768000000     1.007825032230
      Gh(O)           0.003568000000    -2.530042000000     1.974166000000    15.994914619570
      Gh(H)           0.083099000000    -2.248155000000     2.894335000000     1.007825032230
      Gh(H)          -0.019839000000    -1.660895000000     1.441275000000     1.007825032230
      Gh(O)          -3.021706000000     1.403988000000     0.981928000000    15.994914619570
      Gh(H)          -3.587380000000     0.629525000000     1.177356000000     1.007825032230
      Gh(H)          -2.182889000000     0.987880000000     0.753889000000     1.007825032230

  Charge       = 0
  Multiplicity = 1
  Basis Set: AUG-CC-PVTZ
    Blend: AUG-CC-PVTZ
  Basis Set: (AUG-CC-PVTZ AUX)
    Blend: AUG-CC-PVTZ-JKFIT

    Orbital Energies [Eh]
    ---------------------

    Doubly Occupied:

       1A    -20.564140     2A     -1.348933     3A     -0.729833
       4A     -0.572188     5A     -0.508374

  @DF-RHF Final Energy:   -76.05993146486362

   => Energetics <=

    Nuclear Repulsion Energy =              9.1793034583735427
    One-Electron Energy =                -123.0315302551982484
    Two-Electron Energy =                  37.7922953319610855
    Total Energy =                        -76.0599314648636238
 Dipole X            :        -59.9483689           59.7891961           -0.1591728
 Dipole Y            :         16.0429129          -16.4674306           -0.4245177
 Dipole Z            :        -13.1963079           12.6161140           -0.5801939
 Magnitude           :                                                    0.7363262
  Basis Set: (AUG-CC-PVTZ AUX)
    Blend: AUG-CC-PVTZ-RI
	 Reference Energy          =     -76.0599314648636238 [Eh]
	 Singles Energy            =      -0.0000000000000000 [Eh]
	 Same-Spin Energy          =      -0.0683134467225472 [Eh]
	 Opposite-Spin Energy      =      -0.2153923213911575 [Eh]
	 Correlation Energy        =      -0.2837057681137047 [Eh]
	 Total Energy              =     -76.3436372329773292 [Eh]

	 ================> DF-SCS-MP2 Energies <==================
	-----------------------------------------------------------
	 SCS Same-Spin Scale       =       0.3333333333333333 [-]
	 SCS Opposite-Spin Scale   =       1.2000000000000000 [-]
	 SCS Same-Spin Energy      =      -0.0227711489075157 [Eh]
	 SCS Opposite-Spin Energy  =      -0.2584707856693890 [Eh]
	 SCS Correlation Energy    =      -0.2812419345769047 [Eh]
	 SCS Total Energy          =     -76.3411733994405353 [Eh]
	-----------------------------------------------------------

*** Psi4 exiting successfully. Buy a developer a beer!
