                               Psi4 1.9 release

  ==> Input File <==

--------------------------------------------------------------------------
MEMORY 60 GB

molecule dimer {
-1 1
Cl     0.000000     0.000000     0.000000
--
0 1
O     -1.699511    -2.602859     1.388887
H     -1.009799    -3.281339     1.476309
H     -1.370004    -1.833268     0.834273
O      2.047824    -2.283636     1.627081
H      2.928790    -2.527615     1.228704
H      2.063927    -1.332444     1.617770
O     -2.694511     1.035503     1.396479
H     -3.182629     0.216460     1.160035
H     -1.779856     0.860726     1.190389
O      1.374557    -2.211274    -1.879035
H      1.185050    -3.173037    -1.766271
H      1.030023    -1.776112    -1.054907
O     -1.324787    -2.152761    -2.403691
H     -0.760749    -1.736481    -1.759069
H     -0.832269    -2.768136    -2.931446

units ang
no_reorient
no_com
symmetry c1
}

set {
basis        aug-cc-pVTZ
scf_type     df
}

energy("mp2", bsse_type="cp")
--------------------------------------------------------------------------

                               Psi4 1.9 release
    Molecular point group: c1
  Charge       = 0
  Multiplicity = 1
  Basis Set: AUG-CC-PVTZ
    Blend: AUG-CC-PVTZ
  Basis Set: (AUG-CC-PVTZ AUX)
    Blend: AUG-CC-PVTZ-JKFIT
  @DF-RHF Final Energy:  -380.27903554827452
    Total Energy =                       -380.2790355482745213
 Dipole X            :         40.0076235          -37.9814920            2.0261315
 Dipole Y            :        156.2837890         -156.9823120           -0.6985230
 Dipole Z            :         -2.0970801            1.9531359           -0.1439442
 Magnitude           :                                                    2.1479905
  Basis Set: (AUG-CC-PVTZ AUX)
    Blend: AUG-CC-PVTZ-RI
	 Reference Energy          =    -380.2790355482745213 [Eh]
	 Singles Energy            =      -0.0000000000000000 [Eh]
	 Same-Spin Energy          =      -0.3459195457335696 [Eh]
	 Opposite-Spin Energy      =      -1.0856060987788081 [Eh]
	 Correlation Energy        =      -1.4315256445123778 [Eh]
	 Total Energy              =    -381.7105611927868836 [Eh]
	 SCS Total Energy          =    -381.6970693820535985 [Eh]
                               Psi4 1.9 release
    Molecular point group: c1
  Multiplicity = 1
  Basis Set: AUG-CC-PVTZ
    Blend: AUG-CC-PVTZ
  Basis Set: (AUG-CC-PVTZ AUX)
    Blend: AUG-CC-PVTZ-JKFIT
  @DF-RHF Final Energy:  -459.57356579364705
    Total Energy =                       -459.5735657936470488
  Basis Set: (AUG-CC-PVTZ AUX)
	 Singles Energy            =      -0.0000000000000000 [Eh]
	 Same-Spin Energy          =      -0.0633445994848814 [Eh]
	 Opposite-Spin Energy      =      -0.1830026687222374 [Eh]
	 Correlation Energy        =      -0.2463472682071187 [Eh]
	 Total Energy              =    -459.8199130618541517 [Eh]
	 SCS Total Energy          =    -459.8142838626087041 [Eh]
                               Psi4 1.9 release
    Molecular point group: c1

    Geometry (in Bohr), charge = -1, multiplicity = 1:

       Center              X                  Y                   Z               Mass
    ------------   -----------------  -----------------  -----------------  -----------------
         CL           0.000000000000     0.000000000000     0.000000000000    34.968852682000
         O           -3.211610337203    -4.918690653183     2.624616049209    15.994914619570
         H           -1.908243551761    -6.200832034784     2.789819686549     1.007825032230
         H           -2.588932350782    -3.464374434566     1.576547483864     1.007825032230
         O            3.869826513140    -4.315446610236     3.074737473936    15.994914619570
         H            5.534610978980    -4.776500100599     2.321914049255     1.007825032230
         H            3.900256772938    -2.517954237510     3.057142233982     1.007825032230
         O           -5.091887832033     1.956817072090     2.638962849953    15.994914619570
         H           -6.014297168940     0.409050117117     2.192148445945     1.007825032230
         H           -3.363440382753     1.626536409061     2.249509192758     1.007825032230
         O            2.597536273831    -4.178702248346    -3.550861530150    15.994914619570
         H            2.239419944974    -5.996170915944    -3.337768453339     1.007825032230
         H            1.946461372922    -3.356365248139    -1.993485317828     1.007825032230
         O           -2.503484604567    -4.068128703567    -4.542317680228    15.994914619570
         H           -1.437607260216    -3.281473512061    -3.324158645783     1.007825032230
         H           -1.572760472709    -5.231018918020    -5.539630091569     1.007825032230

  Charge       = -1
  Multiplicity = 1
  Basis Set: AUG-CC-PVTZ
    Blend: AUG-CC-PVTZ
  Basis Set: (AUG-CC-PVTZ AUX)
    Blend: AUG-CC-PVTZ-JKFIT

    Orbital Energies [Eh]
    ---------------------

    Doubly Occupied:

       1A   -104.578809     2A    -20.453782     3A    -20.432775
       4A    -20.413892     5A    -20.408173     6A    -20.401479
       7A    -10.303739     8A     -7.769872     9A     -7.769830
      10A     -7.769751    11A     -1.230236    12A     -1.211371
      13A     -1.194932    14A     -1.184040    15A     -1.182290
      16A     -0.820358    17A     -0.589561    18A     -0.588331
      19A     -0.564921    20A     -0.561190    21A     -0.552076
      22A     -0.470392    23A     -0.450102    24A     -0.437038
      25A     -0.423099    26A     -0.419999    27A     -0.394649
      28A     -0.363989    29A     -0.358853    30A     -0.352805
      31A     -0.346649    32A     -0.235900    33A     -0.232272
      34A     -0.228658

  @DF-RHF Final Energy:  -839.91229553727783

   => Energetics <=

    Nuclear Repulsion Energy =            310.7679790341528587
    One-Electron Energy =               -1791.9689163361706505
    Two-Electron Energy =                 641.2886417647399639
    Total Energy =                       -839.9122955372778279
 Dipole X            :         40.2393075          -37.9814920            2.2578155
 Dipole Y            :        157.1388259         -156.9823120            0.1565138
 Dipole Z            :         -2.1333362            1.9531359           -0.1802003
 Magnitude           :                                                    2.2703963
  Basis Set: (AUG-CC-PVTZ AUX)
    Blend: AUG-CC-PVTZ-RI
	 Reference Energy          =    -839.9122955372778279 [Eh]
	 Singles Energy            =      -0.0000000000000000 [Eh]
	 Same-Spin Energy          =      -0.4169198156956228 [Eh]
	 Opposite-Spin Energy      =      -1.2741833371762086 [Eh]
	 Correlation Energy        =      -1.6911031528718312 [Eh]
	 Total Energy              =    -841.6033986901496746 [Eh]

	 ================> DF-SCS-MP2 Energies <==================
	-----------------------------------------------------------
	 SCS Same-Spin Scale       =       0.3333333333333333 [-]
	 SCS Opposite-Spin Scale   =       1.2000000000000000 [-]
	 SCS Same-Spin Energy      =      -0.1389732718985409 [Eh]
	 SCS Opposite-Spin Energy  =      -1.5290200046114502 [Eh]
	 SCS Correlation Energy    =      -1.6679932765099910 [Eh]
	 SCS Total Energy          =    -841.5802888137877744 [Eh]
	-----------------------------------------------------------

*** Psi4 exiting successfully. Buy a developer a beer!
