                               Psi4 1.9 release

  ==> Input File <==

--------------------------------------------------------------------------
MEMORY 60 GB

molecule dimer {
-1 1
Cl     0.000000     0.000000     0.000000
--
0 1
O      1.742297    -2.654047     1.118768
H      1.260670    -2.008429     0.613643
H      2.683510    -2.425408     0.973453
O     -0.878321    -2.549464    -2.008334
H     -0.081928    -2.939664    -2.323798
H     -0.714875    -1.691467    -1.528138
O      1.749563    -0.102248     3.018640
H      2.471494    -0.737311     3.082986
H      1.443373    -0.105267     2.081928
O     -0.979852     2.756798     1.607170
H     -1.662922     2.629789     2.250272
H     -0.638372     1.968890     1.221055
O      1.578888     0.765967    -2.773134
H      1.498143     0.657890    -1.802469
H      1.511288     1.750790    -2.889389
O     -1.085832     2.723152    -1.612034
H     -1.583392     2.750532    -2.453881
H     -0.723114     1.794176    -1.507763

units ang
no_reorient
no_com
symmetry c1
}

set {
basis        aug-cc-pVTZ
scf_type     df
}

energy("mp2", bsse_type="cp")
--------------------------------------------------------------------------

                               Psi4 1.9 release
    Molecular point group: c1
  Charge       = 0
  Multiplicity = 1
  Basis Set: AUG-CC-PVTZ
    Blend: AUG-CC-PVTZ
  Basis Set: (AUG-CC-PVTZ AUX)
    Blend: AUG-CC-PVTZ-JKFIT
  @DF-RHF Final Energy:  -456.33349698789073
    Total Energy =                       -456.3334969878907259
 Dipole X            :        -41.7080748           42.4769218            0.7688470
 Dipole Y            :        -17.5060196           17.3208234           -0.1851962
 Dipole Z            :         13.4393117          -14.1228550           -0.6835433
 Magnitude           :                                                    1.0453013
  Basis Set: (AUG-CC-PVTZ AUX)
    Blend: AUG-CC-PVTZ-RI
	 Reference Energy          =    -456.3334969878907259 [Eh]
	 Singles Energy            =      -0.0000000000000000 [Eh]
	 Same-Spin Energy          =      -0.4138833565624227 [Eh]
	 Opposite-Spin Energy      =      -1.3013322457305907 [Eh]
	 Correlation Energy        =      -1.7152156022930134 [Eh]
	 Total Energy              =    -458.0487125901837544 [Eh]
	 SCS Total Energy          =    -458.0330568016215693 [Eh]
                               Psi4 1.9 release
    Molecular point group: c1
  Multiplicity = 1
  Basis Set: AUG-CC-PVTZ
    Blend: AUG-CC-PVTZ
  Basis Set: (AUG-CC-PVTZ AUX)
    Blend: AUG-CC-PVTZ-JKFIT
  @DF-RHF Final Energy:  -459.57358411233469
    Total Energy =                       -459.5735841123347427
  Basis Set: (AUG-CC-PVTZ AUX)
	 Singles Energy            =      -0.0000000000000000 [Eh]
	 Same-Spin Energy          =      -0.0635583658049922 [Eh]
	 Opposite-Spin Energy      =      -0.1839164269665388 [Eh]
	 Correlation Energy        =      -0.2474747927715309 [Eh]
	 Total Energy              =    -459.8210589051062129 [Eh]
	 SCS Total Energy          =    -459.8154699466295483 [Eh]
                               Psi4 1.9 release
    Molecular point group: c1

    Geometry (in Bohr), charge = -1, multiplicity = 1:

       Center              X                  Y                   Z               Mass
    ------------   -----------------  -----------------  -----------------  -----------------
         CL           0.000000000000     0.000000000000     0.000000000000    34.968852682000
         O            3.292464159207    -5.015421954093     2.114165117926    15.994914619570
         H            2.382321034581    -3.795380752427     1.159617208804     1.007825032230
         H            5.071098954927    -4.583356862494     1.839559566005     1.007825032230
         O           -1.659786140238    -4.817788726714    -3.795201228445    15.994914619570
         H           -0.154821482007    -5.555159860868    -4.391341790887     1.007825032230
         H           -1.350917963937    -3.196409380250    -2.887762301905     1.007825032230
         O            3.306194909234    -0.193220716876     5.704402871352    15.994914619570
         H            4.670446780712    -1.393315859287     5.825999188621     1.007825032230
         H            2.727579666880    -0.198925800049     3.934273732922     1.007825032230
         O           -1.851651923482     5.209593203210     3.037111137052    15.994914619570
         H           -3.142467147999     4.969580977742     4.252397787786     1.007825032230
         H           -1.206348246161     3.720662871153     2.307459534121     1.007825032230
         O            2.983665902772     1.447467851139    -5.240463769195    15.994914619570
         H            2.831079966772     1.243231920677    -3.406172759628     1.007825032230
         H            2.855920416691     3.308513603190    -5.460153879910     1.007825032230
         O           -2.051925098258     5.146011477993    -3.046302764926    15.994914619570
         H           -2.992177229241     5.197752179308    -4.637163034465     1.007825032230
         H           -1.366487417484     3.390501260869    -2.849259132099     1.007825032230

  Charge       = -1
  Multiplicity = 1
  Basis Set: AUG-CC-PVTZ
    Blend: AUG-CC-PVTZ
  Basis Set: (AUG-CC-PVTZ AUX)
    Blend: AUG-CC-PVTZ-JKFIT

    Orbital Energies [Eh]
    ---------------------

    Doubly Occupied:

       1A   -104.604175     2A    -20.439626     3A    -20.438452
       4A    -20.430491     5A    -20.426764     6A    -20.419325
       7A    -20.403910     8A    -10.329380     9A     -7.795485
      10A     -7.795477    11A     -7.795442    12A     -1.224071
      13A     -1.208918    14A     -1.203103    15A     -1.200223
      16A     -1.199481    17A     -1.196540    18A     -0.848008
      19A     -0.593148    20A     -0.588627    21A     -0.583299
      22A     -0.573339    23A     -0.568284    24A     -0.567216
      25A     -0.461037    26A     -0.455445    27A     -0.442110
      28A     -0.436423    29A     -0.429140    30A     -0.415408
      31A     -0.385152    32A     -0.379985    33A     -0.368906
      34A     -0.366328    35A     -0.364397    36A     -0.352923
      37A     -0.260932    38A     -0.260006    39A     -0.256587

  @DF-RHF Final Energy:  -915.98857446861621

   => Energetics <=

    Nuclear Repulsion Energy =            389.0974039745376558
    One-Electron Energy =               -2054.0368250576111677
    Two-Electron Energy =                 748.9508466144573049
    Total Energy =                       -915.9885744686162070
 Dipole X            :        -42.0164733           42.4769218            0.4604485
 Dipole Y            :        -17.5572056           17.3208234           -0.2363823
 Dipole Z            :         13.6350377          -14.1228550           -0.4878173
 Magnitude           :                                                    0.7112349
  Basis Set: (AUG-CC-PVTZ AUX)
    Blend: AUG-CC-PVTZ-RI
	 Reference Energy          =    -915.9885744686162070 [Eh]
	 Singles Energy            =      -0.0000000000000000 [Eh]
	 Same-Spin Energy          =      -0.4865576275607452 [Eh]
	 Opposite-Spin Energy      =      -1.4914473793015066 [Eh]
	 Correlation Energy        =      -1.9780050068622519 [Eh]
	 Total Energy              =    -917.9665794754785111 [Eh]

	 ================> DF-SCS-MP2 Energies <==================
	-----------------------------------------------------------
	 SCS Same-Spin Scale       =       0.3333333333333333 [-]
	 SCS Opposite-Spin Scale   =       1.2000000000000000 [-]
	 SCS Same-Spin Energy      =      -0.1621858758535817 [Eh]
	 SCS Opposite-Spin Energy  =      -1.7897368551618078 [Eh]
	 SCS Correlation Energy    =      -1.9519227310153895 [Eh]
	 SCS Total Energy          =    -917.9404971996316362 [Eh]
	-----------------------------------------------------------

*** Psi4 exiting successfully. Buy a developer a beer!
