                               Psi4 1.9 release

  ==> Input File <==

--------------------------------------------------------------------------
MEMORY 60 GB

molecule dimer {
-1 1
Cl     0.000000     0.000000     0.000000
--
0 1
O     -0.173399    -2.130297    -2.421957
H     -0.233698    -1.609613    -1.627445
H      0.741541    -2.269770    -2.594685
O     -1.028624     2.347533    -2.150277
H     -1.885952     2.313957    -2.529985
H     -0.906437     1.866831    -1.296814
O      2.078078     0.785667     2.064740
H      2.174484    -0.068130     2.543642
H      1.384144     0.706821     1.444220
O      1.955819    -2.555345     0.911533
H      1.829860    -2.942121     1.778607
H      1.125160    -2.719941     0.440877
O     -1.696135    -2.267627     1.075756
H     -1.700190    -2.290389     2.057532
H     -1.174776    -1.505571     0.797835
O     -3.020585     0.879792     1.057446
H     -3.488907     0.101516     1.445361
H     -2.091292     0.587939     0.905517

units ang
no_reorient
no_com
symmetry c1
}

set {
basis        aug-cc-pVTZ
scf_type     df
}

energy("mp2", bsse_type="cp")
--------------------------------------------------------------------------

                               Psi4 1.9 release
    Molecular point group: c1
  Charge       = 0
  Multiplicity = 1
  Basis Set: AUG-CC-PVTZ
    Blend: AUG-CC-PVTZ
  Basis Set: (AUG-CC-PVTZ AUX)
    Blend: AUG-CC-PVTZ-JKFIT
  @DF-RHF Final Energy:  -456.34332782410723
    Total Energy =                       -456.3433278241072344
 Dipole X            :         36.0795427          -36.4808435           -0.4013008
 Dipole Y            :         57.8357759          -59.2442123           -1.4084364
 Dipole Z            :        -13.0136754           14.4801965            1.4665212
 Magnitude           :                                                    2.0725394
  Basis Set: (AUG-CC-PVTZ AUX)
    Blend: AUG-CC-PVTZ-RI
	 Reference Energy          =    -456.3433278241072344 [Eh]
	 Singles Energy            =      -0.0000000000000000 [Eh]
	 Same-Spin Energy          =      -0.4131247181601908 [Eh]
	 Opposite-Spin Energy      =      -1.2996491060054980 [Eh]
	 Correlation Energy        =      -1.7127738241656889 [Eh]
	 Total Energy              =    -458.0561016482729428 [Eh]
	 SCS Total Energy          =    -458.0406149907005897 [Eh]
                               Psi4 1.9 release
    Molecular point group: c1
  Multiplicity = 1
  Basis Set: AUG-CC-PVTZ
    Blend: AUG-CC-PVTZ
  Basis Set: (AUG-CC-PVTZ AUX)
    Blend: AUG-CC-PVTZ-JKFIT
  @DF-RHF Final Energy:  -459.57359282911119
    Total Energy =                       -459.5735928291111918
  Basis Set: (AUG-CC-PVTZ AUX)
	 Singles Energy            =      -0.0000000000000000 [Eh]
	 Same-Spin Energy          =      -0.0637940291136736 [Eh]
	 Opposite-Spin Energy      =      -0.1849694468034550 [Eh]
	 Correlation Energy        =      -0.2487634759171287 [Eh]
	 Total Energy              =    -459.8223563050283360 [Eh]
	 SCS Total Energy          =    -459.8168208416465745 [Eh]
                               Psi4 1.9 release
    Molecular point group: c1

    Geometry (in Bohr), charge = -1, multiplicity = 1:

       Center              X                  Y                   Z               Mass
    ------------   -----------------  -----------------  -----------------  -----------------
         CL           0.000000000000     0.000000000000     0.000000000000    34.968852682000
         O           -0.327676620428    -4.025677895884    -4.576835417635    15.994914619570
         H           -0.441625216067    -3.041727737977    -3.075425334246     1.007825032230
         H            1.401309400798    -4.289243667780    -4.903244031834     1.007825032230
         O           -1.943817646073     4.436194440474    -4.063434623871    15.994914619570
         H           -3.563932765759     4.372744996086    -4.780978751516     1.007825032230
         H           -1.712917679982     3.527799312515    -2.450623295659     1.007825032230
         O            3.926998287339     1.484695455810     3.901793120278    15.994914619570
         H            4.109179224190    -0.128747040927     4.806786741212     1.007825032230
         H            2.615653078196     1.335698109722     2.729180264909     1.007825032230
         O            3.695962260967    -4.828902206058     1.722547724317    15.994914619570
         H            3.457934247930    -5.559802917958     3.361080114822     1.007825032230
         H            2.126244247320    -5.139943567404     0.833136785013     1.007825032230
         O           -3.205230621803    -4.285193984694     2.032884217818    15.994914619570
         H           -3.212893461242    -4.328207930761     3.888171974365     1.007825032230
         H           -2.220004898761    -2.845116852432     1.507689643305     1.007825032230
         O           -5.708078388666     1.662565927369     1.998283332461    15.994914619570
         H           -6.593078707193     0.191837437352     2.731336442418     1.007825032230
         H           -3.951969128361     1.111043688476     1.711179131946     1.007825032230

  Charge       = -1
  Multiplicity = 1
  Basis Set: AUG-CC-PVTZ
    Blend: AUG-CC-PVTZ
  Basis Set: (AUG-CC-PVTZ AUX)
    Blend: AUG-CC-PVTZ-JKFIT

    Orbital Energies [Eh]
    ---------------------

    Doubly Occupied:

       1A   -104.600051     2A    -20.449552     3A    -20.430440
       4A    -20.427925     5A    -20.415114     6A    -20.412263
       7A    -20.402422     8A    -10.326432     9A     -7.792534
      10A     -7.792461    11A     -7.792417    12A     -1.233119
      13A     -1.212240    14A     -1.211156    15A     -1.197603
      16A     -1.195635    17A     -1.191540    18A     -0.853020
      19A     -0.599098    20A     -0.589956    21A     -0.587181
      22A     -0.583420    23A     -0.569004    24A     -0.565265
      25A     -0.466803    26A     -0.450279    27A     -0.441078
      28A     -0.439534    29A     -0.425636    30A     -0.416309
      31A     -0.393251    32A     -0.376025    33A     -0.367591
      34A     -0.365542    35A     -0.359172    36A     -0.351190
      37A     -0.261921    38A     -0.258154    39A     -0.255244

  @DF-RHF Final Energy:  -915.98566500281606

   => Energetics <=

    Nuclear Repulsion Energy =            402.9854687292447579
    One-Electron Energy =               -2081.8271041372809123
    Two-Electron Energy =                 762.8559704052200914
    Total Energy =                       -915.9856650028160630
 Dipole X            :         36.5449266          -36.4808435            0.0640831
 Dipole Y            :         58.2032422          -59.2442123           -1.0409701
 Dipole Z            :        -13.2803226           14.4801965            1.1998739
 Magnitude           :                                                    1.5897870
  Basis Set: (AUG-CC-PVTZ AUX)
    Blend: AUG-CC-PVTZ-RI
	 Reference Energy          =    -915.9856650028160630 [Eh]
	 Singles Energy            =      -0.0000000000000000 [Eh]
	 Same-Spin Energy          =      -0.4883352913973613 [Eh]
	 Opposite-Spin Energy      =      -1.4929479425868148 [Eh]
	 Correlation Energy        =      -1.9812832339841762 [Eh]
	 Total Energy              =    -917.9669482368002491 [Eh]

	 ================> DF-SCS-MP2 Energies <==================
	-----------------------------------------------------------
	 SCS Same-Spin Scale       =       0.3333333333333333 [-]
	 SCS Opposite-Spin Scale   =       1.2000000000000000 [-]
	 SCS Same-Spin Energy      =      -0.1627784304657871 [Eh]
	 SCS Opposite-Spin Energy  =      -1.7915375311041777 [Eh]
	 SCS Correlation Energy    =      -1.9543159615699648 [Eh]
	 SCS Total Energy          =    -917.9399809643859953 [Eh]
	-----------------------------------------------------------

*** Psi4 exiting successfully. Buy a developer a beer!
