                               Psi4 1.8.2 release

  ==> Input File <==

--------------------------------------------------------------------------
MEMORY 60 GB

molecule dimer {
-1 1
Cl         0.000000     0.000000     0.000000
Gh(O)     -2.709595    -0.564414     1.986950
Gh(H)     -2.012609    -0.356588     1.361955
Gh(H)     -3.524735    -0.339512     1.483111
Gh(O)      0.458298    -0.295669     3.415454
Gh(H)      0.366928     0.233955     2.580124
Gh(H)      1.441111    -0.213655     3.579034
Gh(O)      0.964782     1.256879    -2.914500
Gh(H)      0.751989     0.912790    -2.038240
Gh(H)      0.228306     1.846266    -3.151398
Gh(O)     -0.817501    -3.251590     0.551563
Gh(H)     -1.223410    -3.568100    -0.255690
Gh(H)     -1.014239    -2.333206     0.731087
Gh(O)      1.264464     2.704809     0.729411
Gh(H)      0.706287     1.905591     0.552777
Gh(H)      1.975961     2.355386     1.286056

units ang
no_reorient
no_com
symmetry c1
}

set {
basis        aug-cc-pVTZ
scf_type     df
}

energy("mp2")
--------------------------------------------------------------------------

    Molecular point group: c1

    Geometry (in Angstrom), charge = -1, multiplicity = 1:

       Center              X                  Y                   Z               Mass
    ------------   -----------------  -----------------  -----------------  -----------------
         CL           0.000000000000     0.000000000000     0.000000000000    34.968852682000
      Gh(O)          -2.709595000000    -0.564414000000     1.986950000000    15.994914619570
      Gh(H)          -2.012609000000    -0.356588000000     1.361955000000     1.007825032230
      Gh(H)          -3.524735000000    -0.339512000000     1.483111000000     1.007825032230
      Gh(O)           0.458298000000    -0.295669000000     3.415454000000    15.994914619570
      Gh(H)           0.366928000000     0.233955000000     2.580124000000     1.007825032230
      Gh(H)           1.441111000000    -0.213655000000     3.579034000000     1.007825032230
      Gh(O)           0.964782000000     1.256879000000    -2.914500000000    15.994914619570
      Gh(H)           0.751989000000     0.912790000000    -2.038240000000     1.007825032230
      Gh(H)           0.228306000000     1.846266000000    -3.151398000000     1.007825032230
      Gh(O)          -0.817501000000    -3.251590000000     0.551563000000    15.994914619570
      Gh(H)          -1.223410000000    -3.568100000000    -0.255690000000     1.007825032230
      Gh(H)          -1.014239000000    -2.333206000000     0.731087000000     1.007825032230
      Gh(O)           1.264464000000     2.704809000000     0.729411000000    15.994914619570
      Gh(H)           0.706287000000     1.905591000000     0.552777000000     1.007825032230
      Gh(H)           1.975961000000     2.355386000000     1.286056000000     1.007825032230

  Charge       = -1
  Multiplicity = 1
  Basis Set: AUG-CC-PVTZ
    Blend: AUG-CC-PVTZ
  Basis Set: (AUG-CC-PVTZ AUX)
    Blend: AUG-CC-PVTZ-JKFIT

    Orbital Energies [Eh]
    ---------------------

    Doubly Occupied:

       1A   -104.507127     2A    -10.230024     3A     -7.696114
       4A     -7.696073     5A     -7.696054     6A     -0.733468
       7A     -0.150313     8A     -0.150306     9A     -0.150301

  @DF-RHF Final Energy:  -459.57356840359807

   => Energetics <=

    Nuclear Repulsion Energy =              0.0000000000000000
    One-Electron Energy =                -641.1275897314792473
    Two-Electron Energy =                 181.5540213278811166
    Total Energy =                       -459.5735684035981308
 Dipole X            :         -0.0000252            0.0000000           -0.0000252
 Dipole Y            :          0.0001490            0.0000000            0.0001490
 Dipole Z            :          0.0000933            0.0000000            0.0000933
 Magnitude           :                                                    0.0001776
  Basis Set: (AUG-CC-PVTZ AUX)
    Blend: AUG-CC-PVTZ-RI
	 Reference Energy          =    -459.5735684035980739 [Eh]
	 Singles Energy            =      -0.0000000000000000 [Eh]
	 Same-Spin Energy          =      -0.0634227821906694 [Eh]
	 Opposite-Spin Energy      =      -0.1833977184755608 [Eh]
	 Correlation Energy        =      -0.2468205006662302 [Eh]
	 Total Energy              =    -459.8203889042642913 [Eh]

	 ================> DF-SCS-MP2 Energies <==================
	-----------------------------------------------------------
	 SCS Same-Spin Scale       =       0.3333333333333333 [-]
	 SCS Opposite-Spin Scale   =       1.2000000000000000 [-]
	 SCS Same-Spin Energy      =      -0.0211409273968898 [Eh]
	 SCS Opposite-Spin Energy  =      -0.2200772621706729 [Eh]
	 SCS Correlation Energy    =      -0.2412181895675627 [Eh]
	 SCS Total Energy          =    -459.8147865931656497 [Eh]
	-----------------------------------------------------------

*** Psi4 exiting successfully. Buy a developer a beer!
