                               Psi4 1.8.2 release

  ==> Input File <==

--------------------------------------------------------------------------
MEMORY 60 GB

molecule dimer {
-1 1
Cl         0.000000     0.000000     0.000000
O         -2.639249    -2.043355    -0.424183
H         -1.808856    -1.471762    -0.429724
H         -2.641062    -2.333764    -1.316977
O          0.403629    -2.390235     2.477646
H         -0.432481    -2.907837     2.347215
H          0.412111    -1.672041     1.879690
O         -0.714179     0.377929    -3.329396
H         -1.198332    -0.133274    -2.628707
H         -0.377953     1.213673    -2.933940
O         -2.634641     1.896873     0.738049
H         -1.800704     1.389428     0.628177
H         -2.528308     2.751205     0.372104
O          0.783633    -2.645861    -1.980641
H          0.893785    -2.060143    -2.776260
H          0.469594    -2.121247    -1.272007

units ang
no_reorient
no_com
symmetry c1
}

set {
basis        aug-cc-pVTZ
scf_type     df
}

energy("mp2")
--------------------------------------------------------------------------

    Molecular point group: c1

    Geometry (in Angstrom), charge = -1, multiplicity = 1:

       Center              X                  Y                   Z               Mass
    ------------   -----------------  -----------------  -----------------  -----------------
         CL           0.000000000000     0.000000000000     0.000000000000    34.968852682000
         O           -2.639249000000    -2.043355000000    -0.424183000000    15.994914619570
         H           -1.808856000000    -1.471762000000    -0.429724000000     1.007825032230
         H           -2.641062000000    -2.333764000000    -1.316977000000     1.007825032230
         O            0.403629000000    -2.390235000000     2.477646000000    15.994914619570
         H           -0.432481000000    -2.907837000000     2.347215000000     1.007825032230
         H            0.412111000000    -1.672041000000     1.879690000000     1.007825032230
         O           -0.714179000000     0.377929000000    -3.329396000000    15.994914619570
         H           -1.198332000000    -0.133274000000    -2.628707000000     1.007825032230
         H           -0.377953000000     1.213673000000    -2.933940000000     1.007825032230
         O           -2.634641000000     1.896873000000     0.738049000000    15.994914619570
         H           -1.800704000000     1.389428000000     0.628177000000     1.007825032230
         H           -2.528308000000     2.751205000000     0.372104000000     1.007825032230
         O            0.783633000000    -2.645861000000    -1.980641000000    15.994914619570
         H            0.893785000000    -2.060143000000    -2.776260000000     1.007825032230
         H            0.469594000000    -2.121247000000    -1.272007000000     1.007825032230

  Charge       = -1
  Multiplicity = 1
  Basis Set: AUG-CC-PVTZ
    Blend: AUG-CC-PVTZ
  Basis Set: (AUG-CC-PVTZ AUX)
    Blend: AUG-CC-PVTZ-JKFIT

    Orbital Energies [Eh]
    ---------------------

    Doubly Occupied:

       1A   -104.591978     2A    -20.446860     3A    -20.427777
       4A    -20.424078     5A    -20.419669     6A    -20.418685
       7A    -10.316717     8A     -7.782840     9A     -7.782804
      10A     -7.782760    11A     -1.213333    12A     -1.209952
      13A     -1.207054    14A     -1.206640    15A     -1.203199
      16A     -0.832217    17A     -0.587558    18A     -0.583556
      19A     -0.581007    20A     -0.578795    21A     -0.561063
      22A     -0.455959    23A     -0.451706    24A     -0.440469
      25A     -0.435402    26A     -0.434220    27A     -0.386064
      28A     -0.372382    29A     -0.368315    30A     -0.365690
      31A     -0.365011    32A     -0.246950    33A     -0.244721
      34A     -0.243043

  @DF-RHF Final Energy:  -839.92859729272550

   => Energetics <=

    Nuclear Repulsion Energy =            299.9644301787146787
    One-Electron Energy =               -1769.8490943636857082
    Two-Electron Energy =                 629.9560668922454170
    Total Energy =                       -839.9285972927254988
 Dipole X            :         90.5077851          -89.6082844            0.8995007
 Dipole Y            :         88.4090391          -86.5172443            1.8917949
 Dipole Z            :         49.1139102          -49.6594118           -0.5455015
 Magnitude           :                                                    2.1646157
  Basis Set: (AUG-CC-PVTZ AUX)
    Blend: AUG-CC-PVTZ-RI
	 Reference Energy          =    -839.9285972927254988 [Eh]
	 Singles Energy            =      -0.0000000000000000 [Eh]
	 Same-Spin Energy          =      -0.4146592160063049 [Eh]
	 Opposite-Spin Energy      =      -1.2709860342669017 [Eh]
	 Correlation Energy        =      -1.6856452502732067 [Eh]
	 Total Energy              =    -841.6142425429986815 [Eh]

	 ================> DF-SCS-MP2 Energies <==================
	-----------------------------------------------------------
	 SCS Same-Spin Scale       =       0.3333333333333333 [-]
	 SCS Opposite-Spin Scale   =       1.2000000000000000 [-]
	 SCS Same-Spin Energy      =      -0.1382197386687683 [Eh]
	 SCS Opposite-Spin Energy  =      -1.5251832411202819 [Eh]
	 SCS Correlation Energy    =      -1.6634029797890502 [Eh]
	 SCS Total Energy          =    -841.5920002725144968 [Eh]
	-----------------------------------------------------------

*** Psi4 exiting successfully. Buy a developer a beer!
