                               Psi4 1.8.2 release

  ==> Input File <==

--------------------------------------------------------------------------
MEMORY 60 GB

molecule dimer {
0 1
Gh(Cl)     0.000000     0.000000     0.000000
Gh(O)      2.217451     0.173132    -2.196728
Gh(H)      1.450489     0.085813    -1.601960
Gh(H)      2.136415     1.036921    -2.632012
Gh(O)     -3.104951     1.312552    -0.666533
Gh(H)     -2.224123     0.928576    -0.487843
Gh(H)     -3.617532     0.562843    -0.908656
Gh(O)      1.272227     2.966293     0.141325
Gh(H)      0.856129     3.522110     0.878231
Gh(H)      0.642780     2.184762     0.155358
Gh(O)      0.216100     0.918779     3.064477
Gh(H)      0.501188     0.528894     2.252647
Gh(H)     -0.506248     0.390525     3.374447
O          1.294073    -2.891435     1.095122
H          1.863156    -3.654697     1.184616
H          1.395565    -2.604001     0.149232
Gh(O)     -1.460884    -1.361846    -2.351721
Gh(H)     -0.940849    -0.704004    -1.930802
Gh(H)     -1.693945    -0.968444    -3.207386

units ang
no_reorient
no_com
symmetry c1
}

set {
basis        aug-cc-pVTZ
scf_type     df
}

energy("mp2")
--------------------------------------------------------------------------

    Molecular point group: c1

    Geometry (in Angstrom), charge = 0, multiplicity = 1:

       Center              X                  Y                   Z               Mass
    ------------   -----------------  -----------------  -----------------  -----------------
      Gh(CL)          0.000000000000     0.000000000000     0.000000000000    34.968852682000
      Gh(O)           2.217451000000     0.173132000000    -2.196728000000    15.994914619570
      Gh(H)           1.450489000000     0.085813000000    -1.601960000000     1.007825032230
      Gh(H)           2.136415000000     1.036921000000    -2.632012000000     1.007825032230
      Gh(O)          -3.104951000000     1.312552000000    -0.666533000000    15.994914619570
      Gh(H)          -2.224123000000     0.928576000000    -0.487843000000     1.007825032230
      Gh(H)          -3.617532000000     0.562843000000    -0.908656000000     1.007825032230
      Gh(O)           1.272227000000     2.966293000000     0.141325000000    15.994914619570
      Gh(H)           0.856129000000     3.522110000000     0.878231000000     1.007825032230
      Gh(H)           0.642780000000     2.184762000000     0.155358000000     1.007825032230
      Gh(O)           0.216100000000     0.918779000000     3.064477000000    15.994914619570
      Gh(H)           0.501188000000     0.528894000000     2.252647000000     1.007825032230
      Gh(H)          -0.506248000000     0.390525000000     3.374447000000     1.007825032230
         O            1.294073000000    -2.891435000000     1.095122000000    15.994914619570
         H            1.863156000000    -3.654697000000     1.184616000000     1.007825032230
         H            1.395565000000    -2.604001000000     0.149232000000     1.007825032230
      Gh(O)          -1.460884000000    -1.361846000000    -2.351721000000    15.994914619570
      Gh(H)          -0.940849000000    -0.704004000000    -1.930802000000     1.007825032230
      Gh(H)          -1.693945000000    -0.968444000000    -3.207386000000     1.007825032230

  Charge       = 0
  Multiplicity = 1
  Basis Set: AUG-CC-PVTZ
    Blend: AUG-CC-PVTZ
  Basis Set: (AUG-CC-PVTZ AUX)
    Blend: AUG-CC-PVTZ-JKFIT

    Orbital Energies [Eh]
    ---------------------

    Doubly Occupied:

       1A    -20.569993     2A     -1.344561     3A     -0.709258
       4A     -0.580412     5A     -0.508789

  @DF-RHF Final Energy:   -76.05826084920918

   => Energetics <=

    Nuclear Repulsion Energy =              9.0288757198602063
    One-Electron Energy =                -122.7482443544495112
    Two-Electron Energy =                  37.6611077853801390
    Total Energy =                        -76.0582608492091623
 Dipole X            :        -25.2774141           25.7216387            0.4442246
 Dipole Y            :         55.2211446          -55.5393872           -0.3182426
 Dipole Z            :        -19.6370942           19.0764526           -0.5606416
 Magnitude           :                                                    0.7829002
  Basis Set: (AUG-CC-PVTZ AUX)
    Blend: AUG-CC-PVTZ-RI
	 Reference Energy          =     -76.0582608492091765 [Eh]
	 Singles Energy            =      -0.0000000000000000 [Eh]
	 Same-Spin Energy          =      -0.0686595620149878 [Eh]
	 Opposite-Spin Energy      =      -0.2163236480971295 [Eh]
	 Correlation Energy        =      -0.2849832101121172 [Eh]
	 Total Energy              =     -76.3432440593212931 [Eh]

	 ================> DF-SCS-MP2 Energies <==================
	-----------------------------------------------------------
	 SCS Same-Spin Scale       =       0.3333333333333333 [-]
	 SCS Opposite-Spin Scale   =       1.2000000000000000 [-]
	 SCS Same-Spin Energy      =      -0.0228865206716626 [Eh]
	 SCS Opposite-Spin Energy  =      -0.2595883777165554 [Eh]
	 SCS Correlation Energy    =      -0.2824748983882179 [Eh]
	 SCS Total Energy          =     -76.3407357475973924 [Eh]
	-----------------------------------------------------------

*** Psi4 exiting successfully. Buy a developer a beer!
