                               Psi4 1.8.2 release

  ==> Input File <==

--------------------------------------------------------------------------
MEMORY 60 GB

molecule dimer {
-1 1
Cl         0.000000     0.000000     0.000000
O         -0.853615    -3.073938     0.001422
H         -0.700047    -2.131269     0.018283
H         -0.736767    -3.342697     0.936492
O         -1.861729    -0.237708    -2.894943
H         -2.044505     0.088802    -2.038781
H         -0.909613    -0.441097    -2.789066
O          1.901996    -2.555862     1.121538
H          1.181856    -3.161835     1.015908
H          1.568338    -1.739261     0.697667
O         -0.317986     0.148115     3.343688
H          0.298703    -0.298440     3.876186
H         -0.036324     0.020454     2.421803
O         -2.717002     0.216750     1.453755
H         -2.702718    -0.603026     1.933237
H         -1.809585     0.403824     1.178356

units ang
no_reorient
no_com
symmetry c1
}

set {
basis        aug-cc-pVTZ
scf_type     df
}

energy("mp2")
--------------------------------------------------------------------------

    Molecular point group: c1

    Geometry (in Angstrom), charge = -1, multiplicity = 1:

       Center              X                  Y                   Z               Mass
    ------------   -----------------  -----------------  -----------------  -----------------
         CL           0.000000000000     0.000000000000     0.000000000000    34.968852682000
         O           -0.853615000000    -3.073938000000     0.001422000000    15.994914619570
         H           -0.700047000000    -2.131269000000     0.018283000000     1.007825032230
         H           -0.736767000000    -3.342697000000     0.936492000000     1.007825032230
         O           -1.861729000000    -0.237708000000    -2.894943000000    15.994914619570
         H           -2.044505000000     0.088802000000    -2.038781000000     1.007825032230
         H           -0.909613000000    -0.441097000000    -2.789066000000     1.007825032230
         O            1.901996000000    -2.555862000000     1.121538000000    15.994914619570
         H            1.181856000000    -3.161835000000     1.015908000000     1.007825032230
         H            1.568338000000    -1.739261000000     0.697667000000     1.007825032230
         O           -0.317986000000     0.148115000000     3.343688000000    15.994914619570
         H            0.298703000000    -0.298440000000     3.876186000000     1.007825032230
         H           -0.036324000000     0.020454000000     2.421803000000     1.007825032230
         O           -2.717002000000     0.216750000000     1.453755000000    15.994914619570
         H           -2.702718000000    -0.603026000000     1.933237000000     1.007825032230
         H           -1.809585000000     0.403824000000     1.178356000000     1.007825032230

  Charge       = -1
  Multiplicity = 1
  Basis Set: AUG-CC-PVTZ
    Blend: AUG-CC-PVTZ
  Basis Set: (AUG-CC-PVTZ AUX)
    Blend: AUG-CC-PVTZ-JKFIT

    Orbital Energies [Eh]
    ---------------------

    Doubly Occupied:

       1A   -104.599335     2A    -20.434853     3A    -20.429669
       4A    -20.427429     5A    -20.423854     6A    -20.400741
       7A    -10.324721     8A     -7.790807     9A     -7.790795
      10A     -7.790750    11A     -1.224335    12A     -1.223765
      13A     -1.214105    14A     -1.211949    15A     -1.191241
      16A     -0.844731    17A     -0.595950    18A     -0.588116
      19A     -0.571770    20A     -0.565502    21A     -0.563930
      22A     -0.470293    23A     -0.456300    24A     -0.452552
      25A     -0.448245    26A     -0.426320    27A     -0.379092
      28A     -0.378753    29A     -0.372977    30A     -0.369782
      31A     -0.349658    32A     -0.255831    33A     -0.255504
      34A     -0.251698

  @DF-RHF Final Energy:  -839.93329853384421

   => Energetics <=

    Nuclear Repulsion Energy =            314.1571737150396757
    One-Electron Energy =               -1798.0302346188200318
    Two-Electron Energy =                 643.9397623699360338
    Total Energy =                       -839.9332985338442086
 Dipole X            :         70.7811394          -69.3101465            1.4709929
 Dipole Y            :        104.8425857         -104.3614273            0.4811584
 Dipole Z            :        -59.1222363           59.4390015            0.3167651
 Magnitude           :                                                    1.5797701
  Basis Set: (AUG-CC-PVTZ AUX)
    Blend: AUG-CC-PVTZ-RI
	 Reference Energy          =    -839.9332985338442086 [Eh]
	 Singles Energy            =      -0.0000000000000000 [Eh]
	 Same-Spin Energy          =      -0.4168665894703835 [Eh]
	 Opposite-Spin Energy      =      -1.2722399420715642 [Eh]
	 Correlation Energy        =      -1.6891065315419476 [Eh]
	 Total Energy              =    -841.6224050653861468 [Eh]

	 ================> DF-SCS-MP2 Energies <==================
	-----------------------------------------------------------
	 SCS Same-Spin Scale       =       0.3333333333333333 [-]
	 SCS Opposite-Spin Scale   =       1.2000000000000000 [-]
	 SCS Same-Spin Energy      =      -0.1389555298234612 [Eh]
	 SCS Opposite-Spin Energy  =      -1.5266879304858769 [Eh]
	 SCS Correlation Energy    =      -1.6656434603093380 [Eh]
	 SCS Total Energy          =    -841.5989419941535061 [Eh]
	-----------------------------------------------------------

*** Psi4 exiting successfully. Buy a developer a beer!
