                               Psi4 1.8.2 release

  ==> Input File <==

--------------------------------------------------------------------------
MEMORY 60 GB

molecule dimer {
-1 1
Cl         0.000000     0.000000     0.000000
Gh(O)      1.087017    -1.938826     2.134205
Gh(H)      1.242037    -1.061945     1.749816
Gh(H)      0.542211    -2.402701     1.471366
Gh(O)     -2.357560     1.098794     1.961526
Gh(H)     -1.852852     0.324910     1.716449
Gh(H)     -2.821126     1.412667     1.135968
Gh(O)     -1.308863     1.084084    -2.918475
Gh(H)     -0.877334     0.596674    -2.186330
Gh(H)     -2.054769     0.500763    -3.101511
Gh(O)      3.206515     0.353628    -1.306580
Gh(H)      2.420873     0.715524    -0.930580
Gh(H)      3.817413     0.545332    -0.612808
Gh(O)     -1.360642    -2.838085     0.606738
Gh(H)     -1.416503    -1.957719     0.217323
Gh(H)     -1.726871    -2.747994     1.472142
Gh(O)      1.537381    -2.218729    -1.585335
Gh(H)      2.389844    -1.888690    -1.756621
Gh(H)      1.246941    -1.520306    -0.997139

units ang
no_reorient
no_com
symmetry c1
}

set {
basis        aug-cc-pVTZ
scf_type     df
}

energy("mp2")
--------------------------------------------------------------------------

    Molecular point group: c1

    Geometry (in Angstrom), charge = -1, multiplicity = 1:

       Center              X                  Y                   Z               Mass
    ------------   -----------------  -----------------  -----------------  -----------------
         CL           0.000000000000     0.000000000000     0.000000000000    34.968852682000
      Gh(O)           1.087017000000    -1.938826000000     2.134205000000    15.994914619570
      Gh(H)           1.242037000000    -1.061945000000     1.749816000000     1.007825032230
      Gh(H)           0.542211000000    -2.402701000000     1.471366000000     1.007825032230
      Gh(O)          -2.357560000000     1.098794000000     1.961526000000    15.994914619570
      Gh(H)          -1.852852000000     0.324910000000     1.716449000000     1.007825032230
      Gh(H)          -2.821126000000     1.412667000000     1.135968000000     1.007825032230
      Gh(O)          -1.308863000000     1.084084000000    -2.918475000000    15.994914619570
      Gh(H)          -0.877334000000     0.596674000000    -2.186330000000     1.007825032230
      Gh(H)          -2.054769000000     0.500763000000    -3.101511000000     1.007825032230
      Gh(O)           3.206515000000     0.353628000000    -1.306580000000    15.994914619570
      Gh(H)           2.420873000000     0.715524000000    -0.930580000000     1.007825032230
      Gh(H)           3.817413000000     0.545332000000    -0.612808000000     1.007825032230
      Gh(O)          -1.360642000000    -2.838085000000     0.606738000000    15.994914619570
      Gh(H)          -1.416503000000    -1.957719000000     0.217323000000     1.007825032230
      Gh(H)          -1.726871000000    -2.747994000000     1.472142000000     1.007825032230
      Gh(O)           1.537381000000    -2.218729000000    -1.585335000000    15.994914619570
      Gh(H)           2.389844000000    -1.888690000000    -1.756621000000     1.007825032230
      Gh(H)           1.246941000000    -1.520306000000    -0.997139000000     1.007825032230

  Charge       = -1
  Multiplicity = 1
  Basis Set: AUG-CC-PVTZ
    Blend: AUG-CC-PVTZ
  Basis Set: (AUG-CC-PVTZ AUX)
    Blend: AUG-CC-PVTZ-JKFIT

    Orbital Energies [Eh]
    ---------------------

    Doubly Occupied:

       1A   -104.507357     2A    -10.230084     3A     -7.696159
       4A     -7.696135     5A     -7.696133     6A     -0.733460
       7A     -0.150304     8A     -0.150302     9A     -0.150299

  @DF-RHF Final Energy:  -459.57358540646817

   => Energetics <=

    Nuclear Repulsion Energy =              0.0000000000000000
    One-Electron Energy =                -641.1267162725201842
    Two-Electron Energy =                 181.5531308660520153
    Total Energy =                       -459.5735854064681689
 Dipole X            :          0.0000131            0.0000000            0.0000131
 Dipole Y            :         -0.0000592            0.0000000           -0.0000592
 Dipole Z            :         -0.0000496            0.0000000           -0.0000496
 Magnitude           :                                                    0.0000783
  Basis Set: (AUG-CC-PVTZ AUX)
    Blend: AUG-CC-PVTZ-RI
	 Reference Energy          =    -459.5735854064681689 [Eh]
	 Singles Energy            =      -0.0000000000000000 [Eh]
	 Same-Spin Energy          =      -0.0636270594890055 [Eh]
	 Opposite-Spin Energy      =      -0.1841094162364284 [Eh]
	 Correlation Energy        =      -0.2477364757254340 [Eh]
	 Total Energy              =    -459.8213218821936152 [Eh]

	 ================> DF-SCS-MP2 Energies <==================
	-----------------------------------------------------------
	 SCS Same-Spin Scale       =       0.3333333333333333 [-]
	 SCS Opposite-Spin Scale   =       1.2000000000000000 [-]
	 SCS Same-Spin Energy      =      -0.0212090198296685 [Eh]
	 SCS Opposite-Spin Energy  =      -0.2209312994837141 [Eh]
	 SCS Correlation Energy    =      -0.2421403193133826 [Eh]
	 SCS Total Energy          =    -459.8157257257815331 [Eh]
	-----------------------------------------------------------

*** Psi4 exiting successfully. Buy a developer a beer!
