                               Psi4 1.8.2 release

  ==> Input File <==

--------------------------------------------------------------------------
MEMORY 60 GB

molecule dimer {
0 1
Gh(Cl)     0.000000     0.000000     0.000000
Gh(O)      1.179099    -2.702793    -1.094667
Gh(H)      0.929403    -2.029129    -0.462359
Gh(H)      1.092980    -3.573515    -0.633220
O          0.081134    -0.715370     3.048829
H          0.119206    -0.799922     2.117339
H          0.247800     0.236344     3.210993
Gh(O)      3.112573     0.441417     0.245605
Gh(H)      3.060093     0.433467     1.176247
Gh(H)      2.153407     0.499648    -0.068952
Gh(O)      1.136783     3.068748     0.881171
Gh(H)      0.679395     2.461157     0.268662
Gh(H)      1.062669     3.915090     0.427493

units ang
no_reorient
no_com
symmetry c1
}

set {
basis        aug-cc-pVTZ
scf_type     df
}

energy("mp2")
--------------------------------------------------------------------------

    Molecular point group: c1

    Geometry (in Angstrom), charge = 0, multiplicity = 1:

       Center              X                  Y                   Z               Mass
    ------------   -----------------  -----------------  -----------------  -----------------
      Gh(CL)          0.000000000000     0.000000000000     0.000000000000    34.968852682000
      Gh(O)           1.179099000000    -2.702793000000    -1.094667000000    15.994914619570
      Gh(H)           0.929403000000    -2.029129000000    -0.462359000000     1.007825032230
      Gh(H)           1.092980000000    -3.573515000000    -0.633220000000     1.007825032230
         O            0.081134000000    -0.715370000000     3.048829000000    15.994914619570
         H            0.119206000000    -0.799922000000     2.117339000000     1.007825032230
         H            0.247800000000     0.236344000000     3.210993000000     1.007825032230
      Gh(O)           3.112573000000     0.441417000000     0.245605000000    15.994914619570
      Gh(H)           3.060093000000     0.433467000000     1.176247000000     1.007825032230
      Gh(H)           2.153407000000     0.499648000000    -0.068952000000     1.007825032230
      Gh(O)           1.136783000000     3.068748000000     0.881171000000    15.994914619570
      Gh(H)           0.679395000000     2.461157000000     0.268662000000     1.007825032230
      Gh(H)           1.062669000000     3.915090000000     0.427493000000     1.007825032230

  Charge       = 0
  Multiplicity = 1
  Basis Set: AUG-CC-PVTZ
    Blend: AUG-CC-PVTZ
  Basis Set: (AUG-CC-PVTZ AUX)
    Blend: AUG-CC-PVTZ-JKFIT

    Orbital Energies [Eh]
    ---------------------

    Doubly Occupied:

       1A    -20.567305     2A     -1.353899     3A     -0.717012
       4A     -0.585208     5A     -0.510411

  @DF-RHF Final Energy:   -76.05964668928510

   => Energetics <=

    Nuclear Repulsion Energy =              9.1934749512502556
    One-Electron Energy =                -123.0385697742989493
    Two-Electron Energy =                  37.7854481337635875
    Total Energy =                        -76.0596466892851026
 Dipole X            :         -1.7847903            1.9201091            0.1353188
 Dipole Y            :         12.4508436          -11.8798351            0.5710085
 Dipole Z            :        -56.6778743           56.1607027           -0.5171716
 Magnitude           :                                                    0.7821946
  Basis Set: (AUG-CC-PVTZ AUX)
    Blend: AUG-CC-PVTZ-RI
	 Reference Energy          =     -76.0596466892851026 [Eh]
	 Singles Energy            =      -0.0000000000000000 [Eh]
	 Same-Spin Energy          =      -0.0683922369678042 [Eh]
	 Opposite-Spin Energy      =      -0.2158610088430822 [Eh]
	 Correlation Energy        =      -0.2842532458108864 [Eh]
	 Total Energy              =     -76.3438999350959904 [Eh]

	 ================> DF-SCS-MP2 Energies <==================
	-----------------------------------------------------------
	 SCS Same-Spin Scale       =       0.3333333333333333 [-]
	 SCS Opposite-Spin Scale   =       1.2000000000000000 [-]
	 SCS Same-Spin Energy      =      -0.0227974123226014 [Eh]
	 SCS Opposite-Spin Energy  =      -0.2590332106116986 [Eh]
	 SCS Correlation Energy    =      -0.2818306229343001 [Eh]
	 SCS Total Energy          =     -76.3414773122193964 [Eh]
	-----------------------------------------------------------

*** Psi4 exiting successfully. Buy a developer a beer!
