                               Psi4 1.8.2 release

  ==> Input File <==

--------------------------------------------------------------------------
MEMORY 60 GB

molecule dimer {
-1 1
Cl         0.000000     0.000000     0.000000
O          2.580413    -0.085154    -1.557658
H          1.740288    -0.171482    -1.041132
H          2.991017    -0.923894    -1.427814
O         -2.460905    -2.327479    -0.521416
H         -1.544293    -2.447915    -0.236860
H         -2.917761    -3.166475    -0.428069
O          0.510044     1.531334     2.976305
H          0.808066     1.990027     2.164238
H          0.061676     0.714654     2.566184
O         -3.154292     0.989802    -0.487484
H         -3.631637     0.174371    -0.654459
H         -2.267810     0.655784    -0.465304
O         -0.248988    -1.979578    -2.367955
H          0.454594    -1.824462    -2.932228
H         -0.066118    -1.448601    -1.593092

units ang
no_reorient
no_com
symmetry c1
}

set {
basis        aug-cc-pVTZ
scf_type     df
}

energy("mp2")
--------------------------------------------------------------------------

    Molecular point group: c1

    Geometry (in Angstrom), charge = -1, multiplicity = 1:

       Center              X                  Y                   Z               Mass
    ------------   -----------------  -----------------  -----------------  -----------------
         CL           0.000000000000     0.000000000000     0.000000000000    34.968852682000
         O            2.580413000000    -0.085154000000    -1.557658000000    15.994914619570
         H            1.740288000000    -0.171482000000    -1.041132000000     1.007825032230
         H            2.991017000000    -0.923894000000    -1.427814000000     1.007825032230
         O           -2.460905000000    -2.327479000000    -0.521416000000    15.994914619570
         H           -1.544293000000    -2.447915000000    -0.236860000000     1.007825032230
         H           -2.917761000000    -3.166475000000    -0.428069000000     1.007825032230
         O            0.510044000000     1.531334000000     2.976305000000    15.994914619570
         H            0.808066000000     1.990027000000     2.164238000000     1.007825032230
         H            0.061676000000     0.714654000000     2.566184000000     1.007825032230
         O           -3.154292000000     0.989802000000    -0.487484000000    15.994914619570
         H           -3.631637000000     0.174371000000    -0.654459000000     1.007825032230
         H           -2.267810000000     0.655784000000    -0.465304000000     1.007825032230
         O           -0.248988000000    -1.979578000000    -2.367955000000    15.994914619570
         H            0.454594000000    -1.824462000000    -2.932228000000     1.007825032230
         H           -0.066118000000    -1.448601000000    -1.593092000000     1.007825032230

  Charge       = -1
  Multiplicity = 1
  Basis Set: AUG-CC-PVTZ
    Blend: AUG-CC-PVTZ
  Basis Set: (AUG-CC-PVTZ AUX)
    Blend: AUG-CC-PVTZ-JKFIT

    Orbital Energies [Eh]
    ---------------------

    Doubly Occupied:

       1A   -104.588379     2A    -20.438816     3A    -20.426182
       4A    -20.408715     5A    -20.403526     6A    -20.402076
       7A    -10.314244     8A     -7.780386     9A     -7.780267
      10A     -7.780243    11A     -1.222213    12A     -1.210887
      13A     -1.197187    14A     -1.195075    15A     -1.189248
      16A     -0.836974    17A     -0.599999    18A     -0.574897
      19A     -0.559008    20A     -0.547673    21A     -0.541811
      22A     -0.456295    23A     -0.446857    24A     -0.442285
      25A     -0.435641    26A     -0.431791    27A     -0.380114
      28A     -0.362724    29A     -0.358819    30A     -0.356155
      31A     -0.349796    32A     -0.247338    33A     -0.244382
      34A     -0.242256

  @DF-RHF Final Energy:  -839.92176583943490

   => Energetics <=

    Nuclear Repulsion Energy =            306.5576551540504511
    One-Electron Energy =               -1783.4543174973332498
    Two-Electron Energy =                 636.9748965038478445
    Total Energy =                       -839.9217658394348973
 Dipole X            :         50.9075229          -50.1945312            0.7129918
 Dipole Y            :         38.9492163          -40.4714953           -1.5222790
 Dipole Z            :         37.4510978          -37.2544388            0.1966590
 Magnitude           :                                                    1.6924436
  Basis Set: (AUG-CC-PVTZ AUX)
    Blend: AUG-CC-PVTZ-RI
	 Reference Energy          =    -839.9217658394348973 [Eh]
	 Singles Energy            =      -0.0000000000000000 [Eh]
	 Same-Spin Energy          =      -0.4174078687440510 [Eh]
	 Opposite-Spin Energy      =      -1.2734111560323029 [Eh]
	 Correlation Energy        =      -1.6908190247763539 [Eh]
	 Total Energy              =    -841.6125848642112715 [Eh]

	 ================> DF-SCS-MP2 Energies <==================
	-----------------------------------------------------------
	 SCS Same-Spin Scale       =       0.3333333333333333 [-]
	 SCS Opposite-Spin Scale   =       1.2000000000000000 [-]
	 SCS Same-Spin Energy      =      -0.1391359562480170 [Eh]
	 SCS Opposite-Spin Energy  =      -1.5280933872387634 [Eh]
	 SCS Correlation Energy    =      -1.6672293434867804 [Eh]
	 SCS Total Energy          =    -841.5889951829216216 [Eh]
	-----------------------------------------------------------

*** Psi4 exiting successfully. Buy a developer a beer!
