                               Psi4 1.8.2 release

  ==> Input File <==

--------------------------------------------------------------------------
MEMORY 60 GB

molecule dimer {
0 1
Gh(Cl)     0.000000     0.000000     0.000000
Gh(O)      2.229770     1.789189     1.621983
Gh(H)      1.631070     1.514205     0.937078
Gh(H)      3.095321     1.957227     1.201820
O         -0.849762    -1.714934    -2.358862
H         -0.445959    -1.021397    -2.934249
H         -1.069056    -1.384646    -1.506905
Gh(O)     -0.610764     3.422499    -0.224439
Gh(H)     -0.451227     2.515491    -0.613530
Gh(H)      0.104167     4.032667    -0.497019
Gh(O)     -3.173880     0.131157     1.037539
Gh(H)     -2.298199     0.065462     0.589628
Gh(H)     -2.996396     0.503443     1.848118

units ang
no_reorient
no_com
symmetry c1
}

set {
basis        aug-cc-pVTZ
scf_type     df
}

energy("mp2")
--------------------------------------------------------------------------

    Molecular point group: c1

    Geometry (in Angstrom), charge = 0, multiplicity = 1:

       Center              X                  Y                   Z               Mass
    ------------   -----------------  -----------------  -----------------  -----------------
      Gh(CL)          0.000000000000     0.000000000000     0.000000000000    34.968852682000
      Gh(O)           2.229770000000     1.789189000000     1.621983000000    15.994914619570
      Gh(H)           1.631070000000     1.514205000000     0.937078000000     1.007825032230
      Gh(H)           3.095321000000     1.957227000000     1.201820000000     1.007825032230
         O           -0.849762000000    -1.714934000000    -2.358862000000    15.994914619570
         H           -0.445959000000    -1.021397000000    -2.934249000000     1.007825032230
         H           -1.069056000000    -1.384646000000    -1.506905000000     1.007825032230
      Gh(O)          -0.610764000000     3.422499000000    -0.224439000000    15.994914619570
      Gh(H)          -0.451227000000     2.515491000000    -0.613530000000     1.007825032230
      Gh(H)           0.104167000000     4.032667000000    -0.497019000000     1.007825032230
      Gh(O)          -3.173880000000     0.131157000000     1.037539000000    15.994914619570
      Gh(H)          -2.298199000000     0.065462000000     0.589628000000     1.007825032230
      Gh(H)          -2.996396000000     0.503443000000     1.848118000000     1.007825032230

  Charge       = 0
  Multiplicity = 1
  Basis Set: AUG-CC-PVTZ
    Blend: AUG-CC-PVTZ
  Basis Set: (AUG-CC-PVTZ AUX)
    Blend: AUG-CC-PVTZ-JKFIT

    Orbital Energies [Eh]
    ---------------------

    Doubly Occupied:

       1A    -20.564579     2A     -1.345609     3A     -0.728320
       4A     -0.568837     5A     -0.507519

  @DF-RHF Final Energy:   -76.05797652065796

   => Energetics <=

    Nuclear Repulsion Energy =              9.1231184876929809
    One-Electron Energy =                -122.9324584249708465
    Two-Electron Energy =                  37.7513634166199097
    Total Energy =                        -76.0579765206579594
 Dipole X            :         15.8322796          -15.7095030            0.1227766
 Dipole Y            :         31.1665270          -30.4728070            0.6937201
 Dipole Z            :         44.2471878          -44.0533899            0.1937979
 Magnitude           :                                                    0.7306704
  Basis Set: (AUG-CC-PVTZ AUX)
    Blend: AUG-CC-PVTZ-RI
	 Reference Energy          =     -76.0579765206579594 [Eh]
	 Singles Energy            =      -0.0000000000000000 [Eh]
	 Same-Spin Energy          =      -0.0683991000552040 [Eh]
	 Opposite-Spin Energy      =      -0.2156852912351855 [Eh]
	 Correlation Energy        =      -0.2840843912903895 [Eh]
	 Total Energy              =     -76.3420609119483515 [Eh]

	 ================> DF-SCS-MP2 Energies <==================
	-----------------------------------------------------------
	 SCS Same-Spin Scale       =       0.3333333333333333 [-]
	 SCS Opposite-Spin Scale   =       1.2000000000000000 [-]
	 SCS Same-Spin Energy      =      -0.0227997000184013 [Eh]
	 SCS Opposite-Spin Energy  =      -0.2588223494822226 [Eh]
	 SCS Correlation Energy    =      -0.2816220495006239 [Eh]
	 SCS Total Energy          =     -76.3395985701585857 [Eh]
	-----------------------------------------------------------

*** Psi4 exiting successfully. Buy a developer a beer!
