                               Psi4 1.8.2 release

  ==> Input File <==

--------------------------------------------------------------------------
MEMORY 60 GB

molecule dimer {
0 1
Gh(Cl)     0.000000     0.000000     0.000000
Gh(O)     -0.530148    -2.541396     2.339857
Gh(H)      0.120897    -3.202570     2.327133
Gh(H)     -0.132628    -1.880997     1.716211
Gh(O)     -3.000928    -1.352034     0.154153
Gh(H)     -2.071433    -1.106112     0.036891
Gh(H)     -3.306104    -0.958508     1.007444
Gh(O)      1.266958    -0.619388    -2.939972
Gh(H)      1.004602    -0.223763    -2.097255
Gh(H)      2.223231    -0.656263    -2.974201
Gh(O)      1.279146    -2.624031    -0.164319
Gh(H)      0.765925    -1.837237    -0.085508
Gh(H)      0.822661    -3.176240    -0.835511
O          2.570326     0.754051     2.126946
H          2.553981     1.080305     3.025190
H          1.674012     0.429569     1.888366

units ang
no_reorient
no_com
symmetry c1
}

set {
basis        aug-cc-pVTZ
scf_type     df
}

energy("mp2")
--------------------------------------------------------------------------

    Molecular point group: c1

    Geometry (in Angstrom), charge = 0, multiplicity = 1:

       Center              X                  Y                   Z               Mass
    ------------   -----------------  -----------------  -----------------  -----------------
      Gh(CL)          0.000000000000     0.000000000000     0.000000000000    34.968852682000
      Gh(O)          -0.530148000000    -2.541396000000     2.339857000000    15.994914619570
      Gh(H)           0.120897000000    -3.202570000000     2.327133000000     1.007825032230
      Gh(H)          -0.132628000000    -1.880997000000     1.716211000000     1.007825032230
      Gh(O)          -3.000928000000    -1.352034000000     0.154153000000    15.994914619570
      Gh(H)          -2.071433000000    -1.106112000000     0.036891000000     1.007825032230
      Gh(H)          -3.306104000000    -0.958508000000     1.007444000000     1.007825032230
      Gh(O)           1.266958000000    -0.619388000000    -2.939972000000    15.994914619570
      Gh(H)           1.004602000000    -0.223763000000    -2.097255000000     1.007825032230
      Gh(H)           2.223231000000    -0.656263000000    -2.974201000000     1.007825032230
      Gh(O)           1.279146000000    -2.624031000000    -0.164319000000    15.994914619570
      Gh(H)           0.765925000000    -1.837237000000    -0.085508000000     1.007825032230
      Gh(H)           0.822661000000    -3.176240000000    -0.835511000000     1.007825032230
         O            2.570326000000     0.754051000000     2.126946000000    15.994914619570
         H            2.553981000000     1.080305000000     3.025190000000     1.007825032230
         H            1.674012000000     0.429569000000     1.888366000000     1.007825032230

  Charge       = 0
  Multiplicity = 1
  Basis Set: AUG-CC-PVTZ
    Blend: AUG-CC-PVTZ
  Basis Set: (AUG-CC-PVTZ AUX)
    Blend: AUG-CC-PVTZ-JKFIT

    Orbital Energies [Eh]
    ---------------------

    Doubly Occupied:

       1A    -20.567168     2A     -1.344552     3A     -0.719559
       4A     -0.573911     5A     -0.508021

  @DF-RHF Final Energy:   -76.05893059473730

   => Energetics <=

    Nuclear Repulsion Energy =              9.0727286811979369
    One-Electron Energy =                -122.8368917558494786
    Two-Electron Energy =                  37.7052324799142511
    Total Energy =                        -76.0589305947372907
 Dipole X            :        -47.4569275           46.8474464           -0.6094811
 Dipole Y            :        -14.2499401           14.2528473            0.0029073
 Dipole Z            :        -40.9953410           41.4400385            0.4446975
 Magnitude           :                                                    0.7544744
  Basis Set: (AUG-CC-PVTZ AUX)
    Blend: AUG-CC-PVTZ-RI
	 Reference Energy          =     -76.0589305947373049 [Eh]
	 Singles Energy            =      -0.0000000000000000 [Eh]
	 Same-Spin Energy          =      -0.0685165872950640 [Eh]
	 Opposite-Spin Energy      =      -0.2159574313067430 [Eh]
	 Correlation Energy        =      -0.2844740186018069 [Eh]
	 Total Energy              =     -76.3434046133391178 [Eh]

	 ================> DF-SCS-MP2 Energies <==================
	-----------------------------------------------------------
	 SCS Same-Spin Scale       =       0.3333333333333333 [-]
	 SCS Opposite-Spin Scale   =       1.2000000000000000 [-]
	 SCS Same-Spin Energy      =      -0.0228388624316880 [Eh]
	 SCS Opposite-Spin Energy  =      -0.2591489175680916 [Eh]
	 SCS Correlation Energy    =      -0.2819877799997795 [Eh]
	 SCS Total Energy          =     -76.3409183747370861 [Eh]
	-----------------------------------------------------------

*** Psi4 exiting successfully. Buy a developer a beer!
