                               Psi4 1.8.2 release

  ==> Input File <==

--------------------------------------------------------------------------
MEMORY 60 GB

molecule dimer {
0 1
Gh(Cl)     0.000000     0.000000     0.000000
Gh(O)      0.601726    -2.589847     1.985255
Gh(H)      0.625102    -1.734398     1.410853
Gh(H)      0.202443    -2.311978     2.805266
Gh(O)      1.654373     2.108704     2.134861
Gh(H)      1.639621     3.020507     1.745273
Gh(H)      1.118820     1.502198     1.596433
Gh(O)     -1.660561     0.569143     2.400854
Gh(H)     -1.309075     0.235507     1.599810
Gh(H)     -1.163770     0.257029     3.177412
O         -1.490632    -2.685195    -0.853034
H         -1.987793    -3.157702    -0.165193
H         -0.816107    -2.123214    -0.480627
Gh(O)      3.208264     0.379661    -0.437533
Gh(H)      3.780426     0.542681     0.324217
Gh(H)      2.259776     0.321939    -0.255342

units ang
no_reorient
no_com
symmetry c1
}

set {
basis        aug-cc-pVTZ
scf_type     df
}

energy("mp2")
--------------------------------------------------------------------------

    Molecular point group: c1

    Geometry (in Angstrom), charge = 0, multiplicity = 1:

       Center              X                  Y                   Z               Mass
    ------------   -----------------  -----------------  -----------------  -----------------
      Gh(CL)          0.000000000000     0.000000000000     0.000000000000    34.968852682000
      Gh(O)           0.601726000000    -2.589847000000     1.985255000000    15.994914619570
      Gh(H)           0.625102000000    -1.734398000000     1.410853000000     1.007825032230
      Gh(H)           0.202443000000    -2.311978000000     2.805266000000     1.007825032230
      Gh(O)           1.654373000000     2.108704000000     2.134861000000    15.994914619570
      Gh(H)           1.639621000000     3.020507000000     1.745273000000     1.007825032230
      Gh(H)           1.118820000000     1.502198000000     1.596433000000     1.007825032230
      Gh(O)          -1.660561000000     0.569143000000     2.400854000000    15.994914619570
      Gh(H)          -1.309075000000     0.235507000000     1.599810000000     1.007825032230
      Gh(H)          -1.163770000000     0.257029000000     3.177412000000     1.007825032230
         O           -1.490632000000    -2.685195000000    -0.853034000000    15.994914619570
         H           -1.987793000000    -3.157702000000    -0.165193000000     1.007825032230
         H           -0.816107000000    -2.123214000000    -0.480627000000     1.007825032230
      Gh(O)           3.208264000000     0.379661000000    -0.437533000000    15.994914619570
      Gh(H)           3.780426000000     0.542681000000     0.324217000000     1.007825032230
      Gh(H)           2.259776000000     0.321939000000    -0.255342000000     1.007825032230

  Charge       = 0
  Multiplicity = 1
  Basis Set: AUG-CC-PVTZ
    Blend: AUG-CC-PVTZ
  Basis Set: (AUG-CC-PVTZ AUX)
    Blend: AUG-CC-PVTZ-JKFIT

    Orbital Energies [Eh]
    ---------------------

    Doubly Occupied:

       1A    -20.564608     2A     -1.345831     3A     -0.728285
       4A     -0.569685     5A     -0.507663

  @DF-RHF Final Energy:   -76.05915580613167

   => Energetics <=

    Nuclear Repulsion Energy =              9.1291326685077827
    One-Electron Energy =                -122.9444297257802958
    Two-Electron Energy =                  37.7561412511408534
    Total Energy =                        -76.0591558061316562
 Dipole X            :         27.9562732          -27.8336930            0.1225803
 Dipole Y            :         50.6360968          -50.5737501            0.0623467
 Dipole Z            :         14.8354870          -14.1164280            0.7190590
 Magnitude           :                                                    0.7320921
  Basis Set: (AUG-CC-PVTZ AUX)
    Blend: AUG-CC-PVTZ-RI
	 Reference Energy          =     -76.0591558061316704 [Eh]
	 Singles Energy            =      -0.0000000000000000 [Eh]
	 Same-Spin Energy          =      -0.0684023298387738 [Eh]
	 Opposite-Spin Energy      =      -0.2157762742998046 [Eh]
	 Correlation Energy        =      -0.2841786041385784 [Eh]
	 Total Energy              =     -76.3433344102702449 [Eh]

	 ================> DF-SCS-MP2 Energies <==================
	-----------------------------------------------------------
	 SCS Same-Spin Scale       =       0.3333333333333333 [-]
	 SCS Opposite-Spin Scale   =       1.2000000000000000 [-]
	 SCS Same-Spin Energy      =      -0.0228007766129246 [Eh]
	 SCS Opposite-Spin Energy  =      -0.2589315291597656 [Eh]
	 SCS Correlation Energy    =      -0.2817323057726902 [Eh]
	 SCS Total Energy          =     -76.3408881119043627 [Eh]
	-----------------------------------------------------------

*** Psi4 exiting successfully. Buy a developer a beer!
