                               Psi4 1.8.2 release

  ==> Input File <==

--------------------------------------------------------------------------
MEMORY 60 GB

molecule dimer {
0 1
Gh(Cl)     0.000000     0.000000     0.000000
Gh(O)     -1.229184    -2.993822     0.453137
Gh(H)     -0.418614    -3.395812     0.092820
Gh(H)     -1.013280    -2.074811     0.585463
Gh(O)     -1.235222    -1.766810    -2.572586
Gh(H)     -2.178163    -1.662201    -2.417220
Gh(H)     -0.769873    -1.718371    -1.664414
O         -1.384432    -0.260144     2.883153
H         -0.766609    -0.589156     3.510778
H         -0.859119    -0.152996     2.083720
Gh(O)      1.607896     0.813395    -2.710175
Gh(H)      2.315273     1.449805    -2.414289
Gh(H)      1.015105     0.595265    -1.995542
Gh(O)      1.117807     2.673918     1.419992
Gh(H)      1.158491     1.823418     1.031762
Gh(H)      0.169419     2.693657     1.399060
Gh(O)     -2.874762     0.414810    -1.653760
Gh(H)     -2.035974     0.467676    -1.186949
Gh(H)     -3.362591    -0.291211    -1.125177

units ang
no_reorient
no_com
symmetry c1
}

set {
basis        aug-cc-pVTZ
scf_type     df
}

energy("mp2")
--------------------------------------------------------------------------

    Molecular point group: c1

    Geometry (in Angstrom), charge = 0, multiplicity = 1:

       Center              X                  Y                   Z               Mass
    ------------   -----------------  -----------------  -----------------  -----------------
      Gh(CL)          0.000000000000     0.000000000000     0.000000000000    34.968852682000
      Gh(O)          -1.229184000000    -2.993822000000     0.453137000000    15.994914619570
      Gh(H)          -0.418614000000    -3.395812000000     0.092820000000     1.007825032230
      Gh(H)          -1.013280000000    -2.074811000000     0.585463000000     1.007825032230
      Gh(O)          -1.235222000000    -1.766810000000    -2.572586000000    15.994914619570
      Gh(H)          -2.178163000000    -1.662201000000    -2.417220000000     1.007825032230
      Gh(H)          -0.769873000000    -1.718371000000    -1.664414000000     1.007825032230
         O           -1.384432000000    -0.260144000000     2.883153000000    15.994914619570
         H           -0.766609000000    -0.589156000000     3.510778000000     1.007825032230
         H           -0.859119000000    -0.152996000000     2.083720000000     1.007825032230
      Gh(O)           1.607896000000     0.813395000000    -2.710175000000    15.994914619570
      Gh(H)           2.315273000000     1.449805000000    -2.414289000000     1.007825032230
      Gh(H)           1.015105000000     0.595265000000    -1.995542000000     1.007825032230
      Gh(O)           1.117807000000     2.673918000000     1.419992000000    15.994914619570
      Gh(H)           1.158491000000     1.823418000000     1.031762000000     1.007825032230
      Gh(H)           0.169419000000     2.693657000000     1.399060000000     1.007825032230
      Gh(O)          -2.874762000000     0.414810000000    -1.653760000000    15.994914619570
      Gh(H)          -2.035974000000     0.467676000000    -1.186949000000     1.007825032230
      Gh(H)          -3.362591000000    -0.291211000000    -1.125177000000     1.007825032230

  Charge       = 0
  Multiplicity = 1
  Basis Set: AUG-CC-PVTZ
    Blend: AUG-CC-PVTZ
  Basis Set: (AUG-CC-PVTZ AUX)
    Blend: AUG-CC-PVTZ-JKFIT

    Orbital Energies [Eh]
    ---------------------

    Doubly Occupied:

       1A    -20.566439     2A     -1.357422     3A     -0.719217
       4A     -0.587809     5A     -0.511112

  @DF-RHF Final Energy:   -76.06063926582955

   => Energetics <=

    Nuclear Repulsion Energy =              9.2549667295839892
    One-Electron Energy =                -123.1472131066404359
    Two-Electron Energy =                  37.8316071112269157
    Total Energy =                        -76.0606392658295363
 Dipole X            :         24.7634589          -24.0017592            0.7616996
 Dipole Y            :          5.1867167           -5.3352713           -0.1485546
 Dipole Z            :        -54.2697981           54.1590254           -0.1107727
 Magnitude           :                                                    0.7839167
  Basis Set: (AUG-CC-PVTZ AUX)
    Blend: AUG-CC-PVTZ-RI
	 Reference Energy          =     -76.0606392658295505 [Eh]
	 Singles Energy            =      -0.0000000000000000 [Eh]
	 Same-Spin Energy          =      -0.0683151562270548 [Eh]
	 Opposite-Spin Energy      =      -0.2156975533096113 [Eh]
	 Correlation Energy        =      -0.2840127095366661 [Eh]
	 Total Energy              =     -76.3446519753662187 [Eh]

	 ================> DF-SCS-MP2 Energies <==================
	-----------------------------------------------------------
	 SCS Same-Spin Scale       =       0.3333333333333333 [-]
	 SCS Opposite-Spin Scale   =       1.2000000000000000 [-]
	 SCS Same-Spin Energy      =      -0.0227717187423516 [Eh]
	 SCS Opposite-Spin Energy  =      -0.2588370639715336 [Eh]
	 SCS Correlation Energy    =      -0.2816087827138851 [Eh]
	 SCS Total Energy          =     -76.3422480485434392 [Eh]
	-----------------------------------------------------------

*** Psi4 exiting successfully. Buy a developer a beer!
