                               Psi4 1.8.2 release

  ==> Input File <==

--------------------------------------------------------------------------
MEMORY 60 GB

molecule dimer {
0 1
Gh(Cl)     0.000000     0.000000     0.000000
Gh(O)     -1.632332     2.490935     1.090048
Gh(H)     -2.053129     2.113159     1.904687
Gh(H)     -1.215364     1.757596     0.622949
Gh(O)      0.950607     2.374464    -2.175994
Gh(H)      0.927656     1.703640    -1.451191
Gh(H)      1.486632     2.014327    -2.868406
Gh(O)      1.822289     1.832252     1.982226
Gh(H)      1.341000     2.127700     2.740689
Gh(H)      1.159400     1.352759     1.469391
Gh(O)      1.460341    -2.851653    -1.369342
Gh(H)      0.883151    -3.546723    -1.094304
Gh(H)      1.133759    -1.999688    -1.056883
O         -0.794840    -0.536729    -3.305985
H         -1.209369    -0.160838    -4.088131
H         -0.723789     0.210704    -2.606868

units ang
no_reorient
no_com
symmetry c1
}

set {
basis        aug-cc-pVTZ
scf_type     df
}

energy("mp2")
--------------------------------------------------------------------------

    Molecular point group: c1

    Geometry (in Angstrom), charge = 0, multiplicity = 1:

       Center              X                  Y                   Z               Mass
    ------------   -----------------  -----------------  -----------------  -----------------
      Gh(CL)          0.000000000000     0.000000000000     0.000000000000    34.968852682000
      Gh(O)          -1.632332000000     2.490935000000     1.090048000000    15.994914619570
      Gh(H)          -2.053129000000     2.113159000000     1.904687000000     1.007825032230
      Gh(H)          -1.215364000000     1.757596000000     0.622949000000     1.007825032230
      Gh(O)           0.950607000000     2.374464000000    -2.175994000000    15.994914619570
      Gh(H)           0.927656000000     1.703640000000    -1.451191000000     1.007825032230
      Gh(H)           1.486632000000     2.014327000000    -2.868406000000     1.007825032230
      Gh(O)           1.822289000000     1.832252000000     1.982226000000    15.994914619570
      Gh(H)           1.341000000000     2.127700000000     2.740689000000     1.007825032230
      Gh(H)           1.159400000000     1.352759000000     1.469391000000     1.007825032230
      Gh(O)           1.460341000000    -2.851653000000    -1.369342000000    15.994914619570
      Gh(H)           0.883151000000    -3.546723000000    -1.094304000000     1.007825032230
      Gh(H)           1.133759000000    -1.999688000000    -1.056883000000     1.007825032230
         O           -0.794840000000    -0.536729000000    -3.305985000000    15.994914619570
         H           -1.209369000000    -0.160838000000    -4.088131000000     1.007825032230
         H           -0.723789000000     0.210704000000    -2.606868000000     1.007825032230

  Charge       = 0
  Multiplicity = 1
  Basis Set: AUG-CC-PVTZ
    Blend: AUG-CC-PVTZ
  Basis Set: (AUG-CC-PVTZ AUX)
    Blend: AUG-CC-PVTZ-JKFIT

    Orbital Energies [Eh]
    ---------------------

    Doubly Occupied:

       1A    -20.571823     2A     -1.334475     3A     -0.703721
       4A     -0.571976     5A     -0.506627

  @DF-RHF Final Energy:   -76.05400190800296

   => Energetics <=

    Nuclear Repulsion Energy =              8.8587480206661979
    One-Electron Energy =                -122.4482519274374255
    Two-Electron Energy =                  37.5355019987682823
    Total Energy =                        -76.0540019080029452
 Dipole X            :         15.4406491          -15.6693785           -0.2287294
 Dipole Y            :          8.7551407           -8.0199334            0.7352073
 Dipole Z            :         62.5674104          -62.6309643           -0.0635540
 Magnitude           :                                                    0.7725840
  Basis Set: (AUG-CC-PVTZ AUX)
    Blend: AUG-CC-PVTZ-RI
	 Reference Energy          =     -76.0540019080029595 [Eh]
	 Singles Energy            =      -0.0000000000000000 [Eh]
	 Same-Spin Energy          =      -0.0689515380435609 [Eh]
	 Opposite-Spin Energy      =      -0.2173798502749321 [Eh]
	 Correlation Energy        =      -0.2863313883184930 [Eh]
	 Total Energy              =     -76.3403332963214467 [Eh]

	 ================> DF-SCS-MP2 Energies <==================
	-----------------------------------------------------------
	 SCS Same-Spin Scale       =       0.3333333333333333 [-]
	 SCS Opposite-Spin Scale   =       1.2000000000000000 [-]
	 SCS Same-Spin Energy      =      -0.0229838460145203 [Eh]
	 SCS Opposite-Spin Energy  =      -0.2608558203299186 [Eh]
	 SCS Correlation Energy    =      -0.2838396663444389 [Eh]
	 SCS Total Energy          =     -76.3378415743473937 [Eh]
	-----------------------------------------------------------

*** Psi4 exiting successfully. Buy a developer a beer!
