                               Psi4 1.8.2 release

  ==> Input File <==

--------------------------------------------------------------------------
MEMORY 60 GB

molecule dimer {
-1 1
Cl         0.000000     0.000000     0.000000
O         -0.939928     3.138189    -0.000936
H         -0.820702     2.238321     0.375766
H         -0.712248     3.077225    -0.943590
O          1.774428     1.345338    -2.573145
H          1.119620     1.302239    -1.824535
H          1.660456     2.173050    -2.996113
O         -2.265274    -2.324267     0.705293
H         -2.834139    -2.738348     0.091603
H         -1.824269    -1.638760     0.205252
O          0.930253    -0.455464     2.995589
H          0.429133     0.276974     3.481595
H          0.852726    -0.389826     2.071742

units ang
no_reorient
no_com
symmetry c1
}

set {
basis        aug-cc-pVTZ
scf_type     df
}

energy("mp2")
--------------------------------------------------------------------------

    Molecular point group: c1

    Geometry (in Angstrom), charge = -1, multiplicity = 1:

       Center              X                  Y                   Z               Mass
    ------------   -----------------  -----------------  -----------------  -----------------
         CL           0.000000000000     0.000000000000     0.000000000000    34.968852682000
         O           -0.939928000000     3.138189000000    -0.000936000000    15.994914619570
         H           -0.820702000000     2.238321000000     0.375766000000     1.007825032230
         H           -0.712248000000     3.077225000000    -0.943590000000     1.007825032230
         O            1.774428000000     1.345338000000    -2.573145000000    15.994914619570
         H            1.119620000000     1.302239000000    -1.824535000000     1.007825032230
         H            1.660456000000     2.173050000000    -2.996113000000     1.007825032230
         O           -2.265274000000    -2.324267000000     0.705293000000    15.994914619570
         H           -2.834139000000    -2.738348000000     0.091603000000     1.007825032230
         H           -1.824269000000    -1.638760000000     0.205252000000     1.007825032230
         O            0.930253000000    -0.455464000000     2.995589000000    15.994914619570
         H            0.429133000000     0.276974000000     3.481595000000     1.007825032230
         H            0.852726000000    -0.389826000000     2.071742000000     1.007825032230

  Charge       = -1
  Multiplicity = 1
  Basis Set: AUG-CC-PVTZ
    Blend: AUG-CC-PVTZ
  Basis Set: (AUG-CC-PVTZ AUX)
    Blend: AUG-CC-PVTZ-JKFIT

    Orbital Energies [Eh]
    ---------------------

    Doubly Occupied:

       1A   -104.573147     2A    -20.428817     3A    -20.420968
       4A    -20.416444     5A    -20.400557     6A    -10.298084
       7A     -7.764189     8A     -7.764173     9A     -7.764145
      10A     -1.213407    11A     -1.211840    12A     -1.196656
      13A     -1.180400    14A     -0.814015    15A     -0.581677
      16A     -0.578015    17A     -0.566791    18A     -0.564489
      19A     -0.444765    20A     -0.442241    21A     -0.436188
      22A     -0.409808    23A     -0.372798    24A     -0.365359
      25A     -0.363843    26A     -0.346012    27A     -0.228322
      28A     -0.226771    29A     -0.224779

  @DF-RHF Final Energy:  -763.85623468091717

   => Energetics <=

    Nuclear Repulsion Energy =            212.1648747217355719
    One-Electron Energy =               -1488.8448146335872480
    Two-Electron Energy =                 512.8237052309345927
    Total Energy =                       -763.8562346809171686
 Dipole X            :         10.9514107          -11.5908072           -0.6393965
 Dipole Y            :        -33.6069539           33.8851384            0.2781844
 Dipole Z            :        -19.1942721           17.9072866           -1.2869855
 Magnitude           :                                                    1.4637438
  Basis Set: (AUG-CC-PVTZ AUX)
    Blend: AUG-CC-PVTZ-RI
	 Reference Energy          =    -763.8562346809171686 [Eh]
	 Singles Energy            =      -0.0000000000000000 [Eh]
	 Same-Spin Energy          =      -0.3443071113479655 [Eh]
	 Opposite-Spin Energy      =      -1.0517256095019469 [Eh]
	 Correlation Energy        =      -1.3960327208499124 [Eh]
	 Total Energy              =    -765.2522674017670852 [Eh]

	 ================> DF-SCS-MP2 Energies <==================
	-----------------------------------------------------------
	 SCS Same-Spin Scale       =       0.3333333333333333 [-]
	 SCS Opposite-Spin Scale   =       1.2000000000000000 [-]
	 SCS Same-Spin Energy      =      -0.1147690371159885 [Eh]
	 SCS Opposite-Spin Energy  =      -1.2620707314023363 [Eh]
	 SCS Correlation Energy    =      -1.3768397685183247 [Eh]
	 SCS Total Energy          =    -765.2330744494355486 [Eh]
	-----------------------------------------------------------

*** Psi4 exiting successfully. Buy a developer a beer!
