                               Psi4 1.8.2 release

  ==> Input File <==

--------------------------------------------------------------------------
MEMORY 60 GB

molecule dimer {
0 1
Gh(Cl)     0.000000     0.000000     0.000000
O          1.407818     2.519133    -1.259393
H          1.027117     2.592937    -2.117333
H          0.994561     1.714342    -0.954582
Gh(O)      3.058161    -0.076353     0.562502
Gh(H)      2.147380     0.078030     0.450617
Gh(H)      3.076044    -0.918720     1.134947
Gh(O)      1.402074    -2.853236    -0.379833
Gh(H)      2.341986    -2.667971    -0.026692
Gh(H)      0.924122    -2.036659    -0.373298
Gh(O)      1.041342     1.379260     2.538507
Gh(H)      0.658961     0.767611     1.918648
Gh(H)      0.313750     1.643816     3.141624
Gh(O)     -1.649480     2.733617     0.773527
Gh(H)     -0.887604     2.167739     0.492910
Gh(H)     -1.074723     3.432313     1.189528
Gh(O)     -1.197686    -2.589481     1.589581
Gh(H)     -1.610851    -2.489368     2.457896
Gh(H)     -0.710748    -1.803117     1.436687

units ang
no_reorient
no_com
symmetry c1
}

set {
basis        aug-cc-pVTZ
scf_type     df
}

energy("mp2")
--------------------------------------------------------------------------

    Molecular point group: c1

    Geometry (in Angstrom), charge = 0, multiplicity = 1:

       Center              X                  Y                   Z               Mass
    ------------   -----------------  -----------------  -----------------  -----------------
      Gh(CL)          0.000000000000     0.000000000000     0.000000000000    34.968852682000
         O            1.407818000000     2.519133000000    -1.259393000000    15.994914619570
         H            1.027117000000     2.592937000000    -2.117333000000     1.007825032230
         H            0.994561000000     1.714342000000    -0.954582000000     1.007825032230
      Gh(O)           3.058161000000    -0.076353000000     0.562502000000    15.994914619570
      Gh(H)           2.147380000000     0.078030000000     0.450617000000     1.007825032230
      Gh(H)           3.076044000000    -0.918720000000     1.134947000000     1.007825032230
      Gh(O)           1.402074000000    -2.853236000000    -0.379833000000    15.994914619570
      Gh(H)           2.341986000000    -2.667971000000    -0.026692000000     1.007825032230
      Gh(H)           0.924122000000    -2.036659000000    -0.373298000000     1.007825032230
      Gh(O)           1.041342000000     1.379260000000     2.538507000000    15.994914619570
      Gh(H)           0.658961000000     0.767611000000     1.918648000000     1.007825032230
      Gh(H)           0.313750000000     1.643816000000     3.141624000000     1.007825032230
      Gh(O)          -1.649480000000     2.733617000000     0.773527000000    15.994914619570
      Gh(H)          -0.887604000000     2.167739000000     0.492910000000     1.007825032230
      Gh(H)          -1.074723000000     3.432313000000     1.189528000000     1.007825032230
      Gh(O)          -1.197686000000    -2.589481000000     1.589581000000    15.994914619570
      Gh(H)          -1.610851000000    -2.489368000000     2.457896000000     1.007825032230
      Gh(H)          -0.710748000000    -1.803117000000     1.436687000000     1.007825032230

  Charge       = 0
  Multiplicity = 1
  Basis Set: AUG-CC-PVTZ
    Blend: AUG-CC-PVTZ
  Basis Set: (AUG-CC-PVTZ AUX)
    Blend: AUG-CC-PVTZ-JKFIT

    Orbital Energies [Eh]
    ---------------------

    Doubly Occupied:

       1A    -20.567154     2A     -1.361419     3A     -0.714659
       4A     -0.594603     5A     -0.512252

  @DF-RHF Final Energy:   -76.06024776629648

   => Energetics <=

    Nuclear Repulsion Energy =              9.2938939223586452
    One-Electron Energy =                -123.2081102897888769
    Two-Electron Energy =                  37.8539686011337437
    Total Energy =                        -76.0602477662964844
 Dipole X            :        -25.6286123           25.1035414           -0.5250709
 Dipole Y            :        -46.7058040           46.2233492           -0.4824548
 Dipole Z            :         24.4762959          -24.8443409           -0.3680450
 Magnitude           :                                                    0.8024458
  Basis Set: (AUG-CC-PVTZ AUX)
    Blend: AUG-CC-PVTZ-RI
	 Reference Energy          =     -76.0602477662964844 [Eh]
	 Singles Energy            =      -0.0000000000000000 [Eh]
	 Same-Spin Energy          =      -0.0683448976995075 [Eh]
	 Opposite-Spin Energy      =      -0.2158274288850767 [Eh]
	 Correlation Energy        =      -0.2841723265845842 [Eh]
	 Total Energy              =     -76.3444200928810659 [Eh]

	 ================> DF-SCS-MP2 Energies <==================
	-----------------------------------------------------------
	 SCS Same-Spin Scale       =       0.3333333333333333 [-]
	 SCS Opposite-Spin Scale   =       1.2000000000000000 [-]
	 SCS Same-Spin Energy      =      -0.0227816325665025 [Eh]
	 SCS Opposite-Spin Energy  =      -0.2589929146620921 [Eh]
	 SCS Correlation Energy    =      -0.2817745472285946 [Eh]
	 SCS Total Energy          =     -76.3420223135250779 [Eh]
	-----------------------------------------------------------

*** Psi4 exiting successfully. Buy a developer a beer!
