                               Psi4 1.8.2 release

  ==> Input File <==

--------------------------------------------------------------------------
MEMORY 60 GB

molecule dimer {
0 1
Gh(Cl)     0.000000     0.000000     0.000000
Gh(O)      0.342923    -3.144879    -0.065421
Gh(H)      0.545982    -2.209152     0.245600
Gh(H)      0.550095    -3.627707     0.755600
Gh(O)      1.545164    -1.036990    -2.802892
Gh(H)      1.062947    -0.596055    -2.031424
Gh(H)      1.045874    -1.828531    -2.968351
Gh(O)     -2.202907    -0.562551    -2.232048
Gh(H)     -2.116080    -1.498992    -1.934838
Gh(H)     -1.695715    -0.086551    -1.598454
O          2.746028     1.913676     0.329460
H          1.934738     1.451620     0.279372
H          3.036698     2.122048     1.297810

units ang
no_reorient
no_com
symmetry c1
}

set {
basis        aug-cc-pVTZ
scf_type     df
}

energy("mp2")
--------------------------------------------------------------------------

    Molecular point group: c1

    Geometry (in Angstrom), charge = 0, multiplicity = 1:

       Center              X                  Y                   Z               Mass
    ------------   -----------------  -----------------  -----------------  -----------------
      Gh(CL)          0.000000000000     0.000000000000     0.000000000000    34.968852682000
      Gh(O)           0.342923000000    -3.144879000000    -0.065421000000    15.994914619570
      Gh(H)           0.545982000000    -2.209152000000     0.245600000000     1.007825032230
      Gh(H)           0.550095000000    -3.627707000000     0.755600000000     1.007825032230
      Gh(O)           1.545164000000    -1.036990000000    -2.802892000000    15.994914619570
      Gh(H)           1.062947000000    -0.596055000000    -2.031424000000     1.007825032230
      Gh(H)           1.045874000000    -1.828531000000    -2.968351000000     1.007825032230
      Gh(O)          -2.202907000000    -0.562551000000    -2.232048000000    15.994914619570
      Gh(H)          -2.116080000000    -1.498992000000    -1.934838000000     1.007825032230
      Gh(H)          -1.695715000000    -0.086551000000    -1.598454000000     1.007825032230
         O            2.746028000000     1.913676000000     0.329460000000    15.994914619570
         H            1.934738000000     1.451620000000     0.279372000000     1.007825032230
         H            3.036698000000     2.122048000000     1.297810000000     1.007825032230

  Charge       = 0
  Multiplicity = 1
  Basis Set: AUG-CC-PVTZ
    Blend: AUG-CC-PVTZ
  Basis Set: (AUG-CC-PVTZ AUX)
    Blend: AUG-CC-PVTZ-JKFIT

    Orbital Energies [Eh]
    ---------------------

    Doubly Occupied:

       1A    -20.566987     2A     -1.336776     3A     -0.719238
       4A     -0.562653     5A     -0.505606

  @DF-RHF Final Energy:   -76.05184718940876

   => Energetics <=

    Nuclear Repulsion Energy =              8.9508030336309954
    One-Electron Energy =                -122.6227759081185127
    Two-Electron Energy =                  37.6201256850787615
    Total Energy =                        -76.0518471894087611
 Dipole X            :        -51.2675870           50.9085793           -0.3590077
 Dipole Y            :        -35.8596751           35.6838420           -0.1758330
 Dipole Z            :         -7.3501313            7.9611554            0.6110240
 Magnitude           :                                                    0.7301741
  Basis Set: (AUG-CC-PVTZ AUX)
    Blend: AUG-CC-PVTZ-RI
	 Reference Energy          =     -76.0518471894087611 [Eh]
	 Singles Energy            =      -0.0000000000000000 [Eh]
	 Same-Spin Energy          =      -0.0687168625807660 [Eh]
	 Opposite-Spin Energy      =      -0.2168197959943168 [Eh]
	 Correlation Energy        =      -0.2855366585750829 [Eh]
	 Total Energy              =     -76.3373838479838440 [Eh]

	 ================> DF-SCS-MP2 Energies <==================
	-----------------------------------------------------------
	 SCS Same-Spin Scale       =       0.3333333333333333 [-]
	 SCS Opposite-Spin Scale   =       1.2000000000000000 [-]
	 SCS Same-Spin Energy      =      -0.0229056208602553 [Eh]
	 SCS Opposite-Spin Energy  =      -0.2601837551931802 [Eh]
	 SCS Correlation Energy    =      -0.2830893760534355 [Eh]
	 SCS Total Energy          =     -76.3349365654622005 [Eh]
	-----------------------------------------------------------

*** Psi4 exiting successfully. Buy a developer a beer!
