                               Psi4 1.8.2 release

  ==> Input File <==

--------------------------------------------------------------------------
MEMORY 60 GB

molecule dimer {
0 1
Gh(Cl)     0.000000     0.000000     0.000000
Gh(O)      2.710010     1.677585    -1.071771
Gh(H)      3.152698     1.550298    -0.212812
Gh(H)      1.765317     1.467364    -1.015440
O         -3.102038    -0.017194    -1.525341
H         -3.358242     0.887782    -1.519567
H         -2.125200    -0.019232    -1.246653
Gh(O)     -1.292965     2.960221    -0.132286
Gh(H)     -0.950528     3.448108    -0.917646
Gh(H)     -0.726725     2.174558    -0.058260

units ang
no_reorient
no_com
symmetry c1
}

set {
basis        aug-cc-pVTZ
scf_type     df
}

energy("mp2")
--------------------------------------------------------------------------

    Molecular point group: c1

    Geometry (in Angstrom), charge = 0, multiplicity = 1:

       Center              X                  Y                   Z               Mass
    ------------   -----------------  -----------------  -----------------  -----------------
      Gh(CL)          0.000000000000     0.000000000000     0.000000000000    34.968852682000
      Gh(O)           2.710010000000     1.677585000000    -1.071771000000    15.994914619570
      Gh(H)           3.152698000000     1.550298000000    -0.212812000000     1.007825032230
      Gh(H)           1.765317000000     1.467364000000    -1.015440000000     1.007825032230
         O           -3.102038000000    -0.017194000000    -1.525341000000    15.994914619570
         H           -3.358242000000     0.887782000000    -1.519567000000     1.007825032230
         H           -2.125200000000    -0.019232000000    -1.246653000000     1.007825032230
      Gh(O)          -1.292965000000     2.960221000000    -0.132286000000    15.994914619570
      Gh(H)          -0.950528000000     3.448108000000    -0.917646000000     1.007825032230
      Gh(H)          -0.726725000000     2.174558000000    -0.058260000000     1.007825032230

  Charge       = 0
  Multiplicity = 1
  Basis Set: AUG-CC-PVTZ
    Blend: AUG-CC-PVTZ
  Basis Set: (AUG-CC-PVTZ AUX)
    Blend: AUG-CC-PVTZ-JKFIT

    Orbital Energies [Eh]
    ---------------------

    Doubly Occupied:

       1A    -20.570216     2A     -1.343844     3A     -0.708259
       4A     -0.579066     5A     -0.508564

  @DF-RHF Final Energy:   -76.05597694783833

   => Energetics <=

    Nuclear Repulsion Energy =              9.0087904456804004
    One-Electron Energy =                -122.7096320437126451
    Two-Electron Energy =                  37.6448646501939024
    Total Energy =                        -76.0559769478383316
 Dipole X            :         57.7229818          -57.2582216            0.4647602
 Dipole Y            :         -0.7792588            1.3813860            0.6021272
 Dipole Z            :         28.4722968          -28.2872121            0.1850847
 Magnitude           :                                                    0.7828253
  Basis Set: (AUG-CC-PVTZ AUX)
    Blend: AUG-CC-PVTZ-RI
	 Reference Energy          =     -76.0559769478383316 [Eh]
	 Singles Energy            =      -0.0000000000000000 [Eh]
	 Same-Spin Energy          =      -0.0687015300952866 [Eh]
	 Opposite-Spin Energy      =      -0.2166900662730745 [Eh]
	 Correlation Energy        =      -0.2853915963683611 [Eh]
	 Total Energy              =     -76.3413685442066878 [Eh]

	 ================> DF-SCS-MP2 Energies <==================
	-----------------------------------------------------------
	 SCS Same-Spin Scale       =       0.3333333333333333 [-]
	 SCS Opposite-Spin Scale   =       1.2000000000000000 [-]
	 SCS Same-Spin Energy      =      -0.0229005100317622 [Eh]
	 SCS Opposite-Spin Energy  =      -0.2600280795276894 [Eh]
	 SCS Correlation Energy    =      -0.2829285895594515 [Eh]
	 SCS Total Energy          =     -76.3389055373977783 [Eh]
	-----------------------------------------------------------

*** Psi4 exiting successfully. Buy a developer a beer!
