                               Psi4 1.8.2 release

  ==> Input File <==

--------------------------------------------------------------------------
MEMORY 60 GB

molecule dimer {
0 1
Gh(Cl)     0.000000     0.000000     0.000000
Gh(O)     -0.722002    -3.248013     0.354964
Gh(H)     -0.613309    -2.289253     0.433906
Gh(H)     -1.574971    -3.503131     0.680548
Gh(O)     -1.526330     2.399946     1.544144
Gh(H)     -1.173898     2.409457     2.433870
Gh(H)     -1.098273     1.621727     1.168734
Gh(O)      3.178802    -0.106216     0.211667
Gh(H)      3.377119    -0.828001     0.797087
Gh(H)      2.256728     0.086519     0.321265
O          1.888706     2.928582     0.086703
H          1.196918     2.292193     0.279175
H          1.627389     3.844402     0.410362
Gh(O)      0.992794    -0.592290     3.268874
Gh(H)      1.905677    -0.231051     3.156662
Gh(H)      0.406310    -0.199508     2.620077

units ang
no_reorient
no_com
symmetry c1
}

set {
basis        aug-cc-pVTZ
scf_type     df
}

energy("mp2")
--------------------------------------------------------------------------

    Molecular point group: c1

    Geometry (in Angstrom), charge = 0, multiplicity = 1:

       Center              X                  Y                   Z               Mass
    ------------   -----------------  -----------------  -----------------  -----------------
      Gh(CL)          0.000000000000     0.000000000000     0.000000000000    34.968852682000
      Gh(O)          -0.722002000000    -3.248013000000     0.354964000000    15.994914619570
      Gh(H)          -0.613309000000    -2.289253000000     0.433906000000     1.007825032230
      Gh(H)          -1.574971000000    -3.503131000000     0.680548000000     1.007825032230
      Gh(O)          -1.526330000000     2.399946000000     1.544144000000    15.994914619570
      Gh(H)          -1.173898000000     2.409457000000     2.433870000000     1.007825032230
      Gh(H)          -1.098273000000     1.621727000000     1.168734000000     1.007825032230
      Gh(O)           3.178802000000    -0.106216000000     0.211667000000    15.994914619570
      Gh(H)           3.377119000000    -0.828001000000     0.797087000000     1.007825032230
      Gh(H)           2.256728000000     0.086519000000     0.321265000000     1.007825032230
         O            1.888706000000     2.928582000000     0.086703000000    15.994914619570
         H            1.196918000000     2.292193000000     0.279175000000     1.007825032230
         H            1.627389000000     3.844402000000     0.410362000000     1.007825032230
      Gh(O)           0.992794000000    -0.592290000000     3.268874000000    15.994914619570
      Gh(H)           1.905677000000    -0.231051000000     3.156662000000     1.007825032230
      Gh(H)           0.406310000000    -0.199508000000     2.620077000000     1.007825032230

  Charge       = 0
  Multiplicity = 1
  Basis Set: AUG-CC-PVTZ
    Blend: AUG-CC-PVTZ
  Basis Set: (AUG-CC-PVTZ AUX)
    Blend: AUG-CC-PVTZ-JKFIT

    Orbital Energies [Eh]
    ---------------------

    Doubly Occupied:

       1A    -20.568558     2A     -1.337244     3A     -0.715009
       4A     -0.568214     5A     -0.506408

  @DF-RHF Final Energy:   -76.05605176711416

   => Energetics <=

    Nuclear Repulsion Energy =              8.9483488713295589
    One-Electron Energy =                -122.6179336924786583
    Two-Electron Energy =                  37.6135330540349457
    Total Energy =                        -76.0560517671141554
 Dipole X            :        -34.5285564           33.8902633           -0.6382931
 Dipole Y            :        -55.6900010           55.8702272            0.1802262
 Dipole Z            :         -2.2697262            2.6137955            0.3440693
 Magnitude           :                                                    0.7471836
  Basis Set: (AUG-CC-PVTZ AUX)
    Blend: AUG-CC-PVTZ-RI
	 Reference Energy          =     -76.0560517671141554 [Eh]
	 Singles Energy            =      -0.0000000000000000 [Eh]
	 Same-Spin Energy          =      -0.0687426291023668 [Eh]
	 Opposite-Spin Energy      =      -0.2168287665714790 [Eh]
	 Correlation Energy        =      -0.2855713956738458 [Eh]
	 Total Energy              =     -76.3416231627879966 [Eh]

	 ================> DF-SCS-MP2 Energies <==================
	-----------------------------------------------------------
	 SCS Same-Spin Scale       =       0.3333333333333333 [-]
	 SCS Opposite-Spin Scale   =       1.2000000000000000 [-]
	 SCS Same-Spin Energy      =      -0.0229142097007889 [Eh]
	 SCS Opposite-Spin Energy  =      -0.2601945198857747 [Eh]
	 SCS Correlation Energy    =      -0.2831087295865637 [Eh]
	 SCS Total Energy          =     -76.3391604967007140 [Eh]
	-----------------------------------------------------------

*** Psi4 exiting successfully. Buy a developer a beer!
