                               Psi4 1.8.2 release

  ==> Input File <==

--------------------------------------------------------------------------
MEMORY 60 GB

molecule dimer {
-1 1
Cl         0.000000     0.000000     0.000000
O         -0.798897     3.124496    -0.215681
H          0.060559     3.616307    -0.380398
H         -0.556490     2.210170     0.138435
O          2.730753    -0.341451    -2.110045
H          2.680631    -1.003483    -1.437785
H          1.867978    -0.486660    -2.459935
O          2.428296    -0.475128     2.348279
H          1.839286    -0.737724     1.638816
H          2.905468    -1.272764     2.554222
O         -1.218819     0.750935     2.669050
H         -1.171669     0.087468     3.394068
H         -0.655150     0.411680     1.957964
O         -0.679205    -3.054936    -0.078274
H         -0.469217    -2.104139    -0.091012
H         -0.608392    -3.314175    -1.020973

units ang
no_reorient
no_com
symmetry c1
}

set {
basis        aug-cc-pVTZ
scf_type     df
}

energy("mp2")
--------------------------------------------------------------------------

    Molecular point group: c1

    Geometry (in Angstrom), charge = -1, multiplicity = 1:

       Center              X                  Y                   Z               Mass
    ------------   -----------------  -----------------  -----------------  -----------------
         CL           0.000000000000     0.000000000000     0.000000000000    34.968852682000
         O           -0.798897000000     3.124496000000    -0.215681000000    15.994914619570
         H            0.060559000000     3.616307000000    -0.380398000000     1.007825032230
         H           -0.556490000000     2.210170000000     0.138435000000     1.007825032230
         O            2.730753000000    -0.341451000000    -2.110045000000    15.994914619570
         H            2.680631000000    -1.003483000000    -1.437785000000     1.007825032230
         H            1.867978000000    -0.486660000000    -2.459935000000     1.007825032230
         O            2.428296000000    -0.475128000000     2.348279000000    15.994914619570
         H            1.839286000000    -0.737724000000     1.638816000000     1.007825032230
         H            2.905468000000    -1.272764000000     2.554222000000     1.007825032230
         O           -1.218819000000     0.750935000000     2.669050000000    15.994914619570
         H           -1.171669000000     0.087468000000     3.394068000000     1.007825032230
         H           -0.655150000000     0.411680000000     1.957964000000     1.007825032230
         O           -0.679205000000    -3.054936000000    -0.078274000000    15.994914619570
         H           -0.469217000000    -2.104139000000    -0.091012000000     1.007825032230
         H           -0.608392000000    -3.314175000000    -1.020973000000     1.007825032230

  Charge       = -1
  Multiplicity = 1
  Basis Set: AUG-CC-PVTZ
    Blend: AUG-CC-PVTZ
  Basis Set: (AUG-CC-PVTZ AUX)
    Blend: AUG-CC-PVTZ-JKFIT

    Orbital Energies [Eh]
    ---------------------

    Doubly Occupied:

       1A   -104.586699     2A    -20.440757     3A    -20.435282
       4A    -20.421419     5A    -20.409069     6A    -20.398758
       7A    -10.312459     8A     -7.778598     9A     -7.778517
      10A     -7.778425    11A     -1.240717    12A     -1.224583
      13A     -1.199459    14A     -1.177138    15A     -1.166167
      16A     -0.834525    17A     -0.586856    18A     -0.582107
      19A     -0.562359    20A     -0.548187    21A     -0.535508
      22A     -0.480784    23A     -0.457711    24A     -0.444049
      25A     -0.417150    26A     -0.413531    27A     -0.388821
      28A     -0.380581    29A     -0.364945    30A     -0.345214
      31A     -0.342688    32A     -0.246193    33A     -0.242742
      34A     -0.238815

  @DF-RHF Final Energy:  -839.91573945061998

   => Energetics <=

    Nuclear Repulsion Energy =            299.2948523314973386
    One-Electron Energy =               -1768.8995530062102262
    Two-Electron Energy =                 629.6889612240928500
    Total Energy =                       -839.9157394506199807
 Dipole X            :        -47.7927190           48.3581445            0.5654254
 Dipole Y            :          3.3271621           -4.8414632           -1.5143011
 Dipole Z            :        -48.5803274           47.6211626           -0.9591648
 Magnitude           :                                                    1.8795773
  Basis Set: (AUG-CC-PVTZ AUX)
    Blend: AUG-CC-PVTZ-RI
	 Reference Energy          =    -839.9157394506199807 [Eh]
	 Singles Energy            =      -0.0000000000000000 [Eh]
	 Same-Spin Energy          =      -0.4172259494293467 [Eh]
	 Opposite-Spin Energy      =      -1.2747918131647751 [Eh]
	 Correlation Energy        =      -1.6920177625941217 [Eh]
	 Total Energy              =    -841.6077572132140858 [Eh]

	 ================> DF-SCS-MP2 Energies <==================
	-----------------------------------------------------------
	 SCS Same-Spin Scale       =       0.3333333333333333 [-]
	 SCS Opposite-Spin Scale   =       1.2000000000000000 [-]
	 SCS Same-Spin Energy      =      -0.1390753164764489 [Eh]
	 SCS Opposite-Spin Energy  =      -1.5297501757977301 [Eh]
	 SCS Correlation Energy    =      -1.6688254922741790 [Eh]
	 SCS Total Energy          =    -841.5845649428941897 [Eh]
	-----------------------------------------------------------

*** Psi4 exiting successfully. Buy a developer a beer!
