                               Psi4 1.8.2 release

  ==> Input File <==

--------------------------------------------------------------------------
MEMORY 60 GB

molecule dimer {
0 1
Gh(Cl)     0.000000     0.000000     0.000000
Gh(O)     -2.143902     2.687894     0.369827
Gh(H)     -1.751923     1.916157    -0.042508
Gh(H)     -1.445437     3.008980     0.964821
Gh(O)      1.417822     2.683757    -0.963726
Gh(H)      1.031224     1.892839    -0.638075
Gh(H)      2.176857     2.933195    -0.408350
Gh(O)      2.157044    -1.948549     1.619987
Gh(H)      1.520347    -1.260861     1.273406
Gh(H)      3.039464    -1.804037     1.249342
Gh(O)      0.806693     1.251237     2.760041
Gh(H)      1.460046     1.848920     2.529623
Gh(H)      0.603623     0.876975     1.911660
Gh(O)     -0.281475     0.477673    -3.053473
Gh(H)     -0.340130     0.334391    -2.127821
Gh(H)      0.648817     0.768530    -3.252626
O          2.027069    -1.802246    -1.829283
H          1.495188    -2.466996    -2.164289
H          1.704265    -1.376629    -1.005788

units ang
no_reorient
no_com
symmetry c1
}

set {
basis        aug-cc-pVTZ
scf_type     df
}

energy("mp2")
--------------------------------------------------------------------------

    Molecular point group: c1

    Geometry (in Angstrom), charge = 0, multiplicity = 1:

       Center              X                  Y                   Z               Mass
    ------------   -----------------  -----------------  -----------------  -----------------
      Gh(CL)          0.000000000000     0.000000000000     0.000000000000    34.968852682000
      Gh(O)          -2.143902000000     2.687894000000     0.369827000000    15.994914619570
      Gh(H)          -1.751923000000     1.916157000000    -0.042508000000     1.007825032230
      Gh(H)          -1.445437000000     3.008980000000     0.964821000000     1.007825032230
      Gh(O)           1.417822000000     2.683757000000    -0.963726000000    15.994914619570
      Gh(H)           1.031224000000     1.892839000000    -0.638075000000     1.007825032230
      Gh(H)           2.176857000000     2.933195000000    -0.408350000000     1.007825032230
      Gh(O)           2.157044000000    -1.948549000000     1.619987000000    15.994914619570
      Gh(H)           1.520347000000    -1.260861000000     1.273406000000     1.007825032230
      Gh(H)           3.039464000000    -1.804037000000     1.249342000000     1.007825032230
      Gh(O)           0.806693000000     1.251237000000     2.760041000000    15.994914619570
      Gh(H)           1.460046000000     1.848920000000     2.529623000000     1.007825032230
      Gh(H)           0.603623000000     0.876975000000     1.911660000000     1.007825032230
      Gh(O)          -0.281475000000     0.477673000000    -3.053473000000    15.994914619570
      Gh(H)          -0.340130000000     0.334391000000    -2.127821000000     1.007825032230
      Gh(H)           0.648817000000     0.768530000000    -3.252626000000     1.007825032230
         O            2.027069000000    -1.802246000000    -1.829283000000    15.994914619570
         H            1.495188000000    -2.466996000000    -2.164289000000     1.007825032230
         H            1.704265000000    -1.376629000000    -1.005788000000     1.007825032230

  Charge       = 0
  Multiplicity = 1
  Basis Set: AUG-CC-PVTZ
    Blend: AUG-CC-PVTZ
  Basis Set: (AUG-CC-PVTZ AUX)
    Blend: AUG-CC-PVTZ-JKFIT

    Orbital Energies [Eh]
    ---------------------

    Doubly Occupied:

       1A    -20.560097     2A     -1.351637     3A     -0.743066
       4A     -0.565044     5A     -0.507860

  @DF-RHF Final Energy:   -76.05655275222780

   => Energetics <=

    Nuclear Repulsion Energy =              9.2699105310344088
    One-Electron Energy =                -123.1975147390340197
    Two-Electron Energy =                  37.8710514557718128
    Total Energy =                        -76.0565527522277876
 Dipole X            :        -37.2847722           36.6909319           -0.5938403
 Dipole Y            :         34.3383915          -34.5094094           -0.1710179
 Dipole Z            :         33.9790588          -33.6453283            0.3337304
 Magnitude           :                                                    0.7023314
  Basis Set: (AUG-CC-PVTZ AUX)
    Blend: AUG-CC-PVTZ-RI
	 Reference Energy          =     -76.0565527522278018 [Eh]
	 Singles Energy            =      -0.0000000000000000 [Eh]
	 Same-Spin Energy          =      -0.0681724451554390 [Eh]
	 Opposite-Spin Energy      =      -0.2150654869174752 [Eh]
	 Correlation Energy        =      -0.2832379320729143 [Eh]
	 Total Energy              =     -76.3397906843007092 [Eh]

	 ================> DF-SCS-MP2 Energies <==================
	-----------------------------------------------------------
	 SCS Same-Spin Scale       =       0.3333333333333333 [-]
	 SCS Opposite-Spin Scale   =       1.2000000000000000 [-]
	 SCS Same-Spin Energy      =      -0.0227241483851463 [Eh]
	 SCS Opposite-Spin Energy  =      -0.2580785843009702 [Eh]
	 SCS Correlation Energy    =      -0.2808027326861166 [Eh]
	 SCS Total Energy          =     -76.3373554849139140 [Eh]
	-----------------------------------------------------------

*** Psi4 exiting successfully. Buy a developer a beer!
