                               Psi4 1.8.2 release

  ==> Input File <==

--------------------------------------------------------------------------
MEMORY 60 GB

molecule dimer {
-1 1
Cl         0.000000     0.000000     0.000000
Gh(O)     -3.038300     0.134622    -1.043661
Gh(H)     -3.193085    -0.817042    -1.081050
Gh(H)     -2.168895     0.204810    -0.622911
Gh(O)      0.823564     1.469194    -2.905263
Gh(H)      0.448094     2.356201    -2.904934
Gh(H)      0.575772     1.029626    -2.123683
Gh(O)      0.828626     1.168457     2.974264
Gh(H)      0.970257     2.138629     3.098186
Gh(H)      0.641650     1.018427     2.076444
Gh(O)     -0.318478    -2.578120     1.970563
Gh(H)     -0.430935    -1.762301     1.500686
Gh(H)      0.695700    -2.767996     1.959541
Gh(O)     -0.851147     3.093003    -0.308058
Gh(H)     -0.095872     3.522305     0.160168
Gh(H)     -0.635313     2.177807    -0.311008

units ang
no_reorient
no_com
symmetry c1
}

set {
basis        aug-cc-pVTZ
scf_type     df
}

energy("mp2")
--------------------------------------------------------------------------

    Molecular point group: c1

    Geometry (in Angstrom), charge = -1, multiplicity = 1:

       Center              X                  Y                   Z               Mass
    ------------   -----------------  -----------------  -----------------  -----------------
         CL           0.000000000000     0.000000000000     0.000000000000    34.968852682000
      Gh(O)          -3.038300000000     0.134622000000    -1.043661000000    15.994914619570
      Gh(H)          -3.193085000000    -0.817042000000    -1.081050000000     1.007825032230
      Gh(H)          -2.168895000000     0.204810000000    -0.622911000000     1.007825032230
      Gh(O)           0.823564000000     1.469194000000    -2.905263000000    15.994914619570
      Gh(H)           0.448094000000     2.356201000000    -2.904934000000     1.007825032230
      Gh(H)           0.575772000000     1.029626000000    -2.123683000000     1.007825032230
      Gh(O)           0.828626000000     1.168457000000     2.974264000000    15.994914619570
      Gh(H)           0.970257000000     2.138629000000     3.098186000000     1.007825032230
      Gh(H)           0.641650000000     1.018427000000     2.076444000000     1.007825032230
      Gh(O)          -0.318478000000    -2.578120000000     1.970563000000    15.994914619570
      Gh(H)          -0.430935000000    -1.762301000000     1.500686000000     1.007825032230
      Gh(H)           0.695700000000    -2.767996000000     1.959541000000     1.007825032230
      Gh(O)          -0.851147000000     3.093003000000    -0.308058000000    15.994914619570
      Gh(H)          -0.095872000000     3.522305000000     0.160168000000     1.007825032230
      Gh(H)          -0.635313000000     2.177807000000    -0.311008000000     1.007825032230

  Charge       = -1
  Multiplicity = 1
  Basis Set: AUG-CC-PVTZ
    Blend: AUG-CC-PVTZ
  Basis Set: (AUG-CC-PVTZ AUX)
    Blend: AUG-CC-PVTZ-JKFIT

    Orbital Energies [Eh]
    ---------------------

    Doubly Occupied:

       1A   -104.507244     2A    -10.230054     3A     -7.696125
       4A     -7.696112     5A     -7.696094     6A     -0.733465
       7A     -0.150309     8A     -0.150304     9A     -0.150301

  @DF-RHF Final Energy:  -459.57358055105107

   => Energetics <=

    Nuclear Repulsion Energy =              0.0000000000000000
    One-Electron Energy =                -641.1271599428359877
    Two-Electron Energy =                 181.5535793917849219
    Total Energy =                       -459.5735805510510659
 Dipole X            :         -0.0001818            0.0000000           -0.0001818
 Dipole Y            :          0.0002101            0.0000000            0.0002101
 Dipole Z            :          0.0000887            0.0000000            0.0000887
 Magnitude           :                                                    0.0002916
  Basis Set: (AUG-CC-PVTZ AUX)
    Blend: AUG-CC-PVTZ-RI
	 Reference Energy          =    -459.5735805510510659 [Eh]
	 Singles Energy            =      -0.0000000000000000 [Eh]
	 Same-Spin Energy          =      -0.0635342164074659 [Eh]
	 Opposite-Spin Energy      =      -0.1838730211765948 [Eh]
	 Correlation Energy        =      -0.2474072375840606 [Eh]
	 Total Energy              =    -459.8209877886351364 [Eh]

	 ================> DF-SCS-MP2 Energies <==================
	-----------------------------------------------------------
	 SCS Same-Spin Scale       =       0.3333333333333333 [-]
	 SCS Opposite-Spin Scale   =       1.2000000000000000 [-]
	 SCS Same-Spin Energy      =      -0.0211780721358220 [Eh]
	 SCS Opposite-Spin Energy  =      -0.2206476254119137 [Eh]
	 SCS Correlation Energy    =      -0.2418256975477357 [Eh]
	 SCS Total Energy          =    -459.8154062485987765 [Eh]
	-----------------------------------------------------------

*** Psi4 exiting successfully. Buy a developer a beer!
