                               Psi4 1.9 release

  ==> Input File <==

--------------------------------------------------------------------------
MEMORY 60 GB

molecule dimer {
-1 1
Cl     0.000000     0.000000     0.000000
--
0 1
O      0.601726    -2.589847     1.985255
H      0.625102    -1.734398     1.410853
H      0.202443    -2.311978     2.805266
O      1.654373     2.108704     2.134861
H      1.639621     3.020507     1.745273
H      1.118820     1.502198     1.596433
O     -1.660561     0.569143     2.400854
H     -1.309075     0.235507     1.599810
H     -1.163770     0.257029     3.177412
O     -1.490632    -2.685195    -0.853034
H     -1.987793    -3.157702    -0.165193
H     -0.816107    -2.123214    -0.480627
O      3.208264     0.379661    -0.437533
H      3.780426     0.542681     0.324217
H      2.259776     0.321939    -0.255342

units ang
no_reorient
no_com
symmetry c1
}

set {
basis        aug-cc-pVTZ
scf_type     df
}

energy("mp2", bsse_type="cp")
--------------------------------------------------------------------------

                               Psi4 1.9 release
    Molecular point group: c1
  Charge       = 0
  Multiplicity = 1
  Basis Set: AUG-CC-PVTZ
    Blend: AUG-CC-PVTZ
  Basis Set: (AUG-CC-PVTZ AUX)
    Blend: AUG-CC-PVTZ-JKFIT
  @DF-RHF Final Energy:  -380.27611193660823
    Total Energy =                       -380.2761119366082312
 Dipole X            :        -43.3328403           43.1893183           -0.1435220
 Dipole Y            :         40.6619708          -40.0389559            0.6230149
 Dipole Z            :       -100.2920514          101.2918261            0.9997747
 Magnitude           :                                                    1.1867163
  Basis Set: (AUG-CC-PVTZ AUX)
    Blend: AUG-CC-PVTZ-RI
	 Reference Energy          =    -380.2761119366082312 [Eh]
	 Singles Energy            =      -0.0000000000000000 [Eh]
	 Same-Spin Energy          =      -0.3446363234431806 [Eh]
	 Opposite-Spin Energy      =      -1.0842932844563875 [Eh]
	 Correlation Energy        =      -1.4289296078995681 [Eh]
	 Total Energy              =    -381.7050415445078215 [Eh]
	 SCS Total Energy          =    -381.6921426524369281 [Eh]
                               Psi4 1.9 release
    Molecular point group: c1
  Multiplicity = 1
  Basis Set: AUG-CC-PVTZ
    Blend: AUG-CC-PVTZ
  Basis Set: (AUG-CC-PVTZ AUX)
    Blend: AUG-CC-PVTZ-JKFIT
  @DF-RHF Final Energy:  -459.57358246761771
    Total Energy =                       -459.5735824676177117
  Basis Set: (AUG-CC-PVTZ AUX)
	 Singles Energy            =      -0.0000000000000000 [Eh]
	 Same-Spin Energy          =      -0.0636185648088330 [Eh]
	 Opposite-Spin Energy      =      -0.1842325824462131 [Eh]
	 Correlation Energy        =      -0.2478511472550461 [Eh]
	 Total Energy              =    -459.8214336148727739 [Eh]
	 SCS Total Energy          =    -459.8158677548227615 [Eh]
                               Psi4 1.9 release
    Molecular point group: c1

    Geometry (in Bohr), charge = -1, multiplicity = 1:

       Center              X                  Y                   Z               Mass
    ------------   -----------------  -----------------  -----------------  -----------------
         CL           0.000000000000     0.000000000000     0.000000000000    34.968852682000
         O            1.137097342567    -4.894101536839     3.751588239196    15.994914619570
         H            1.181271580476    -3.277537212542     2.666125773281     1.007825032230
         H            0.382561826016    -4.369005228084     5.301184449059     1.007825032230
         O            3.126311879352     3.984873039657     4.034302605921    15.994914619570
         H            3.098434639549     5.707930990028     3.298087984156     1.007825032230
         H            2.114263383685     2.838742806210     3.016821147643     1.007825032230
         O           -3.138005504616     1.075524396221     4.536956527210    15.994914619570
         H           -2.473793227684     0.445043730628     3.023202752769     1.007825032230
         H           -2.199206573024     0.485714416300     6.004438467743     1.007825032230
         O           -2.816886233843    -5.074283143449    -1.612000635704    15.994914619570
         H           -3.756384364102    -5.967191965810    -0.312169527843     1.007825032230
         H           -1.542218719069    -4.012292965738    -0.908253398500     1.007825032230
         O            6.062740298166     0.717455310517    -0.826817540850    15.994914619570
         H            7.143969777560     1.025518463490     0.612681335218     1.007825032230
         H            4.270357744883     0.608376539104    -0.482526448327     1.007825032230

  Charge       = -1
  Multiplicity = 1
  Basis Set: AUG-CC-PVTZ
    Blend: AUG-CC-PVTZ
  Basis Set: (AUG-CC-PVTZ AUX)
    Blend: AUG-CC-PVTZ-JKFIT

    Orbital Energies [Eh]
    ---------------------

    Doubly Occupied:

       1A   -104.597592     2A    -20.432571     3A    -20.431135
       4A    -20.410380     5A    -20.409142     6A    -20.408718
       7A    -10.323451     8A     -7.789520     9A     -7.789479
      10A     -7.789476    11A     -1.204305    12A     -1.201570
      13A     -1.200260    14A     -1.192855    15A     -1.190915
      16A     -0.846731    17A     -0.588148    18A     -0.584403
      19A     -0.581479    20A     -0.576779    21A     -0.563176
      22A     -0.446951    23A     -0.439892    24A     -0.426559
      25A     -0.421638    26A     -0.416184    27A     -0.375316
      28A     -0.370761    29A     -0.359607    30A     -0.356105
      31A     -0.355289    32A     -0.255648    33A     -0.253738
      34A     -0.252405

  @DF-RHF Final Energy:  -839.92023148701219

   => Energetics <=

    Nuclear Repulsion Energy =            310.8672629058829102
    One-Electron Energy =               -1791.8906297572211770
    Two-Electron Energy =                 641.1031353643261355
    Total Energy =                       -839.9202314870121882
 Dipole X            :        -43.6165180           43.1893183           -0.4271997
 Dipole Y            :         40.9608532          -40.0389559            0.9218973
 Dipole Z            :       -101.1180728          101.2918261            0.1737533
 Magnitude           :                                                    1.0308173
  Basis Set: (AUG-CC-PVTZ AUX)
    Blend: AUG-CC-PVTZ-RI
	 Reference Energy          =    -839.9202314870121882 [Eh]
	 Singles Energy            =      -0.0000000000000000 [Eh]
	 Same-Spin Energy          =      -0.4181629029897165 [Eh]
	 Opposite-Spin Energy      =      -1.2753949549336641 [Eh]
	 Correlation Energy        =      -1.6935578579233805 [Eh]
	 Total Energy              =    -841.6137893449355261 [Eh]

	 ================> DF-SCS-MP2 Energies <==================
	-----------------------------------------------------------
	 SCS Same-Spin Scale       =       0.3333333333333333 [-]
	 SCS Opposite-Spin Scale   =       1.2000000000000000 [-]
	 SCS Same-Spin Energy      =      -0.1393876343299055 [Eh]
	 SCS Opposite-Spin Energy  =      -1.5304739459203969 [Eh]
	 SCS Correlation Energy    =      -1.6698615802503023 [Eh]
	 SCS Total Energy          =    -841.5900930672625009 [Eh]
	-----------------------------------------------------------

*** Psi4 exiting successfully. Buy a developer a beer!
