                               Psi4 1.8.2 release

  ==> Input File <==

--------------------------------------------------------------------------
MEMORY 60 GB

molecule dimer {
-1 1
Cl         0.000000     0.000000     0.000000
O          2.039085    -2.462644     0.200988
H          1.844667    -1.848434    -0.539502
H          2.791815    -2.941769    -0.104662
O          2.498699     1.474611    -1.093244
H          2.371003     1.199564    -1.994894
H          1.745902     1.188647    -0.615483
O          2.394840    -0.079249     2.053779
H          1.775513     0.099764     2.735700
H          1.874464    -0.207619     1.256205
O         -0.383324     2.887532     1.419545
H         -0.168626     2.055517     0.996479
H          0.449266     3.337289     1.431516
O         -2.136232     0.804329    -2.001926
H         -2.664027     1.566950    -2.332419
H         -1.432285     1.115994    -1.486120

units ang
no_reorient
no_com
symmetry c1
}

set {
basis        aug-cc-pVTZ
scf_type     df
}

energy("mp2")
--------------------------------------------------------------------------

    Molecular point group: c1

    Geometry (in Angstrom), charge = -1, multiplicity = 1:

       Center              X                  Y                   Z               Mass
    ------------   -----------------  -----------------  -----------------  -----------------
         CL           0.000000000000     0.000000000000     0.000000000000    34.968852682000
         O            2.039085000000    -2.462644000000     0.200988000000    15.994914619570
         H            1.844667000000    -1.848434000000    -0.539502000000     1.007825032230
         H            2.791815000000    -2.941769000000    -0.104662000000     1.007825032230
         O            2.498699000000     1.474611000000    -1.093244000000    15.994914619570
         H            2.371003000000     1.199564000000    -1.994894000000     1.007825032230
         H            1.745902000000     1.188647000000    -0.615483000000     1.007825032230
         O            2.394840000000    -0.079249000000     2.053779000000    15.994914619570
         H            1.775513000000     0.099764000000     2.735700000000     1.007825032230
         H            1.874464000000    -0.207619000000     1.256205000000     1.007825032230
         O           -0.383324000000     2.887532000000     1.419545000000    15.994914619570
         H           -0.168626000000     2.055517000000     0.996479000000     1.007825032230
         H            0.449266000000     3.337289000000     1.431516000000     1.007825032230
         O           -2.136232000000     0.804329000000    -2.001926000000    15.994914619570
         H           -2.664027000000     1.566950000000    -2.332419000000     1.007825032230
         H           -1.432285000000     1.115994000000    -1.486120000000     1.007825032230

  Charge       = -1
  Multiplicity = 1
  Basis Set: AUG-CC-PVTZ
    Blend: AUG-CC-PVTZ
  Basis Set: (AUG-CC-PVTZ AUX)
    Blend: AUG-CC-PVTZ-JKFIT

    Orbital Energies [Eh]
    ---------------------

    Doubly Occupied:

       1A   -104.575404     2A    -20.426520     3A    -20.416751
       4A    -20.411978     5A    -20.407126     6A    -20.387306
       7A    -10.301301     8A     -7.767370     9A     -7.767343
      10A     -7.767314    11A     -1.212334    12A     -1.206958
      13A     -1.205903    14A     -1.205046    15A     -1.183300
      16A     -0.824369    17A     -0.583418    18A     -0.579139
      19A     -0.574039    20A     -0.566416    21A     -0.551623
      22A     -0.446009    23A     -0.442592    24A     -0.436604
      25A     -0.430217    26A     -0.417262    27A     -0.371843
      28A     -0.363465    29A     -0.361642    30A     -0.359119
      31A     -0.335645    32A     -0.234771    33A     -0.232495
      34A     -0.230932

  @DF-RHF Final Energy:  -839.91616984630673

   => Energetics <=

    Nuclear Repulsion Energy =            314.9885114377301534
    One-Electron Energy =               -1800.6422512195767922
    Two-Electron Energy =                 645.7375699355397956
    Total Energy =                       -839.9161698463067296
 Dipole X            :        -83.6035388           82.9443051           -0.6592337
 Dipole Y            :        -50.5895220           50.1959163           -0.3936056
 Dipole Z            :         -8.6900503            7.5210268           -1.1690235
 Magnitude           :                                                    1.3986173
  Basis Set: (AUG-CC-PVTZ AUX)
    Blend: AUG-CC-PVTZ-RI
	 Reference Energy          =    -839.9161698463067296 [Eh]
	 Singles Energy            =      -0.0000000000000000 [Eh]
	 Same-Spin Energy          =      -0.4168720890158302 [Eh]
	 Opposite-Spin Energy      =      -1.2719039482250276 [Eh]
	 Correlation Energy        =      -1.6887760372408578 [Eh]
	 Total Energy              =    -841.6049458835475434 [Eh]

	 ================> DF-SCS-MP2 Energies <==================
	-----------------------------------------------------------
	 SCS Same-Spin Scale       =       0.3333333333333333 [-]
	 SCS Opposite-Spin Scale   =       1.2000000000000000 [-]
	 SCS Same-Spin Energy      =      -0.1389573630052767 [Eh]
	 SCS Opposite-Spin Energy  =      -1.5262847378700330 [Eh]
	 SCS Correlation Energy    =      -1.6652421008753098 [Eh]
	 SCS Total Energy          =    -841.5814119471820050 [Eh]
	-----------------------------------------------------------

*** Psi4 exiting successfully. Buy a developer a beer!
