                               Psi4 1.8.2 release

  ==> Input File <==

--------------------------------------------------------------------------
MEMORY 60 GB

molecule dimer {
0 1
Gh(Cl)     0.000000     0.000000     0.000000
O         -0.847666     1.123183    -2.635575
H         -0.437574     0.880472    -1.760595
H         -0.764447     2.074687    -2.698382
Gh(O)     -1.923843    -1.041384     2.309194
Gh(H)     -0.989393    -0.988290     2.002993
Gh(H)     -1.922107    -1.234669     3.265432
Gh(O)     -1.085792     2.891213     1.281354
Gh(H)     -0.827850     2.048774     0.893722
Gh(H)     -1.837629     3.227416     0.720403
Gh(O)      2.086666    -0.280613     2.774800
Gh(H)      2.485722    -0.200190     3.622985
Gh(H)      2.716073     0.112459     2.212730
Gh(O)     -3.218433     0.993576    -0.104983
Gh(H)     -3.390588     0.720767    -1.017887
Gh(H)     -2.341262     0.608606     0.113792

units ang
no_reorient
no_com
symmetry c1
}

set {
basis        aug-cc-pVTZ
scf_type     df
}

energy("mp2")
--------------------------------------------------------------------------

    Molecular point group: c1

    Geometry (in Angstrom), charge = 0, multiplicity = 1:

       Center              X                  Y                   Z               Mass
    ------------   -----------------  -----------------  -----------------  -----------------
      Gh(CL)          0.000000000000     0.000000000000     0.000000000000    34.968852682000
         O           -0.847666000000     1.123183000000    -2.635575000000    15.994914619570
         H           -0.437574000000     0.880472000000    -1.760595000000     1.007825032230
         H           -0.764447000000     2.074687000000    -2.698382000000     1.007825032230
      Gh(O)          -1.923843000000    -1.041384000000     2.309194000000    15.994914619570
      Gh(H)          -0.989393000000    -0.988290000000     2.002993000000     1.007825032230
      Gh(H)          -1.922107000000    -1.234669000000     3.265432000000     1.007825032230
      Gh(O)          -1.085792000000     2.891213000000     1.281354000000    15.994914619570
      Gh(H)          -0.827850000000     2.048774000000     0.893722000000     1.007825032230
      Gh(H)          -1.837629000000     3.227416000000     0.720403000000     1.007825032230
      Gh(O)           2.086666000000    -0.280613000000     2.774800000000    15.994914619570
      Gh(H)           2.485722000000    -0.200190000000     3.622985000000     1.007825032230
      Gh(H)           2.716073000000     0.112459000000     2.212730000000     1.007825032230
      Gh(O)          -3.218433000000     0.993576000000    -0.104983000000    15.994914619570
      Gh(H)          -3.390588000000     0.720767000000    -1.017887000000     1.007825032230
      Gh(H)          -2.341262000000     0.608606000000     0.113792000000     1.007825032230

  Charge       = 0
  Multiplicity = 1
  Basis Set: AUG-CC-PVTZ
    Blend: AUG-CC-PVTZ
  Basis Set: (AUG-CC-PVTZ AUX)
    Blend: AUG-CC-PVTZ-JKFIT

    Orbital Energies [Eh]
    ---------------------

    Doubly Occupied:

       1A    -20.570052     2A     -1.343457     3A     -0.708792
       4A     -0.579445     5A     -0.508545

  @DF-RHF Final Energy:   -76.05803318528153

   => Energetics <=

    Nuclear Repulsion Energy =              9.0124249814561868
    One-Electron Energy =                -122.7203318334824047
    Two-Electron Energy =                  37.6498736667446821
    Total Energy =                        -76.0580331852815306
 Dipole X            :         15.4105003          -15.0863432            0.3241571
 Dipole Y            :        -22.0927250           22.5645072            0.4717823
 Dipole Z            :         48.8015853          -48.2703648            0.5312205
 Magnitude           :                                                    0.7809299
  Basis Set: (AUG-CC-PVTZ AUX)
    Blend: AUG-CC-PVTZ-RI
	 Reference Energy          =     -76.0580331852815306 [Eh]
	 Singles Energy            =      -0.0000000000000000 [Eh]
	 Same-Spin Energy          =      -0.0687217827712922 [Eh]
	 Opposite-Spin Energy      =      -0.2169234150390126 [Eh]
	 Correlation Energy        =      -0.2856451978103047 [Eh]
	 Total Energy              =     -76.3436783830918415 [Eh]

	 ================> DF-SCS-MP2 Energies <==================
	-----------------------------------------------------------
	 SCS Same-Spin Scale       =       0.3333333333333333 [-]
	 SCS Opposite-Spin Scale   =       1.2000000000000000 [-]
	 SCS Same-Spin Energy      =      -0.0229072609237641 [Eh]
	 SCS Opposite-Spin Energy  =      -0.2603080980468150 [Eh]
	 SCS Correlation Energy    =      -0.2832153589705791 [Eh]
	 SCS Total Energy          =     -76.3412485442521103 [Eh]
	-----------------------------------------------------------

*** Psi4 exiting successfully. Buy a developer a beer!
