                               Psi4 1.8.2 release

  ==> Input File <==

--------------------------------------------------------------------------
MEMORY 60 GB

molecule dimer {
0 1
Gh(Cl)     0.000000     0.000000     0.000000
Gh(O)      1.897040     2.508472     0.302538
Gh(H)      1.357854     1.760957     0.096876
Gh(H)      1.821429     3.097428    -0.472561
Gh(O)      1.468839    -2.859802     0.731682
Gh(H)      0.736236    -2.305230     0.469404
Gh(H)      1.608881    -2.605813     1.655215
O         -0.432860     1.202269     3.088280
H         -0.095501     0.925593     2.231419
H         -0.432197     2.174121     3.067087
Gh(O)     -2.583472    -1.827415     0.818109
Gh(H)     -3.021839    -1.220259     0.255210
Gh(H)     -1.746720    -1.415553     1.142264
Gh(O)     -2.492733     2.189682    -0.627088
Gh(H)     -2.444094     2.136340    -1.579013
Gh(H)     -2.056599     1.404262    -0.404676

units ang
no_reorient
no_com
symmetry c1
}

set {
basis        aug-cc-pVTZ
scf_type     df
}

energy("mp2")
--------------------------------------------------------------------------

    Molecular point group: c1

    Geometry (in Angstrom), charge = 0, multiplicity = 1:

       Center              X                  Y                   Z               Mass
    ------------   -----------------  -----------------  -----------------  -----------------
      Gh(CL)          0.000000000000     0.000000000000     0.000000000000    34.968852682000
      Gh(O)           1.897040000000     2.508472000000     0.302538000000    15.994914619570
      Gh(H)           1.357854000000     1.760957000000     0.096876000000     1.007825032230
      Gh(H)           1.821429000000     3.097428000000    -0.472561000000     1.007825032230
      Gh(O)           1.468839000000    -2.859802000000     0.731682000000    15.994914619570
      Gh(H)           0.736236000000    -2.305230000000     0.469404000000     1.007825032230
      Gh(H)           1.608881000000    -2.605813000000     1.655215000000     1.007825032230
         O           -0.432860000000     1.202269000000     3.088280000000    15.994914619570
         H           -0.095501000000     0.925593000000     2.231419000000     1.007825032230
         H           -0.432197000000     2.174121000000     3.067087000000     1.007825032230
      Gh(O)          -2.583472000000    -1.827415000000     0.818109000000    15.994914619570
      Gh(H)          -3.021839000000    -1.220259000000     0.255210000000     1.007825032230
      Gh(H)          -1.746720000000    -1.415553000000     1.142264000000     1.007825032230
      Gh(O)          -2.492733000000     2.189682000000    -0.627088000000    15.994914619570
      Gh(H)          -2.444094000000     2.136340000000    -1.579013000000     1.007825032230
      Gh(H)          -2.056599000000     1.404262000000    -0.404676000000     1.007825032230

  Charge       = 0
  Multiplicity = 1
  Basis Set: AUG-CC-PVTZ
    Blend: AUG-CC-PVTZ
  Basis Set: (AUG-CC-PVTZ AUX)
    Blend: AUG-CC-PVTZ-JKFIT

    Orbital Energies [Eh]
    ---------------------

    Doubly Occupied:

       1A    -20.568354     2A     -1.347948     3A     -0.714528
       4A     -0.581035     5A     -0.509250

  @DF-RHF Final Energy:   -76.05984516378447

   => Energetics <=

    Nuclear Repulsion Energy =              9.1014122293421504
    One-Electron Energy =                -122.8802811213345052
    Two-Electron Energy =                  37.7190237282078868
    Total Energy =                        -76.0598451637844732
 Dipole X            :          7.7662884           -7.5410995            0.2251889
 Dipole Y            :        -23.5734326           24.0332836            0.4598511
 Dipole Z            :        -57.2845367           56.7007524           -0.5837843
 Magnitude           :                                                    0.7765160
  Basis Set: (AUG-CC-PVTZ AUX)
    Blend: AUG-CC-PVTZ-RI
	 Reference Energy          =     -76.0598451637844732 [Eh]
	 Singles Energy            =      -0.0000000000000000 [Eh]
	 Same-Spin Energy          =      -0.0685355764151908 [Eh]
	 Opposite-Spin Energy      =      -0.2162364923800927 [Eh]
	 Correlation Energy        =      -0.2847720687952836 [Eh]
	 Total Energy              =     -76.3446172325797505 [Eh]

	 ================> DF-SCS-MP2 Energies <==================
	-----------------------------------------------------------
	 SCS Same-Spin Scale       =       0.3333333333333333 [-]
	 SCS Opposite-Spin Scale   =       1.2000000000000000 [-]
	 SCS Same-Spin Energy      =      -0.0228451921383969 [Eh]
	 SCS Opposite-Spin Energy  =      -0.2594837908561113 [Eh]
	 SCS Correlation Energy    =      -0.2823289829945082 [Eh]
	 SCS Total Energy          =     -76.3421741467789872 [Eh]
	-----------------------------------------------------------

*** Psi4 exiting successfully. Buy a developer a beer!
