                               Psi4 1.8.2 release

  ==> Input File <==

--------------------------------------------------------------------------
MEMORY 60 GB

molecule dimer {
0 1
Gh(Cl)     0.000000     0.000000     0.000000
Gh(O)      1.401814     3.004279    -0.293739
Gh(H)      1.286935     2.071480    -0.547510
Gh(H)      0.587179     3.446356    -0.499197
O          2.350678    -2.241718     0.338880
H          1.723621    -1.571284     0.204117
H          2.824680    -2.355887    -0.493503
Gh(O)      1.245199    -0.336761     2.824372
Gh(H)      0.470260     0.235926     2.905006
Gh(H)      1.361956    -0.347042     1.858412
Gh(O)     -1.541109    -2.418693     1.370070
Gh(H)     -0.925165    -1.895960     0.786732
Gh(H)     -2.220385    -1.862267     1.722704

units ang
no_reorient
no_com
symmetry c1
}

set {
basis        aug-cc-pVTZ
scf_type     df
}

energy("mp2")
--------------------------------------------------------------------------

    Molecular point group: c1

    Geometry (in Angstrom), charge = 0, multiplicity = 1:

       Center              X                  Y                   Z               Mass
    ------------   -----------------  -----------------  -----------------  -----------------
      Gh(CL)          0.000000000000     0.000000000000     0.000000000000    34.968852682000
      Gh(O)           1.401814000000     3.004279000000    -0.293739000000    15.994914619570
      Gh(H)           1.286935000000     2.071480000000    -0.547510000000     1.007825032230
      Gh(H)           0.587179000000     3.446356000000    -0.499197000000     1.007825032230
         O            2.350678000000    -2.241718000000     0.338880000000    15.994914619570
         H            1.723621000000    -1.571284000000     0.204117000000     1.007825032230
         H            2.824680000000    -2.355887000000    -0.493503000000     1.007825032230
      Gh(O)           1.245199000000    -0.336761000000     2.824372000000    15.994914619570
      Gh(H)           0.470260000000     0.235926000000     2.905006000000     1.007825032230
      Gh(H)           1.361956000000    -0.347042000000     1.858412000000     1.007825032230
      Gh(O)          -1.541109000000    -2.418693000000     1.370070000000    15.994914619570
      Gh(H)          -0.925165000000    -1.895960000000     0.786732000000     1.007825032230
      Gh(H)          -2.220385000000    -1.862267000000     1.722704000000     1.007825032230

  Charge       = 0
  Multiplicity = 1
  Basis Set: AUG-CC-PVTZ
    Blend: AUG-CC-PVTZ
  Basis Set: (AUG-CC-PVTZ AUX)
    Blend: AUG-CC-PVTZ-JKFIT

    Orbital Energies [Eh]
    ---------------------

    Doubly Occupied:

       1A    -20.564043     2A     -1.357873     3A     -0.728853
       4A     -0.582034     5A     -0.510589

  @DF-RHF Final Energy:   -76.06045752110468

   => Energetics <=

    Nuclear Repulsion Energy =              9.2990973263258745
    One-Electron Energy =                -123.2323245940149405
    Two-Electron Energy =                  37.8727697465843818
    Total Energy =                        -76.0604575211046807
 Dipole X            :        -44.2400138           44.1321443           -0.1078695
 Dipole Y            :         41.6902490          -41.3111422            0.3791068
 Dipole Z            :         -5.2268963            4.5762628           -0.6506335
 Magnitude           :                                                    0.7607113
  Basis Set: (AUG-CC-PVTZ AUX)
    Blend: AUG-CC-PVTZ-RI
	 Reference Energy          =     -76.0604575211046807 [Eh]
	 Singles Energy            =      -0.0000000000000000 [Eh]
	 Same-Spin Energy          =      -0.0681636058638330 [Eh]
	 Opposite-Spin Energy      =      -0.2152585644896821 [Eh]
	 Correlation Energy        =      -0.2834221703535151 [Eh]
	 Total Energy              =     -76.3438796914581985 [Eh]

	 ================> DF-SCS-MP2 Energies <==================
	-----------------------------------------------------------
	 SCS Same-Spin Scale       =       0.3333333333333333 [-]
	 SCS Opposite-Spin Scale   =       1.2000000000000000 [-]
	 SCS Same-Spin Energy      =      -0.0227212019546110 [Eh]
	 SCS Opposite-Spin Energy  =      -0.2583102773876185 [Eh]
	 SCS Correlation Energy    =      -0.2810314793422296 [Eh]
	 SCS Total Energy          =     -76.3414890004469129 [Eh]
	-----------------------------------------------------------

*** Psi4 exiting successfully. Buy a developer a beer!
