                               Psi4 1.8.2 release

  ==> Input File <==

--------------------------------------------------------------------------
MEMORY 60 GB

molecule dimer {
-1 1
Cl         0.000000     0.000000     0.000000
O          3.232758    -0.679143     0.998305
H          2.352463    -0.253635     0.918000
H          3.312977    -1.122656     1.834457
O         -2.454936    -1.285230     1.810301
H         -2.196769    -2.160432     1.613182
H         -1.954067    -0.746562     1.210287
O          0.873783     0.373195    -3.146906
H          0.360272     0.651094    -2.330817
H          0.607163    -0.517887    -3.260182
O         -1.303045     2.387289    -1.279544
H         -0.857699     1.743440    -0.735850
H         -1.694295     1.907056    -2.005066
O          0.564214     2.052023     2.184843
H          1.485460     2.275701     2.191810
H          0.459226     1.382168     1.506702

units ang
no_reorient
no_com
symmetry c1
}

set {
basis        aug-cc-pVTZ
scf_type     df
}

energy("mp2")
--------------------------------------------------------------------------

    Molecular point group: c1

    Geometry (in Angstrom), charge = -1, multiplicity = 1:

       Center              X                  Y                   Z               Mass
    ------------   -----------------  -----------------  -----------------  -----------------
         CL           0.000000000000     0.000000000000     0.000000000000    34.968852682000
         O            3.232758000000    -0.679143000000     0.998305000000    15.994914619570
         H            2.352463000000    -0.253635000000     0.918000000000     1.007825032230
         H            3.312977000000    -1.122656000000     1.834457000000     1.007825032230
         O           -2.454936000000    -1.285230000000     1.810301000000    15.994914619570
         H           -2.196769000000    -2.160432000000     1.613182000000     1.007825032230
         H           -1.954067000000    -0.746562000000     1.210287000000     1.007825032230
         O            0.873783000000     0.373195000000    -3.146906000000    15.994914619570
         H            0.360272000000     0.651094000000    -2.330817000000     1.007825032230
         H            0.607163000000    -0.517887000000    -3.260182000000     1.007825032230
         O           -1.303045000000     2.387289000000    -1.279544000000    15.994914619570
         H           -0.857699000000     1.743440000000    -0.735850000000     1.007825032230
         H           -1.694295000000     1.907056000000    -2.005066000000     1.007825032230
         O            0.564214000000     2.052023000000     2.184843000000    15.994914619570
         H            1.485460000000     2.275701000000     2.191810000000     1.007825032230
         H            0.459226000000     1.382168000000     1.506702000000     1.007825032230

  Charge       = -1
  Multiplicity = 1
  Basis Set: AUG-CC-PVTZ
    Blend: AUG-CC-PVTZ
  Basis Set: (AUG-CC-PVTZ AUX)
    Blend: AUG-CC-PVTZ-JKFIT

    Orbital Energies [Eh]
    ---------------------

    Doubly Occupied:

       1A   -104.599516     2A    -20.434046     3A    -20.423842
       4A    -20.420297     5A    -20.405739     6A    -20.404351
       7A    -10.325684     8A     -7.791760     9A     -7.791749
      10A     -7.791680    11A     -1.220371    12A     -1.215651
      13A     -1.206869    14A     -1.200058    15A     -1.198851
      16A     -0.850317    17A     -0.594772    18A     -0.586264
      19A     -0.571867    20A     -0.570381    21A     -0.565321
      22A     -0.451579    23A     -0.449331    24A     -0.444845
      25A     -0.432611    26A     -0.432010    27A     -0.378755
      28A     -0.371470    29A     -0.368488    30A     -0.355712
      31A     -0.354874    32A     -0.258415    33A     -0.255808
      34A     -0.255297

  @DF-RHF Final Energy:  -839.93117507705256

   => Energetics <=

    Nuclear Repulsion Energy =            304.2415625060785374
    One-Electron Energy =               -1778.3883071280690729
    Two-Electron Energy =                 634.2155695449380346
    Total Energy =                       -839.9311750770525578
 Dipole X            :        -17.2874239           17.3418711            0.0544473
 Dipole Y            :        -51.0861836           49.0258433           -2.0603403
 Dipole Z            :        -10.5346590           10.3528929           -0.1817661
 Magnitude           :                                                    2.0690591
  Basis Set: (AUG-CC-PVTZ AUX)
    Blend: AUG-CC-PVTZ-RI
	 Reference Energy          =    -839.9311750770525578 [Eh]
	 Singles Energy            =      -0.0000000000000000 [Eh]
	 Same-Spin Energy          =      -0.4166488747183435 [Eh]
	 Opposite-Spin Energy      =      -1.2716412424195644 [Eh]
	 Correlation Energy        =      -1.6882901171379079 [Eh]
	 Total Energy              =    -841.6194651941904112 [Eh]

	 ================> DF-SCS-MP2 Energies <==================
	-----------------------------------------------------------
	 SCS Same-Spin Scale       =       0.3333333333333333 [-]
	 SCS Opposite-Spin Scale   =       1.2000000000000000 [-]
	 SCS Same-Spin Energy      =      -0.1388829582394478 [Eh]
	 SCS Opposite-Spin Energy  =      -1.5259694909034773 [Eh]
	 SCS Correlation Energy    =      -1.6648524491429251 [Eh]
	 SCS Total Energy          =    -841.5960275261954848 [Eh]
	-----------------------------------------------------------

*** Psi4 exiting successfully. Buy a developer a beer!
