                               Psi4 1.8.2 release

  ==> Input File <==

--------------------------------------------------------------------------
MEMORY 60 GB

molecule dimer {
-1 1
Cl         0.000000     0.000000     0.000000
O          2.151842     1.930427    -1.340171
H          1.350694     1.443964    -1.092752
H          2.600730     2.059208    -0.557280
O         -0.845603    -1.954378    -2.400622
H         -0.576408    -1.381923    -1.685351
H         -0.891883    -2.856008    -2.074388
O         -2.695475     1.706640    -1.327933
H         -1.902725     1.294081    -0.924358
H         -2.569155     2.694294    -1.426749
O         -2.474764    -2.030755     0.960515
H         -3.239782    -1.595363     0.512300
H         -1.802427    -1.355761     0.798361
O         -1.355417     2.160929     1.846580
H         -0.713707     2.483561     2.470183
H         -1.000521     1.322098     1.546916

units ang
no_reorient
no_com
symmetry c1
}

set {
basis        aug-cc-pVTZ
scf_type     df
}

energy("mp2")
--------------------------------------------------------------------------

    Molecular point group: c1

    Geometry (in Angstrom), charge = -1, multiplicity = 1:

       Center              X                  Y                   Z               Mass
    ------------   -----------------  -----------------  -----------------  -----------------
         CL           0.000000000000     0.000000000000     0.000000000000    34.968852682000
         O            2.151842000000     1.930427000000    -1.340171000000    15.994914619570
         H            1.350694000000     1.443964000000    -1.092752000000     1.007825032230
         H            2.600730000000     2.059208000000    -0.557280000000     1.007825032230
         O           -0.845603000000    -1.954378000000    -2.400622000000    15.994914619570
         H           -0.576408000000    -1.381923000000    -1.685351000000     1.007825032230
         H           -0.891883000000    -2.856008000000    -2.074388000000     1.007825032230
         O           -2.695475000000     1.706640000000    -1.327933000000    15.994914619570
         H           -1.902725000000     1.294081000000    -0.924358000000     1.007825032230
         H           -2.569155000000     2.694294000000    -1.426749000000     1.007825032230
         O           -2.474764000000    -2.030755000000     0.960515000000    15.994914619570
         H           -3.239782000000    -1.595363000000     0.512300000000     1.007825032230
         H           -1.802427000000    -1.355761000000     0.798361000000     1.007825032230
         O           -1.355417000000     2.160929000000     1.846580000000    15.994914619570
         H           -0.713707000000     2.483561000000     2.470183000000     1.007825032230
         H           -1.000521000000     1.322098000000     1.546916000000     1.007825032230

  Charge       = -1
  Multiplicity = 1
  Basis Set: AUG-CC-PVTZ
    Blend: AUG-CC-PVTZ
  Basis Set: (AUG-CC-PVTZ AUX)
    Blend: AUG-CC-PVTZ-JKFIT

    Orbital Energies [Eh]
    ---------------------

    Doubly Occupied:

       1A   -104.599226     2A    -20.425331     3A    -20.422085
       4A    -20.420648     5A    -20.411195     6A    -20.406354
       7A    -10.324848     8A     -7.790949     9A     -7.790926
      10A     -7.790873    11A     -1.214411    12A     -1.213877
      13A     -1.202932    14A     -1.194865    15A     -1.185967
      16A     -0.846069    17A     -0.581950    18A     -0.580033
      19A     -0.571524    20A     -0.564472    21A     -0.552995
      22A     -0.452360    23A     -0.448498    24A     -0.444061
      25A     -0.425801    26A     -0.423303    27A     -0.371094
      28A     -0.367850    29A     -0.364041    30A     -0.358984
      31A     -0.353396    32A     -0.256945    33A     -0.255338
      34A     -0.253431

  @DF-RHF Final Energy:  -839.93322777043716

   => Energetics <=

    Nuclear Repulsion Energy =            305.2536588038225887
    One-Electron Energy =               -1780.6405050575986024
    Two-Electron Energy =                 635.4536184833388006
    Total Energy =                       -839.9332277704371563
 Dipole X            :         96.9990301          -95.4321520            1.5668781
 Dipole Y            :        -35.0688283           35.1697969            0.1009685
 Dipole Z            :         40.3686660          -38.7888321            1.5798338
 Magnitude           :                                                    2.2273698
  Basis Set: (AUG-CC-PVTZ AUX)
    Blend: AUG-CC-PVTZ-RI
	 Reference Energy          =    -839.9332277704371563 [Eh]
	 Singles Energy            =      -0.0000000000000000 [Eh]
	 Same-Spin Energy          =      -0.4162688626758568 [Eh]
	 Opposite-Spin Energy      =      -1.2723710058301236 [Eh]
	 Correlation Energy        =      -1.6886398685059805 [Eh]
	 Total Energy              =    -841.6218676389431721 [Eh]

	 ================> DF-SCS-MP2 Energies <==================
	-----------------------------------------------------------
	 SCS Same-Spin Scale       =       0.3333333333333333 [-]
	 SCS Opposite-Spin Scale   =       1.2000000000000000 [-]
	 SCS Same-Spin Energy      =      -0.1387562875586189 [Eh]
	 SCS Opposite-Spin Energy  =      -1.5268452069961482 [Eh]
	 SCS Correlation Energy    =      -1.6656014945547670 [Eh]
	 SCS Total Energy          =    -841.5988292649918776 [Eh]
	-----------------------------------------------------------

*** Psi4 exiting successfully. Buy a developer a beer!
