                               Psi4 1.8.2 release

  ==> Input File <==

--------------------------------------------------------------------------
MEMORY 60 GB

molecule dimer {
0 1
Gh(Cl)     0.000000     0.000000     0.000000
Gh(O)     -2.639249    -2.043355    -0.424183
Gh(H)     -1.808856    -1.471762    -0.429724
Gh(H)     -2.641062    -2.333764    -1.316977
Gh(O)      0.403629    -2.390235     2.477646
Gh(H)     -0.432481    -2.907837     2.347215
Gh(H)      0.412111    -1.672041     1.879690
Gh(O)     -0.714179     0.377929    -3.329396
Gh(H)     -1.198332    -0.133274    -2.628707
Gh(H)     -0.377953     1.213673    -2.933940
O         -2.634641     1.896873     0.738049
H         -1.800704     1.389428     0.628177
H         -2.528308     2.751205     0.372104
Gh(O)      0.783633    -2.645861    -1.980641
Gh(H)      0.893785    -2.060143    -2.776260
Gh(H)      0.469594    -2.121247    -1.272007

units ang
no_reorient
no_com
symmetry c1
}

set {
basis        aug-cc-pVTZ
scf_type     df
}

energy("mp2")
--------------------------------------------------------------------------

    Molecular point group: c1

    Geometry (in Angstrom), charge = 0, multiplicity = 1:

       Center              X                  Y                   Z               Mass
    ------------   -----------------  -----------------  -----------------  -----------------
      Gh(CL)          0.000000000000     0.000000000000     0.000000000000    34.968852682000
      Gh(O)          -2.639249000000    -2.043355000000    -0.424183000000    15.994914619570
      Gh(H)          -1.808856000000    -1.471762000000    -0.429724000000     1.007825032230
      Gh(H)          -2.641062000000    -2.333764000000    -1.316977000000     1.007825032230
      Gh(O)           0.403629000000    -2.390235000000     2.477646000000    15.994914619570
      Gh(H)          -0.432481000000    -2.907837000000     2.347215000000     1.007825032230
      Gh(H)           0.412111000000    -1.672041000000     1.879690000000     1.007825032230
      Gh(O)          -0.714179000000     0.377929000000    -3.329396000000    15.994914619570
      Gh(H)          -1.198332000000    -0.133274000000    -2.628707000000     1.007825032230
      Gh(H)          -0.377953000000     1.213673000000    -2.933940000000     1.007825032230
         O           -2.634641000000     1.896873000000     0.738049000000    15.994914619570
         H           -1.800704000000     1.389428000000     0.628177000000     1.007825032230
         H           -2.528308000000     2.751205000000     0.372104000000     1.007825032230
      Gh(O)           0.783633000000    -2.645861000000    -1.980641000000    15.994914619570
      Gh(H)           0.893785000000    -2.060143000000    -2.776260000000     1.007825032230
      Gh(H)           0.469594000000    -2.121247000000    -1.272007000000     1.007825032230

  Charge       = 0
  Multiplicity = 1
  Basis Set: AUG-CC-PVTZ
    Blend: AUG-CC-PVTZ
  Basis Set: (AUG-CC-PVTZ AUX)
    Blend: AUG-CC-PVTZ-JKFIT

    Orbital Energies [Eh]
    ---------------------

    Doubly Occupied:

       1A    -20.565137     2A     -1.349830     3A     -0.726113
       4A     -0.575004     5A     -0.508803

  @DF-RHF Final Energy:   -76.05912707843639

   => Energetics <=

    Nuclear Repulsion Energy =              9.1730137963132456
    One-Electron Energy =                -123.0145041820980651
    Two-Electron Energy =                  37.7823633073484402
    Total Energy =                        -76.0591270784363758
 Dipole X            :         48.6425877          -48.0106465            0.6319412
 Dipole Y            :        -36.2609211           36.5012261            0.2403050
 Dipole Z            :        -13.3699812           13.0479410           -0.3220402
 Magnitude           :                                                    0.7488699
  Basis Set: (AUG-CC-PVTZ AUX)
    Blend: AUG-CC-PVTZ-RI
	 Reference Energy          =     -76.0591270784363900 [Eh]
	 Singles Energy            =      -0.0000000000000000 [Eh]
	 Same-Spin Energy          =      -0.0683382798513537 [Eh]
	 Opposite-Spin Energy      =      -0.2155768792782458 [Eh]
	 Correlation Energy        =      -0.2839151591295995 [Eh]
	 Total Energy              =     -76.3430422375659958 [Eh]

	 ================> DF-SCS-MP2 Energies <==================
	-----------------------------------------------------------
	 SCS Same-Spin Scale       =       0.3333333333333333 [-]
	 SCS Opposite-Spin Scale   =       1.2000000000000000 [-]
	 SCS Same-Spin Energy      =      -0.0227794266171179 [Eh]
	 SCS Opposite-Spin Energy  =      -0.2586922551338950 [Eh]
	 SCS Correlation Energy    =      -0.2814716817510129 [Eh]
	 SCS Total Energy          =     -76.3405987601874045 [Eh]
	-----------------------------------------------------------

*** Psi4 exiting successfully. Buy a developer a beer!
