                               Psi4 1.8.2 release

  ==> Input File <==

--------------------------------------------------------------------------
MEMORY 60 GB

molecule dimer {
0 1
Gh(Cl)     0.000000     0.000000     0.000000
Gh(O)      1.897040     2.508472     0.302538
Gh(H)      1.357854     1.760957     0.096876
Gh(H)      1.821429     3.097428    -0.472561
Gh(O)      1.468839    -2.859802     0.731682
Gh(H)      0.736236    -2.305230     0.469404
Gh(H)      1.608881    -2.605813     1.655215
Gh(O)     -0.432860     1.202269     3.088280
Gh(H)     -0.095501     0.925593     2.231419
Gh(H)     -0.432197     2.174121     3.067087
Gh(O)     -2.583472    -1.827415     0.818109
Gh(H)     -3.021839    -1.220259     0.255210
Gh(H)     -1.746720    -1.415553     1.142264
O         -2.492733     2.189682    -0.627088
H         -2.444094     2.136340    -1.579013
H         -2.056599     1.404262    -0.404676

units ang
no_reorient
no_com
symmetry c1
}

set {
basis        aug-cc-pVTZ
scf_type     df
}

energy("mp2")
--------------------------------------------------------------------------

    Molecular point group: c1

    Geometry (in Angstrom), charge = 0, multiplicity = 1:

       Center              X                  Y                   Z               Mass
    ------------   -----------------  -----------------  -----------------  -----------------
      Gh(CL)          0.000000000000     0.000000000000     0.000000000000    34.968852682000
      Gh(O)           1.897040000000     2.508472000000     0.302538000000    15.994914619570
      Gh(H)           1.357854000000     1.760957000000     0.096876000000     1.007825032230
      Gh(H)           1.821429000000     3.097428000000    -0.472561000000     1.007825032230
      Gh(O)           1.468839000000    -2.859802000000     0.731682000000    15.994914619570
      Gh(H)           0.736236000000    -2.305230000000     0.469404000000     1.007825032230
      Gh(H)           1.608881000000    -2.605813000000     1.655215000000     1.007825032230
      Gh(O)          -0.432860000000     1.202269000000     3.088280000000    15.994914619570
      Gh(H)          -0.095501000000     0.925593000000     2.231419000000     1.007825032230
      Gh(H)          -0.432197000000     2.174121000000     3.067087000000     1.007825032230
      Gh(O)          -2.583472000000    -1.827415000000     0.818109000000    15.994914619570
      Gh(H)          -3.021839000000    -1.220259000000     0.255210000000     1.007825032230
      Gh(H)          -1.746720000000    -1.415553000000     1.142264000000     1.007825032230
         O           -2.492733000000     2.189682000000    -0.627088000000    15.994914619570
         H           -2.444094000000     2.136340000000    -1.579013000000     1.007825032230
         H           -2.056599000000     1.404262000000    -0.404676000000     1.007825032230

  Charge       = 0
  Multiplicity = 1
  Basis Set: AUG-CC-PVTZ
    Blend: AUG-CC-PVTZ
  Basis Set: (AUG-CC-PVTZ AUX)
    Blend: AUG-CC-PVTZ-JKFIT

    Orbital Energies [Eh]
    ---------------------

    Doubly Occupied:

       1A    -20.565942     2A     -1.366581     3A     -0.717352
       4A     -0.597708     5A     -0.513178

  @DF-RHF Final Energy:   -76.05957393157311

   => Energetics <=

    Nuclear Repulsion Energy =              9.3768767012413754
    One-Electron Energy =                -123.3513746789301280
    Two-Electron Energy =                  37.9149240461156438
    Total Energy =                        -76.0595739315731123
 Dipole X            :         46.5128547          -46.1897385            0.3231161
 Dipole Y            :        -40.3537887           39.7939624           -0.5598264
 Dipole Z            :         12.7497305          -13.2288255           -0.4790950
 Magnitude           :                                                    0.8045755
  Basis Set: (AUG-CC-PVTZ AUX)
    Blend: AUG-CC-PVTZ-RI
	 Reference Energy          =     -76.0595739315731123 [Eh]
	 Singles Energy            =      -0.0000000000000000 [Eh]
	 Same-Spin Energy          =      -0.0682009334275630 [Eh]
	 Opposite-Spin Energy      =      -0.2151077071841392 [Eh]
	 Correlation Energy        =      -0.2833086406117022 [Eh]
	 Total Energy              =     -76.3428825721848199 [Eh]

	 ================> DF-SCS-MP2 Energies <==================
	-----------------------------------------------------------
	 SCS Same-Spin Scale       =       0.3333333333333333 [-]
	 SCS Opposite-Spin Scale   =       1.2000000000000000 [-]
	 SCS Same-Spin Energy      =      -0.0227336444758543 [Eh]
	 SCS Opposite-Spin Energy  =      -0.2581292486209670 [Eh]
	 SCS Correlation Energy    =      -0.2808628930968214 [Eh]
	 SCS Total Energy          =     -76.3404368246699363 [Eh]
	-----------------------------------------------------------

*** Psi4 exiting successfully. Buy a developer a beer!
