                               Psi4 1.8.2 release

  ==> Input File <==

--------------------------------------------------------------------------
MEMORY 60 GB

molecule dimer {
0 1
Gh(Cl)     0.000000     0.000000     0.000000
Gh(O)     -0.280808    -3.080814    -0.219496
Gh(H)     -0.189651    -2.233915    -0.698426
Gh(H)     -1.211460    -3.317950    -0.131329
Gh(O)     -2.481935     1.642067    -1.399642
Gh(H)     -3.385130     1.319635    -1.209210
Gh(H)     -2.045854     1.470675    -0.571808
Gh(O)      3.200063    -0.253611    -0.094584
Gh(H)      2.299885    -0.264054     0.155672
Gh(H)      3.393302     0.468831    -0.634648
Gh(O)     -0.386088     0.401159     3.233560
Gh(H)     -0.468246     0.509841     2.292034
Gh(H)      0.523611     0.081762     3.396811
O          1.511570     0.499460    -2.904062
H          2.403978     0.871797    -2.676264
H          0.955551     0.438546    -2.110677

units ang
no_reorient
no_com
symmetry c1
}

set {
basis        aug-cc-pVTZ
scf_type     df
}

energy("mp2")
--------------------------------------------------------------------------

    Molecular point group: c1

    Geometry (in Angstrom), charge = 0, multiplicity = 1:

       Center              X                  Y                   Z               Mass
    ------------   -----------------  -----------------  -----------------  -----------------
      Gh(CL)          0.000000000000     0.000000000000     0.000000000000    34.968852682000
      Gh(O)          -0.280808000000    -3.080814000000    -0.219496000000    15.994914619570
      Gh(H)          -0.189651000000    -2.233915000000    -0.698426000000     1.007825032230
      Gh(H)          -1.211460000000    -3.317950000000    -0.131329000000     1.007825032230
      Gh(O)          -2.481935000000     1.642067000000    -1.399642000000    15.994914619570
      Gh(H)          -3.385130000000     1.319635000000    -1.209210000000     1.007825032230
      Gh(H)          -2.045854000000     1.470675000000    -0.571808000000     1.007825032230
      Gh(O)           3.200063000000    -0.253611000000    -0.094584000000    15.994914619570
      Gh(H)           2.299885000000    -0.264054000000     0.155672000000     1.007825032230
      Gh(H)           3.393302000000     0.468831000000    -0.634648000000     1.007825032230
      Gh(O)          -0.386088000000     0.401159000000     3.233560000000    15.994914619570
      Gh(H)          -0.468246000000     0.509841000000     2.292034000000     1.007825032230
      Gh(H)           0.523611000000     0.081762000000     3.396811000000     1.007825032230
         O            1.511570000000     0.499460000000    -2.904062000000    15.994914619570
         H            2.403978000000     0.871797000000    -2.676264000000     1.007825032230
         H            0.955551000000     0.438546000000    -2.110677000000     1.007825032230

  Charge       = 0
  Multiplicity = 1
  Basis Set: AUG-CC-PVTZ
    Blend: AUG-CC-PVTZ
  Basis Set: (AUG-CC-PVTZ AUX)
    Blend: AUG-CC-PVTZ-JKFIT

    Orbital Energies [Eh]
    ---------------------

    Doubly Occupied:

       1A    -20.568537     2A     -1.337169     3A     -0.715031
       4A     -0.568562     5A     -0.506453

  @DF-RHF Final Energy:   -76.05688409580880

   => Energetics <=

    Nuclear Repulsion Energy =              8.9502557630498458
    One-Electron Energy =                -122.6227725065443934
    Two-Electron Energy =                  37.6156326476857572
    Total Energy =                        -76.0568840958087975
 Dipole X            :        -28.9787687           29.2002163            0.2214476
 Dipole Y            :         -9.8197133           10.0269303            0.2072170
 Dipole Z            :         53.6318009          -52.9490621            0.6827388
 Magnitude           :                                                    0.7470677
  Basis Set: (AUG-CC-PVTZ AUX)
    Blend: AUG-CC-PVTZ-RI
	 Reference Energy          =     -76.0568840958087975 [Eh]
	 Singles Energy            =      -0.0000000000000000 [Eh]
	 Same-Spin Energy          =      -0.0687471299317230 [Eh]
	 Opposite-Spin Energy      =      -0.2169415031523479 [Eh]
	 Correlation Energy        =      -0.2856886330840709 [Eh]
	 Total Energy              =     -76.3425727288928755 [Eh]

	 ================> DF-SCS-MP2 Energies <==================
	-----------------------------------------------------------
	 SCS Same-Spin Scale       =       0.3333333333333333 [-]
	 SCS Opposite-Spin Scale   =       1.2000000000000000 [-]
	 SCS Same-Spin Energy      =      -0.0229157099772410 [Eh]
	 SCS Opposite-Spin Energy  =      -0.2603298037828175 [Eh]
	 SCS Correlation Energy    =      -0.2832455137600585 [Eh]
	 SCS Total Energy          =     -76.3401296095688622 [Eh]
	-----------------------------------------------------------

*** Psi4 exiting successfully. Buy a developer a beer!
