                               Psi4 1.8.2 release

  ==> Input File <==

--------------------------------------------------------------------------
MEMORY 60 GB

molecule dimer {
0 1
Gh(Cl)     0.000000     0.000000     0.000000
Gh(O)     -2.452431     1.179516    -1.383822
Gh(H)     -1.837991     0.632158    -0.895002
Gh(H)     -2.120427     2.027958    -1.619128
O         -1.167744    -2.919915    -0.939325
H         -1.764740    -2.860149    -0.192311
H         -0.702783    -2.092863    -0.831785
Gh(O)      1.116976     2.890657    -0.274401
Gh(H)      1.074806     1.920461    -0.397918
Gh(H)      1.908259     3.184212    -0.701728
Gh(O)      1.222605    -0.362937    -3.063516
Gh(H)      2.064077    -0.758243    -2.722188
Gh(H)      0.654956    -0.035259    -2.271002

units ang
no_reorient
no_com
symmetry c1
}

set {
basis        aug-cc-pVTZ
scf_type     df
}

energy("mp2")
--------------------------------------------------------------------------

    Molecular point group: c1

    Geometry (in Angstrom), charge = 0, multiplicity = 1:

       Center              X                  Y                   Z               Mass
    ------------   -----------------  -----------------  -----------------  -----------------
      Gh(CL)          0.000000000000     0.000000000000     0.000000000000    34.968852682000
      Gh(O)          -2.452431000000     1.179516000000    -1.383822000000    15.994914619570
      Gh(H)          -1.837991000000     0.632158000000    -0.895002000000     1.007825032230
      Gh(H)          -2.120427000000     2.027958000000    -1.619128000000     1.007825032230
         O           -1.167744000000    -2.919915000000    -0.939325000000    15.994914619570
         H           -1.764740000000    -2.860149000000    -0.192311000000     1.007825032230
         H           -0.702783000000    -2.092863000000    -0.831785000000     1.007825032230
      Gh(O)           1.116976000000     2.890657000000    -0.274401000000    15.994914619570
      Gh(H)           1.074806000000     1.920461000000    -0.397918000000     1.007825032230
      Gh(H)           1.908259000000     3.184212000000    -0.701728000000     1.007825032230
      Gh(O)           1.222605000000    -0.362937000000    -3.063516000000    15.994914619570
      Gh(H)           2.064077000000    -0.758243000000    -2.722188000000     1.007825032230
      Gh(H)           0.654956000000    -0.035259000000    -2.271002000000     1.007825032230

  Charge       = 0
  Multiplicity = 1
  Basis Set: AUG-CC-PVTZ
    Blend: AUG-CC-PVTZ
  Basis Set: (AUG-CC-PVTZ AUX)
    Blend: AUG-CC-PVTZ-JKFIT

    Orbital Energies [Eh]
    ---------------------

    Doubly Occupied:

       1A    -20.569222     2A     -1.357837     3A     -0.707688
       4A     -0.595360     5A     -0.511897

  @DF-RHF Final Energy:   -76.05960771375820

   => Energetics <=

    Nuclear Repulsion Energy =              9.2149327338365090
    One-Electron Energy =                -123.0650715777126578
    Two-Electron Energy =                  37.7905311301179410
    Total Energy =                        -76.0596077137582114
 Dipole X            :         22.2308167          -22.3166734           -0.0858567
 Dipole Y            :         54.0848384          -53.5025535            0.5822849
 Dipole Z            :         16.6960970          -16.1357969            0.5603001
 Magnitude           :                                                    0.8126274
  Basis Set: (AUG-CC-PVTZ AUX)
    Blend: AUG-CC-PVTZ-RI
	 Reference Energy          =     -76.0596077137581972 [Eh]
	 Singles Energy            =      -0.0000000000000000 [Eh]
	 Same-Spin Energy          =      -0.0684997881048489 [Eh]
	 Opposite-Spin Energy      =      -0.2160659848836995 [Eh]
	 Correlation Energy        =      -0.2845657729885484 [Eh]
	 Total Energy              =     -76.3441734867467403 [Eh]

	 ================> DF-SCS-MP2 Energies <==================
	-----------------------------------------------------------
	 SCS Same-Spin Scale       =       0.3333333333333333 [-]
	 SCS Opposite-Spin Scale   =       1.2000000000000000 [-]
	 SCS Same-Spin Energy      =      -0.0228332627016163 [Eh]
	 SCS Opposite-Spin Energy  =      -0.2592791818604394 [Eh]
	 SCS Correlation Energy    =      -0.2821124445620556 [Eh]
	 SCS Total Energy          =     -76.3417201583202569 [Eh]
	-----------------------------------------------------------

*** Psi4 exiting successfully. Buy a developer a beer!
