                               Psi4 1.8.2 release

  ==> Input File <==

--------------------------------------------------------------------------
MEMORY 60 GB

molecule dimer {
0 1
Gh(Cl)     0.000000     0.000000     0.000000
O          3.015981     0.151241    -1.457305
H          2.845971    -0.567435    -2.049500
H          2.230828     0.149298    -0.843213
Gh(O)     -2.797673    -0.644207    -1.757639
Gh(H)     -2.491546    -1.380346    -2.302014
Gh(H)     -2.015250    -0.495737    -1.259297
Gh(O)     -0.715759     3.330850    -0.769336
Gh(H)      0.052831     3.505661    -0.203645
Gh(H)     -0.556393     2.470762    -1.223557
Gh(O)      0.652205     0.435816    -3.215109
Gh(H)      1.085218     1.200515    -2.995505
Gh(H)      0.387193     0.144769    -2.312401
Gh(O)      1.503331     1.130459     2.879779
Gh(H)      1.109970     0.660961     2.083685
Gh(H)      1.604155     0.401707     3.533176
Gh(O)      0.517922    -3.056007    -0.636675
Gh(H)     -0.210470    -3.438063    -1.173663
Gh(H)      0.434987    -2.108656    -0.643081

units ang
no_reorient
no_com
symmetry c1
}

set {
basis        aug-cc-pVTZ
scf_type     df
}

energy("mp2")
--------------------------------------------------------------------------

    Molecular point group: c1

    Geometry (in Angstrom), charge = 0, multiplicity = 1:

       Center              X                  Y                   Z               Mass
    ------------   -----------------  -----------------  -----------------  -----------------
      Gh(CL)          0.000000000000     0.000000000000     0.000000000000    34.968852682000
         O            3.015981000000     0.151241000000    -1.457305000000    15.994914619570
         H            2.845971000000    -0.567435000000    -2.049500000000     1.007825032230
         H            2.230828000000     0.149298000000    -0.843213000000     1.007825032230
      Gh(O)          -2.797673000000    -0.644207000000    -1.757639000000    15.994914619570
      Gh(H)          -2.491546000000    -1.380346000000    -2.302014000000     1.007825032230
      Gh(H)          -2.015250000000    -0.495737000000    -1.259297000000     1.007825032230
      Gh(O)          -0.715759000000     3.330850000000    -0.769336000000    15.994914619570
      Gh(H)           0.052831000000     3.505661000000    -0.203645000000     1.007825032230
      Gh(H)          -0.556393000000     2.470762000000    -1.223557000000     1.007825032230
      Gh(O)           0.652205000000     0.435816000000    -3.215109000000    15.994914619570
      Gh(H)           1.085218000000     1.200515000000    -2.995505000000     1.007825032230
      Gh(H)           0.387193000000     0.144769000000    -2.312401000000     1.007825032230
      Gh(O)           1.503331000000     1.130459000000     2.879779000000    15.994914619570
      Gh(H)           1.109970000000     0.660961000000     2.083685000000     1.007825032230
      Gh(H)           1.604155000000     0.401707000000     3.533176000000     1.007825032230
      Gh(O)           0.517922000000    -3.056007000000    -0.636675000000    15.994914619570
      Gh(H)          -0.210470000000    -3.438063000000    -1.173663000000     1.007825032230
      Gh(H)           0.434987000000    -2.108656000000    -0.643081000000     1.007825032230

  Charge       = 0
  Multiplicity = 1
  Basis Set: AUG-CC-PVTZ
    Blend: AUG-CC-PVTZ
  Basis Set: (AUG-CC-PVTZ AUX)
    Blend: AUG-CC-PVTZ-JKFIT

    Orbital Energies [Eh]
    ---------------------

    Doubly Occupied:

       1A    -20.569717     2A     -1.347095     3A     -0.709217
       4A     -0.582803     5A     -0.509352

  @DF-RHF Final Energy:   -76.05819090107565

   => Energetics <=

    Nuclear Repulsion Energy =              9.0646077563825092
    One-Electron Energy =                -122.8092269883095895
    Two-Electron Energy =                  37.6864283308514132
    Total Energy =                        -76.0581909010756618
 Dipole X            :        -55.8143047           55.1887844           -0.6255203
 Dipole Y            :         -1.9748447            1.4962681           -0.4785765
 Dipole Z            :         27.5053485          -27.4976940            0.0076545
 Magnitude           :                                                    0.7876355
  Basis Set: (AUG-CC-PVTZ AUX)
    Blend: AUG-CC-PVTZ-RI
	 Reference Energy          =     -76.0581909010756476 [Eh]
	 Singles Energy            =      -0.0000000000000000 [Eh]
	 Same-Spin Energy          =      -0.0686592778193559 [Eh]
	 Opposite-Spin Energy      =      -0.2167550338662555 [Eh]
	 Correlation Energy        =      -0.2854143116856114 [Eh]
	 Total Energy              =     -76.3436052127612612 [Eh]

	 ================> DF-SCS-MP2 Energies <==================
	-----------------------------------------------------------
	 SCS Same-Spin Scale       =       0.3333333333333333 [-]
	 SCS Opposite-Spin Scale   =       1.2000000000000000 [-]
	 SCS Same-Spin Energy      =      -0.0228864259397853 [Eh]
	 SCS Opposite-Spin Energy  =      -0.2601060406395066 [Eh]
	 SCS Correlation Energy    =      -0.2829924665792919 [Eh]
	 SCS Total Energy          =     -76.3411833676549350 [Eh]
	-----------------------------------------------------------

*** Psi4 exiting successfully. Buy a developer a beer!
