                               Psi4 1.8.2 release

  ==> Input File <==

--------------------------------------------------------------------------
MEMORY 60 GB

molecule dimer {
0 1
Gh(Cl)     0.000000     0.000000     0.000000
Gh(O)     -1.257237     2.633802     1.643676
Gh(H)     -0.472322     3.199341     1.601593
Gh(H)     -0.884215     1.758953     1.297836
O         -0.959567     0.169390    -3.287997
H         -0.989043     1.102120    -3.350897
H         -0.834577    -0.042888    -2.352496
Gh(O)     -1.511354    -2.001931     2.031514
Gh(H)     -1.523814    -2.958892     1.902628
Gh(H)     -1.166046    -1.643150     1.181507
Gh(O)      1.480813     2.833599    -1.290836
Gh(H)      1.309795     1.891885    -1.090443
Gh(H)      1.759092     2.761863    -2.211318
Gh(O)     -3.275195    -0.122822    -0.472046
Gh(H)     -2.339256    -0.062478    -0.530134
Gh(H)     -3.682454     0.715169    -0.738294
Gh(O)      1.065993    -3.039273    -1.176898
Gh(H)      1.143900    -3.393441    -0.306845
Gh(H)      0.193610    -2.655795    -1.030520

units ang
no_reorient
no_com
symmetry c1
}

set {
basis        aug-cc-pVTZ
scf_type     df
}

energy("mp2")
--------------------------------------------------------------------------

    Molecular point group: c1

    Geometry (in Angstrom), charge = 0, multiplicity = 1:

       Center              X                  Y                   Z               Mass
    ------------   -----------------  -----------------  -----------------  -----------------
      Gh(CL)          0.000000000000     0.000000000000     0.000000000000    34.968852682000
      Gh(O)          -1.257237000000     2.633802000000     1.643676000000    15.994914619570
      Gh(H)          -0.472322000000     3.199341000000     1.601593000000     1.007825032230
      Gh(H)          -0.884215000000     1.758953000000     1.297836000000     1.007825032230
         O           -0.959567000000     0.169390000000    -3.287997000000    15.994914619570
         H           -0.989043000000     1.102120000000    -3.350897000000     1.007825032230
         H           -0.834577000000    -0.042888000000    -2.352496000000     1.007825032230
      Gh(O)          -1.511354000000    -2.001931000000     2.031514000000    15.994914619570
      Gh(H)          -1.523814000000    -2.958892000000     1.902628000000     1.007825032230
      Gh(H)          -1.166046000000    -1.643150000000     1.181507000000     1.007825032230
      Gh(O)           1.480813000000     2.833599000000    -1.290836000000    15.994914619570
      Gh(H)           1.309795000000     1.891885000000    -1.090443000000     1.007825032230
      Gh(H)           1.759092000000     2.761863000000    -2.211318000000     1.007825032230
      Gh(O)          -3.275195000000    -0.122822000000    -0.472046000000    15.994914619570
      Gh(H)          -2.339256000000    -0.062478000000    -0.530134000000     1.007825032230
      Gh(H)          -3.682454000000     0.715169000000    -0.738294000000     1.007825032230
      Gh(O)           1.065993000000    -3.039273000000    -1.176898000000    15.994914619570
      Gh(H)           1.143900000000    -3.393441000000    -0.306845000000     1.007825032230
      Gh(H)           0.193610000000    -2.655795000000    -1.030520000000     1.007825032230

  Charge       = 0
  Multiplicity = 1
  Basis Set: AUG-CC-PVTZ
    Blend: AUG-CC-PVTZ
  Basis Set: (AUG-CC-PVTZ AUX)
    Blend: AUG-CC-PVTZ-JKFIT

    Orbital Energies [Eh]
    ---------------------

    Doubly Occupied:

       1A    -20.565038     2A     -1.355260     3A     -0.725409
       4A     -0.581582     5A     -0.510203

  @DF-RHF Final Energy:   -76.06049155725294

   => Energetics <=

    Nuclear Repulsion Energy =              9.2488682532701212
    One-Electron Energy =                -123.1437323943223277
    Two-Electron Energy =                  37.8343725837992650
    Total Energy =                        -76.0604915572529450
 Dipole X            :         18.0164784          -17.9526930            0.0637854
 Dipole Y            :         -4.0743074            4.5624641            0.4881567
 Dipole Z            :         61.0687835          -60.4851614            0.5836221
 Magnitude           :                                                    0.7635314
  Basis Set: (AUG-CC-PVTZ AUX)
    Blend: AUG-CC-PVTZ-RI
	 Reference Energy          =     -76.0604915572529450 [Eh]
	 Singles Energy            =      -0.0000000000000000 [Eh]
	 Same-Spin Energy          =      -0.0682519602775497 [Eh]
	 Opposite-Spin Energy      =      -0.2154614289860263 [Eh]
	 Correlation Energy        =      -0.2837133892635760 [Eh]
	 Total Energy              =     -76.3442049465165269 [Eh]

	 ================> DF-SCS-MP2 Energies <==================
	-----------------------------------------------------------
	 SCS Same-Spin Scale       =       0.3333333333333333 [-]
	 SCS Opposite-Spin Scale   =       1.2000000000000000 [-]
	 SCS Same-Spin Energy      =      -0.0227506534258499 [Eh]
	 SCS Opposite-Spin Energy  =      -0.2585537147832315 [Eh]
	 SCS Correlation Energy    =      -0.2813043682090814 [Eh]
	 SCS Total Energy          =     -76.3417959254620229 [Eh]
	-----------------------------------------------------------

*** Psi4 exiting successfully. Buy a developer a beer!
