                               Psi4 1.8.2 release

  ==> Input File <==

--------------------------------------------------------------------------
MEMORY 60 GB

molecule dimer {
0 1
Gh(Cl)     0.000000     0.000000     0.000000
Gh(O)      2.141828    -1.926721     1.172770
Gh(H)      2.506845    -2.704525     0.813382
Gh(H)      1.387579    -1.666552     0.663666
Gh(O)     -1.667403    -0.134156    -2.964265
Gh(H)     -1.403386     0.216697    -2.118502
Gh(H)     -1.930230     0.658899    -3.498868
Gh(O)      1.685848     1.175691    -2.172477
Gh(H)      2.426841     0.570382    -2.393280
Gh(H)      1.275175     0.748865    -1.444869
Gh(O)     -2.150305    -0.295435     2.705843
Gh(H)     -1.521020    -0.158825     2.012721
Gh(H)     -1.597698    -0.371338     3.511263
O         -2.367779    -2.039496    -0.941391
H         -1.594146    -1.458780    -0.729704
H         -2.441774    -2.608355    -0.193390

units ang
no_reorient
no_com
symmetry c1
}

set {
basis        aug-cc-pVTZ
scf_type     df
}

energy("mp2")
--------------------------------------------------------------------------

    Molecular point group: c1

    Geometry (in Angstrom), charge = 0, multiplicity = 1:

       Center              X                  Y                   Z               Mass
    ------------   -----------------  -----------------  -----------------  -----------------
      Gh(CL)          0.000000000000     0.000000000000     0.000000000000    34.968852682000
      Gh(O)           2.141828000000    -1.926721000000     1.172770000000    15.994914619570
      Gh(H)           2.506845000000    -2.704525000000     0.813382000000     1.007825032230
      Gh(H)           1.387579000000    -1.666552000000     0.663666000000     1.007825032230
      Gh(O)          -1.667403000000    -0.134156000000    -2.964265000000    15.994914619570
      Gh(H)          -1.403386000000     0.216697000000    -2.118502000000     1.007825032230
      Gh(H)          -1.930230000000     0.658899000000    -3.498868000000     1.007825032230
      Gh(O)           1.685848000000     1.175691000000    -2.172477000000    15.994914619570
      Gh(H)           2.426841000000     0.570382000000    -2.393280000000     1.007825032230
      Gh(H)           1.275175000000     0.748865000000    -1.444869000000     1.007825032230
      Gh(O)          -2.150305000000    -0.295435000000     2.705843000000    15.994914619570
      Gh(H)          -1.521020000000    -0.158825000000     2.012721000000     1.007825032230
      Gh(H)          -1.597698000000    -0.371338000000     3.511263000000     1.007825032230
         O           -2.367779000000    -2.039496000000    -0.941391000000    15.994914619570
         H           -1.594146000000    -1.458780000000    -0.729704000000     1.007825032230
         H           -2.441774000000    -2.608355000000    -0.193390000000     1.007825032230

  Charge       = 0
  Multiplicity = 1
  Basis Set: AUG-CC-PVTZ
    Blend: AUG-CC-PVTZ
  Basis Set: (AUG-CC-PVTZ AUX)
    Blend: AUG-CC-PVTZ-JKFIT

    Orbital Energies [Eh]
    ---------------------

    Doubly Occupied:

       1A    -20.568768     2A     -1.349585     3A     -0.712404
       4A     -0.583506     5A     -0.509711

  @DF-RHF Final Energy:   -76.05883359163856

   => Energetics <=

    Nuclear Repulsion Energy =              9.1130437481468594
    One-Electron Energy =                -122.8958032897660786
    Two-Electron Energy =                  37.7239259499806536
    Total Energy =                        -76.0588335916385603
 Dipole X            :         43.8806668          -43.4224141            0.4582527
 Dipole Y            :         38.5201771          -38.5184823            0.0016949
 Dipole Z            :         16.6136619          -15.9761642            0.6374977
 Magnitude           :                                                    0.7851126
  Basis Set: (AUG-CC-PVTZ AUX)
    Blend: AUG-CC-PVTZ-RI
	 Reference Energy          =     -76.0588335916385603 [Eh]
	 Singles Energy            =      -0.0000000000000000 [Eh]
	 Same-Spin Energy          =      -0.0685596487606030 [Eh]
	 Opposite-Spin Energy      =      -0.2164317198552747 [Eh]
	 Correlation Energy        =      -0.2849913686158776 [Eh]
	 Total Energy              =     -76.3438249602544374 [Eh]

	 ================> DF-SCS-MP2 Energies <==================
	-----------------------------------------------------------
	 SCS Same-Spin Scale       =       0.3333333333333333 [-]
	 SCS Opposite-Spin Scale   =       1.2000000000000000 [-]
	 SCS Same-Spin Energy      =      -0.0228532162535343 [Eh]
	 SCS Opposite-Spin Energy  =      -0.2597180638263296 [Eh]
	 SCS Correlation Energy    =      -0.2825712800798639 [Eh]
	 SCS Total Energy          =     -76.3414048717184244 [Eh]
	-----------------------------------------------------------

*** Psi4 exiting successfully. Buy a developer a beer!
