                               Psi4 1.8.2 release

  ==> Input File <==

--------------------------------------------------------------------------
MEMORY 60 GB

molecule dimer {
0 1
Gh(Cl)     0.000000     0.000000     0.000000
O          2.229770     1.789189     1.621983
H          1.631070     1.514205     0.937078
H          3.095321     1.957227     1.201820
Gh(O)     -0.849762    -1.714934    -2.358862
Gh(H)     -0.445959    -1.021397    -2.934249
Gh(H)     -1.069056    -1.384646    -1.506905
Gh(O)     -0.610764     3.422499    -0.224439
Gh(H)     -0.451227     2.515491    -0.613530
Gh(H)      0.104167     4.032667    -0.497019
Gh(O)     -3.173880     0.131157     1.037539
Gh(H)     -2.298199     0.065462     0.589628
Gh(H)     -2.996396     0.503443     1.848118

units ang
no_reorient
no_com
symmetry c1
}

set {
basis        aug-cc-pVTZ
scf_type     df
}

energy("mp2")
--------------------------------------------------------------------------

    Molecular point group: c1

    Geometry (in Angstrom), charge = 0, multiplicity = 1:

       Center              X                  Y                   Z               Mass
    ------------   -----------------  -----------------  -----------------  -----------------
      Gh(CL)          0.000000000000     0.000000000000     0.000000000000    34.968852682000
         O            2.229770000000     1.789189000000     1.621983000000    15.994914619570
         H            1.631070000000     1.514205000000     0.937078000000     1.007825032230
         H            3.095321000000     1.957227000000     1.201820000000     1.007825032230
      Gh(O)          -0.849762000000    -1.714934000000    -2.358862000000    15.994914619570
      Gh(H)          -0.445959000000    -1.021397000000    -2.934249000000     1.007825032230
      Gh(H)          -1.069056000000    -1.384646000000    -1.506905000000     1.007825032230
      Gh(O)          -0.610764000000     3.422499000000    -0.224439000000    15.994914619570
      Gh(H)          -0.451227000000     2.515491000000    -0.613530000000     1.007825032230
      Gh(H)           0.104167000000     4.032667000000    -0.497019000000     1.007825032230
      Gh(O)          -3.173880000000     0.131157000000     1.037539000000    15.994914619570
      Gh(H)          -2.298199000000     0.065462000000     0.589628000000     1.007825032230
      Gh(H)          -2.996396000000     0.503443000000     1.848118000000     1.007825032230

  Charge       = 0
  Multiplicity = 1
  Basis Set: AUG-CC-PVTZ
    Blend: AUG-CC-PVTZ
  Basis Set: (AUG-CC-PVTZ AUX)
    Blend: AUG-CC-PVTZ-JKFIT

    Orbital Energies [Eh]
    ---------------------

    Doubly Occupied:

       1A    -20.566939     2A     -1.348512     3A     -0.719740
       4A     -0.578138     5A     -0.509002

  @DF-RHF Final Energy:   -76.05977790917493

   => Energetics <=

    Nuclear Repulsion Energy =              9.1298522379282261
    One-Electron Energy =                -122.9345959937986947
    Two-Electron Energy =                  37.7449658466955569
    Total Energy =                        -76.0597779091749260
 Dipole X            :        -42.4665259           42.6408215            0.1742956
 Dipole Y            :        -33.6814819           33.6086733           -0.0728086
 Dipole Z            :        -29.3026629           28.5627606           -0.7399023
 Magnitude           :                                                    0.7636331
  Basis Set: (AUG-CC-PVTZ AUX)
    Blend: AUG-CC-PVTZ-RI
	 Reference Energy          =     -76.0597779091749260 [Eh]
	 Singles Energy            =      -0.0000000000000000 [Eh]
	 Same-Spin Energy          =      -0.0684417192786819 [Eh]
	 Opposite-Spin Energy      =      -0.2158248340455680 [Eh]
	 Correlation Energy        =      -0.2842665533242499 [Eh]
	 Total Energy              =     -76.3440444624991699 [Eh]

	 ================> DF-SCS-MP2 Energies <==================
	-----------------------------------------------------------
	 SCS Same-Spin Scale       =       0.3333333333333333 [-]
	 SCS Opposite-Spin Scale   =       1.2000000000000000 [-]
	 SCS Same-Spin Energy      =      -0.0228139064262273 [Eh]
	 SCS Opposite-Spin Energy  =      -0.2589898008546817 [Eh]
	 SCS Correlation Energy    =      -0.2818037072809089 [Eh]
	 SCS Total Energy          =     -76.3415816164558407 [Eh]
	-----------------------------------------------------------

*** Psi4 exiting successfully. Buy a developer a beer!
