                               Psi4 1.8.2 release

  ==> Input File <==

--------------------------------------------------------------------------
MEMORY 60 GB

molecule dimer {
-1 1
Cl         0.000000     0.000000     0.000000
Gh(O)     -2.944867    -0.564899    -1.779154
Gh(H)     -3.524928     0.182418    -1.593240
Gh(H)     -2.264671    -0.498491    -1.118838
Gh(O)     -2.727221     1.269441     1.357269
Gh(H)     -2.050786     0.651012     1.147961
Gh(H)     -3.477837     0.948943     0.929990
Gh(O)      2.085863     1.943286     1.689448
Gh(H)      2.901729     2.319648     1.384240
Gh(H)      1.848548     1.201502     1.097555
Gh(O)      0.575664    -2.444183     2.291224
Gh(H)      0.275698    -1.738441     1.676952
Gh(H)     -0.166814    -2.631813     2.907550
Gh(O)     -0.427516     3.289022     1.005525
Gh(H)     -0.401676     2.496842     0.384779
Gh(H)      0.441407     3.173898     1.412293

units ang
no_reorient
no_com
symmetry c1
}

set {
basis        aug-cc-pVTZ
scf_type     df
}

energy("mp2")
--------------------------------------------------------------------------

    Molecular point group: c1

    Geometry (in Angstrom), charge = -1, multiplicity = 1:

       Center              X                  Y                   Z               Mass
    ------------   -----------------  -----------------  -----------------  -----------------
         CL           0.000000000000     0.000000000000     0.000000000000    34.968852682000
      Gh(O)          -2.944867000000    -0.564899000000    -1.779154000000    15.994914619570
      Gh(H)          -3.524928000000     0.182418000000    -1.593240000000     1.007825032230
      Gh(H)          -2.264671000000    -0.498491000000    -1.118838000000     1.007825032230
      Gh(O)          -2.727221000000     1.269441000000     1.357269000000    15.994914619570
      Gh(H)          -2.050786000000     0.651012000000     1.147961000000     1.007825032230
      Gh(H)          -3.477837000000     0.948943000000     0.929990000000     1.007825032230
      Gh(O)           2.085863000000     1.943286000000     1.689448000000    15.994914619570
      Gh(H)           2.901729000000     2.319648000000     1.384240000000     1.007825032230
      Gh(H)           1.848548000000     1.201502000000     1.097555000000     1.007825032230
      Gh(O)           0.575664000000    -2.444183000000     2.291224000000    15.994914619570
      Gh(H)           0.275698000000    -1.738441000000     1.676952000000     1.007825032230
      Gh(H)          -0.166814000000    -2.631813000000     2.907550000000     1.007825032230
      Gh(O)          -0.427516000000     3.289022000000     1.005525000000    15.994914619570
      Gh(H)          -0.401676000000     2.496842000000     0.384779000000     1.007825032230
      Gh(H)           0.441407000000     3.173898000000     1.412293000000     1.007825032230

  Charge       = -1
  Multiplicity = 1
  Basis Set: AUG-CC-PVTZ
    Blend: AUG-CC-PVTZ
  Basis Set: (AUG-CC-PVTZ AUX)
    Blend: AUG-CC-PVTZ-JKFIT

    Orbital Energies [Eh]
    ---------------------

    Doubly Occupied:

       1A   -104.507085     2A    -10.230014     3A     -7.696085
       4A     -7.696062     5A     -7.696059     6A     -0.733466
       7A     -0.150309     8A     -0.150306     9A     -0.150301

  @DF-RHF Final Energy:  -459.57356611747826

   => Energetics <=

    Nuclear Repulsion Energy =              0.0000000000000000
    One-Electron Energy =                -641.1277705865717280
    Two-Electron Energy =                 181.5542044690934347
    Total Energy =                       -459.5735661174783218
 Dipole X            :         -0.0001376            0.0000000           -0.0001376
 Dipole Y            :         -0.0000024            0.0000000           -0.0000024
 Dipole Z            :          0.0003516            0.0000000            0.0003516
 Magnitude           :                                                    0.0003776
  Basis Set: (AUG-CC-PVTZ AUX)
    Blend: AUG-CC-PVTZ-RI
	 Reference Energy          =    -459.5735661174782649 [Eh]
	 Singles Energy            =      -0.0000000000000000 [Eh]
	 Same-Spin Energy          =      -0.0633266613372250 [Eh]
	 Opposite-Spin Energy      =      -0.1829111884665230 [Eh]
	 Correlation Energy        =      -0.2462378498037480 [Eh]
	 Total Energy              =    -459.8198039672819846 [Eh]

	 ================> DF-SCS-MP2 Energies <==================
	-----------------------------------------------------------
	 SCS Same-Spin Scale       =       0.3333333333333333 [-]
	 SCS Opposite-Spin Scale   =       1.2000000000000000 [-]
	 SCS Same-Spin Energy      =      -0.0211088871124083 [Eh]
	 SCS Opposite-Spin Energy  =      -0.2194934261598276 [Eh]
	 SCS Correlation Energy    =      -0.2406023132722359 [Eh]
	 SCS Total Energy          =    -459.8141684307504988 [Eh]
	-----------------------------------------------------------

*** Psi4 exiting successfully. Buy a developer a beer!
