                               Psi4 1.8.2 release

  ==> Input File <==

--------------------------------------------------------------------------
MEMORY 60 GB

molecule dimer {
-1 1
Cl         0.000000     0.000000     0.000000
Gh(O)     -1.574485    -1.388937    -2.457758
Gh(H)     -1.317235    -0.940408    -1.655788
Gh(H)     -0.953383    -2.128561    -2.491628
Gh(O)      1.040796     3.218040    -0.206438
Gh(H)      1.331961     2.595955     0.466511
Gh(H)      1.503828     2.878531    -0.981858
Gh(O)      1.627090    -0.479667     2.866522
Gh(H)      2.163509     0.349331     2.829028
Gh(H)      0.905208    -0.350725     2.192300
Gh(O)     -2.718709    -1.072812     1.625741
Gh(H)     -2.618297    -0.589436     2.466084
Gh(H)     -1.916153    -0.782770     1.183766
Gh(O)      0.257603    -3.266791     0.337367
Gh(H)     -0.476299    -3.510657     0.988196
Gh(H)      0.110478    -2.308356     0.242427
Gh(O)      1.489698     0.001930    -3.063037
Gh(H)      0.983789     0.084810    -2.249346
Gh(H)      1.838570    -0.877214    -3.177410

units ang
no_reorient
no_com
symmetry c1
}

set {
basis        aug-cc-pVTZ
scf_type     df
}

energy("mp2")
--------------------------------------------------------------------------

    Molecular point group: c1

    Geometry (in Angstrom), charge = -1, multiplicity = 1:

       Center              X                  Y                   Z               Mass
    ------------   -----------------  -----------------  -----------------  -----------------
         CL           0.000000000000     0.000000000000     0.000000000000    34.968852682000
      Gh(O)          -1.574485000000    -1.388937000000    -2.457758000000    15.994914619570
      Gh(H)          -1.317235000000    -0.940408000000    -1.655788000000     1.007825032230
      Gh(H)          -0.953383000000    -2.128561000000    -2.491628000000     1.007825032230
      Gh(O)           1.040796000000     3.218040000000    -0.206438000000    15.994914619570
      Gh(H)           1.331961000000     2.595955000000     0.466511000000     1.007825032230
      Gh(H)           1.503828000000     2.878531000000    -0.981858000000     1.007825032230
      Gh(O)           1.627090000000    -0.479667000000     2.866522000000    15.994914619570
      Gh(H)           2.163509000000     0.349331000000     2.829028000000     1.007825032230
      Gh(H)           0.905208000000    -0.350725000000     2.192300000000     1.007825032230
      Gh(O)          -2.718709000000    -1.072812000000     1.625741000000    15.994914619570
      Gh(H)          -2.618297000000    -0.589436000000     2.466084000000     1.007825032230
      Gh(H)          -1.916153000000    -0.782770000000     1.183766000000     1.007825032230
      Gh(O)           0.257603000000    -3.266791000000     0.337367000000    15.994914619570
      Gh(H)          -0.476299000000    -3.510657000000     0.988196000000     1.007825032230
      Gh(H)           0.110478000000    -2.308356000000     0.242427000000     1.007825032230
      Gh(O)           1.489698000000     0.001930000000    -3.063037000000    15.994914619570
      Gh(H)           0.983789000000     0.084810000000    -2.249346000000     1.007825032230
      Gh(H)           1.838570000000    -0.877214000000    -3.177410000000     1.007825032230

  Charge       = -1
  Multiplicity = 1
  Basis Set: AUG-CC-PVTZ
    Blend: AUG-CC-PVTZ
  Basis Set: (AUG-CC-PVTZ AUX)
    Blend: AUG-CC-PVTZ-JKFIT

    Orbital Energies [Eh]
    ---------------------

    Doubly Occupied:

       1A   -104.507333     2A    -10.230076     3A     -7.696152
       4A     -7.696130     5A     -7.696119     6A     -0.733461
       7A     -0.150306     8A     -0.150304     9A     -0.150296

  @DF-RHF Final Energy:  -459.57358731752788

   => Energetics <=

    Nuclear Repulsion Energy =              0.0000000000000000
    One-Electron Energy =                -641.1268358585790565
    Two-Electron Energy =                 181.5532485410512038
    Total Energy =                       -459.5735873175278812
 Dipole X            :         -0.0000541            0.0000000           -0.0000541
 Dipole Y            :         -0.0002548            0.0000000           -0.0002548
 Dipole Z            :         -0.0001071            0.0000000           -0.0001071
 Magnitude           :                                                    0.0002817
  Basis Set: (AUG-CC-PVTZ AUX)
    Blend: AUG-CC-PVTZ-RI
	 Reference Energy          =    -459.5735873175278812 [Eh]
	 Singles Energy            =      -0.0000000000000000 [Eh]
	 Same-Spin Energy          =      -0.0636166655766549 [Eh]
	 Opposite-Spin Energy      =      -0.1840700088205992 [Eh]
	 Correlation Energy        =      -0.2476866743972541 [Eh]
	 Total Energy              =    -459.8212739919251248 [Eh]

	 ================> DF-SCS-MP2 Energies <==================
	-----------------------------------------------------------
	 SCS Same-Spin Scale       =       0.3333333333333333 [-]
	 SCS Opposite-Spin Scale   =       1.2000000000000000 [-]
	 SCS Same-Spin Energy      =      -0.0212055551922183 [Eh]
	 SCS Opposite-Spin Energy  =      -0.2208840105847190 [Eh]
	 SCS Correlation Energy    =      -0.2420895657769373 [Eh]
	 SCS Total Energy          =    -459.8156768833048318 [Eh]
	-----------------------------------------------------------

*** Psi4 exiting successfully. Buy a developer a beer!
