                               Psi4 1.8.2 release

  ==> Input File <==

--------------------------------------------------------------------------
MEMORY 60 GB

molecule dimer {
0 1
Gh(Cl)     0.000000     0.000000     0.000000
O          0.566870    -1.819815     2.698297
H         -0.078974    -2.614193     2.791088
H          0.377088    -1.191194     1.959657
Gh(O)      2.279576     1.369045    -2.090596
Gh(H)      1.885928     0.879649    -1.319566
Gh(H)      2.785146     0.699748    -2.546213
Gh(O)     -0.408105    -3.449801    -0.045884
Gh(H)     -0.491537    -2.483954    -0.136913
Gh(H)     -1.054600    -3.756136    -0.690336
Gh(O)     -3.121446    -0.979678     0.008183
Gh(H)     -3.306620    -1.940481     0.152311
Gh(H)     -2.177854    -0.788117    -0.090022
Gh(O)     -1.054861     1.302381     3.016395
Gh(H)     -1.018792     0.388964     2.938793
Gh(H)     -0.449422     1.623404     2.330560

units ang
no_reorient
no_com
symmetry c1
}

set {
basis        aug-cc-pVTZ
scf_type     df
}

energy("mp2")
--------------------------------------------------------------------------

    Molecular point group: c1

    Geometry (in Angstrom), charge = 0, multiplicity = 1:

       Center              X                  Y                   Z               Mass
    ------------   -----------------  -----------------  -----------------  -----------------
      Gh(CL)          0.000000000000     0.000000000000     0.000000000000    34.968852682000
         O            0.566870000000    -1.819815000000     2.698297000000    15.994914619570
         H           -0.078974000000    -2.614193000000     2.791088000000     1.007825032230
         H            0.377088000000    -1.191194000000     1.959657000000     1.007825032230
      Gh(O)           2.279576000000     1.369045000000    -2.090596000000    15.994914619570
      Gh(H)           1.885928000000     0.879649000000    -1.319566000000     1.007825032230
      Gh(H)           2.785146000000     0.699748000000    -2.546213000000     1.007825032230
      Gh(O)          -0.408105000000    -3.449801000000    -0.045884000000    15.994914619570
      Gh(H)          -0.491537000000    -2.483954000000    -0.136913000000     1.007825032230
      Gh(H)          -1.054600000000    -3.756136000000    -0.690336000000     1.007825032230
      Gh(O)          -3.121446000000    -0.979678000000     0.008183000000    15.994914619570
      Gh(H)          -3.306620000000    -1.940481000000     0.152311000000     1.007825032230
      Gh(H)          -2.177854000000    -0.788117000000    -0.090022000000     1.007825032230
      Gh(O)          -1.054861000000     1.302381000000     3.016395000000    15.994914619570
      Gh(H)          -1.018792000000     0.388964000000     2.938793000000     1.007825032230
      Gh(H)          -0.449422000000     1.623404000000     2.330560000000     1.007825032230

  Charge       = 0
  Multiplicity = 1
  Basis Set: AUG-CC-PVTZ
    Blend: AUG-CC-PVTZ
  Basis Set: (AUG-CC-PVTZ AUX)
    Blend: AUG-CC-PVTZ-JKFIT

    Orbital Energies [Eh]
    ---------------------

    Doubly Occupied:

       1A    -20.569661     2A     -1.321925     3A     -0.709257
       4A     -0.553559     5A     -0.502479

  @DF-RHF Final Energy:   -76.04876211837471

   => Energetics <=

    Nuclear Repulsion Energy =              8.7110716617626665
    One-Electron Energy =                -122.2059009740937796
    Two-Electron Energy =                  37.4460671939564094
    Total Energy =                        -76.0487621183747109
 Dipole X            :         -9.6902603            9.1331862           -0.5570741
 Dipole Y            :         34.5954711          -34.7027548           -0.1072837
 Dipole Z            :        -50.2036605           49.7699456           -0.4337149
 Magnitude           :                                                    0.7141078
  Basis Set: (AUG-CC-PVTZ AUX)
    Blend: AUG-CC-PVTZ-RI
	 Reference Energy          =     -76.0487621183747109 [Eh]
	 Singles Energy            =      -0.0000000000000000 [Eh]
	 Same-Spin Energy          =      -0.0691957912077827 [Eh]
	 Opposite-Spin Energy      =      -0.2183387011850383 [Eh]
	 Correlation Energy        =      -0.2875344923928210 [Eh]
	 Total Energy              =     -76.3362966107675334 [Eh]

	 ================> DF-SCS-MP2 Energies <==================
	-----------------------------------------------------------
	 SCS Same-Spin Scale       =       0.3333333333333333 [-]
	 SCS Opposite-Spin Scale   =       1.2000000000000000 [-]
	 SCS Same-Spin Energy      =      -0.0230652637359276 [Eh]
	 SCS Opposite-Spin Energy  =      -0.2620064414220460 [Eh]
	 SCS Correlation Energy    =      -0.2850717051579735 [Eh]
	 SCS Total Energy          =     -76.3338338235326859 [Eh]
	-----------------------------------------------------------

*** Psi4 exiting successfully. Buy a developer a beer!
