                               Psi4 1.8.2 release

  ==> Input File <==

--------------------------------------------------------------------------
MEMORY 60 GB

molecule dimer {
-1 1
Cl         0.000000     0.000000     0.000000
O         -2.709595    -0.564414     1.986950
H         -2.012609    -0.356588     1.361955
H         -3.524735    -0.339512     1.483111
O          0.458298    -0.295669     3.415454
H          0.366928     0.233955     2.580124
H          1.441111    -0.213655     3.579034
O          0.964782     1.256879    -2.914500
H          0.751989     0.912790    -2.038240
H          0.228306     1.846266    -3.151398
O         -0.817501    -3.251590     0.551563
H         -1.223410    -3.568100    -0.255690
H         -1.014239    -2.333206     0.731087
O          1.264464     2.704809     0.729411
H          0.706287     1.905591     0.552777
H          1.975961     2.355386     1.286056

units ang
no_reorient
no_com
symmetry c1
}

set {
basis        aug-cc-pVTZ
scf_type     df
}

energy("mp2")
--------------------------------------------------------------------------

    Molecular point group: c1

    Geometry (in Angstrom), charge = -1, multiplicity = 1:

       Center              X                  Y                   Z               Mass
    ------------   -----------------  -----------------  -----------------  -----------------
         CL           0.000000000000     0.000000000000     0.000000000000    34.968852682000
         O           -2.709595000000    -0.564414000000     1.986950000000    15.994914619570
         H           -2.012609000000    -0.356588000000     1.361955000000     1.007825032230
         H           -3.524735000000    -0.339512000000     1.483111000000     1.007825032230
         O            0.458298000000    -0.295669000000     3.415454000000    15.994914619570
         H            0.366928000000     0.233955000000     2.580124000000     1.007825032230
         H            1.441111000000    -0.213655000000     3.579034000000     1.007825032230
         O            0.964782000000     1.256879000000    -2.914500000000    15.994914619570
         H            0.751989000000     0.912790000000    -2.038240000000     1.007825032230
         H            0.228306000000     1.846266000000    -3.151398000000     1.007825032230
         O           -0.817501000000    -3.251590000000     0.551563000000    15.994914619570
         H           -1.223410000000    -3.568100000000    -0.255690000000     1.007825032230
         H           -1.014239000000    -2.333206000000     0.731087000000     1.007825032230
         O            1.264464000000     2.704809000000     0.729411000000    15.994914619570
         H            0.706287000000     1.905591000000     0.552777000000     1.007825032230
         H            1.975961000000     2.355386000000     1.286056000000     1.007825032230

  Charge       = -1
  Multiplicity = 1
  Basis Set: AUG-CC-PVTZ
    Blend: AUG-CC-PVTZ
  Basis Set: (AUG-CC-PVTZ AUX)
    Blend: AUG-CC-PVTZ-JKFIT

    Orbital Energies [Eh]
    ---------------------

    Doubly Occupied:

       1A   -104.590341     2A    -20.434551     3A    -20.431008
       4A    -20.417414     5A    -20.417094     6A    -20.410551
       7A    -10.315648     8A     -7.781762     9A     -7.781721
      10A     -7.781657    11A     -1.210751    12A     -1.203022
      13A     -1.198305    14A     -1.197365    15A     -1.188723
      16A     -0.834546    17A     -0.589969    18A     -0.570541
      19A     -0.566023    20A     -0.551322    21A     -0.549880
      22A     -0.451660    23A     -0.447238    24A     -0.436691
      25A     -0.434936    26A     -0.426846    27A     -0.374223
      28A     -0.369591    29A     -0.363174    30A     -0.362284
      31A     -0.353701    32A     -0.247977    33A     -0.244395
      34A     -0.241331

  @DF-RHF Final Energy:  -839.92007574248055

   => Energetics <=

    Nuclear Repulsion Energy =            298.1161191431454540
    One-Electron Energy =               -1766.5198977246770937
    Two-Electron Energy =                 628.4837028390511477
    Total Energy =                       -839.9200757424805488
 Dipole X            :         16.6339231          -17.0468925           -0.4129694
 Dipole Y            :          1.6011913           -1.4304339            0.1707574
 Dipole Z            :        -69.6939543           68.5589615           -1.1349928
 Magnitude           :                                                    1.2197994
  Basis Set: (AUG-CC-PVTZ AUX)
    Blend: AUG-CC-PVTZ-RI
	 Reference Energy          =    -839.9200757424805488 [Eh]
	 Singles Energy            =      -0.0000000000000000 [Eh]
	 Same-Spin Energy          =      -0.4166119207429715 [Eh]
	 Opposite-Spin Energy      =      -1.2747746159863365 [Eh]
	 Correlation Energy        =      -1.6913865367293079 [Eh]
	 Total Energy              =    -841.6114622792098316 [Eh]

	 ================> DF-SCS-MP2 Energies <==================
	-----------------------------------------------------------
	 SCS Same-Spin Scale       =       0.3333333333333333 [-]
	 SCS Opposite-Spin Scale   =       1.2000000000000000 [-]
	 SCS Same-Spin Energy      =      -0.1388706402476572 [Eh]
	 SCS Opposite-Spin Energy  =      -1.5297295391836037 [Eh]
	 SCS Correlation Energy    =      -1.6686001794312608 [Eh]
	 SCS Total Energy          =    -841.5886759219117721 [Eh]
	-----------------------------------------------------------

*** Psi4 exiting successfully. Buy a developer a beer!
