                               Psi4 1.8.2 release

  ==> Input File <==

--------------------------------------------------------------------------
MEMORY 60 GB

molecule dimer {
-1 1
Cl         0.000000     0.000000     0.000000
Gh(O)      2.217451     0.173132    -2.196728
Gh(H)      1.450489     0.085813    -1.601960
Gh(H)      2.136415     1.036921    -2.632012
Gh(O)     -3.104951     1.312552    -0.666533
Gh(H)     -2.224123     0.928576    -0.487843
Gh(H)     -3.617532     0.562843    -0.908656
Gh(O)      1.272227     2.966293     0.141325
Gh(H)      0.856129     3.522110     0.878231
Gh(H)      0.642780     2.184762     0.155358
Gh(O)      0.216100     0.918779     3.064477
Gh(H)      0.501188     0.528894     2.252647
Gh(H)     -0.506248     0.390525     3.374447
Gh(O)      1.294073    -2.891435     1.095122
Gh(H)      1.863156    -3.654697     1.184616
Gh(H)      1.395565    -2.604001     0.149232
Gh(O)     -1.460884    -1.361846    -2.351721
Gh(H)     -0.940849    -0.704004    -1.930802
Gh(H)     -1.693945    -0.968444    -3.207386

units ang
no_reorient
no_com
symmetry c1
}

set {
basis        aug-cc-pVTZ
scf_type     df
}

energy("mp2")
--------------------------------------------------------------------------

    Molecular point group: c1

    Geometry (in Angstrom), charge = -1, multiplicity = 1:

       Center              X                  Y                   Z               Mass
    ------------   -----------------  -----------------  -----------------  -----------------
         CL           0.000000000000     0.000000000000     0.000000000000    34.968852682000
      Gh(O)           2.217451000000     0.173132000000    -2.196728000000    15.994914619570
      Gh(H)           1.450489000000     0.085813000000    -1.601960000000     1.007825032230
      Gh(H)           2.136415000000     1.036921000000    -2.632012000000     1.007825032230
      Gh(O)          -3.104951000000     1.312552000000    -0.666533000000    15.994914619570
      Gh(H)          -2.224123000000     0.928576000000    -0.487843000000     1.007825032230
      Gh(H)          -3.617532000000     0.562843000000    -0.908656000000     1.007825032230
      Gh(O)           1.272227000000     2.966293000000     0.141325000000    15.994914619570
      Gh(H)           0.856129000000     3.522110000000     0.878231000000     1.007825032230
      Gh(H)           0.642780000000     2.184762000000     0.155358000000     1.007825032230
      Gh(O)           0.216100000000     0.918779000000     3.064477000000    15.994914619570
      Gh(H)           0.501188000000     0.528894000000     2.252647000000     1.007825032230
      Gh(H)          -0.506248000000     0.390525000000     3.374447000000     1.007825032230
      Gh(O)           1.294073000000    -2.891435000000     1.095122000000    15.994914619570
      Gh(H)           1.863156000000    -3.654697000000     1.184616000000     1.007825032230
      Gh(H)           1.395565000000    -2.604001000000     0.149232000000     1.007825032230
      Gh(O)          -1.460884000000    -1.361846000000    -2.351721000000    15.994914619570
      Gh(H)          -0.940849000000    -0.704004000000    -1.930802000000     1.007825032230
      Gh(H)          -1.693945000000    -0.968444000000    -3.207386000000     1.007825032230

  Charge       = -1
  Multiplicity = 1
  Basis Set: AUG-CC-PVTZ
    Blend: AUG-CC-PVTZ
  Basis Set: (AUG-CC-PVTZ AUX)
    Blend: AUG-CC-PVTZ-JKFIT

    Orbital Energies [Eh]
    ---------------------

    Doubly Occupied:

       1A   -104.507339     2A    -10.230073     3A     -7.696143
       4A     -7.696128     5A     -7.696121     6A     -0.733459
       7A     -0.150303     8A     -0.150302     9A     -0.150296

  @DF-RHF Final Energy:  -459.57359110555990

   => Energetics <=

    Nuclear Repulsion Energy =              0.0000000000000000
    One-Electron Energy =                -641.1268653178100294
    Two-Electron Energy =                 181.5532742122501588
    Total Energy =                       -459.5735911055598990
 Dipole X            :         -0.0000192            0.0000000           -0.0000192
 Dipole Y            :          0.0001514            0.0000000            0.0001514
 Dipole Z            :         -0.0000718            0.0000000           -0.0000718
 Magnitude           :                                                    0.0001687
  Basis Set: (AUG-CC-PVTZ AUX)
    Blend: AUG-CC-PVTZ-RI
	 Reference Energy          =    -459.5735911055598990 [Eh]
	 Singles Energy            =      -0.0000000000000000 [Eh]
	 Same-Spin Energy          =      -0.0636817282316062 [Eh]
	 Opposite-Spin Energy      =      -0.1844580979205379 [Eh]
	 Correlation Energy        =      -0.2481398261521441 [Eh]
	 Total Energy              =    -459.8217309317120680 [Eh]

	 ================> DF-SCS-MP2 Energies <==================
	-----------------------------------------------------------
	 SCS Same-Spin Scale       =       0.3333333333333333 [-]
	 SCS Opposite-Spin Scale   =       1.2000000000000000 [-]
	 SCS Same-Spin Energy      =      -0.0212272427438687 [Eh]
	 SCS Opposite-Spin Energy  =      -0.2213497175046455 [Eh]
	 SCS Correlation Energy    =      -0.2425769602485143 [Eh]
	 SCS Total Energy          =    -459.8161680658084265 [Eh]
	-----------------------------------------------------------

*** Psi4 exiting successfully. Buy a developer a beer!
