                               Psi4 1.8.2 release

  ==> Input File <==

--------------------------------------------------------------------------
MEMORY 60 GB

molecule dimer {
0 1
Gh(Cl)     0.000000     0.000000     0.000000
Gh(O)     -1.229184    -2.993822     0.453137
Gh(H)     -0.418614    -3.395812     0.092820
Gh(H)     -1.013280    -2.074811     0.585463
O         -1.235222    -1.766810    -2.572586
H         -2.178163    -1.662201    -2.417220
H         -0.769873    -1.718371    -1.664414
Gh(O)     -1.384432    -0.260144     2.883153
Gh(H)     -0.766609    -0.589156     3.510778
Gh(H)     -0.859119    -0.152996     2.083720
Gh(O)      1.607896     0.813395    -2.710175
Gh(H)      2.315273     1.449805    -2.414289
Gh(H)      1.015105     0.595265    -1.995542
Gh(O)      1.117807     2.673918     1.419992
Gh(H)      1.158491     1.823418     1.031762
Gh(H)      0.169419     2.693657     1.399060
Gh(O)     -2.874762     0.414810    -1.653760
Gh(H)     -2.035974     0.467676    -1.186949
Gh(H)     -3.362591    -0.291211    -1.125177

units ang
no_reorient
no_com
symmetry c1
}

set {
basis        aug-cc-pVTZ
scf_type     df
}

energy("mp2")
--------------------------------------------------------------------------

    Molecular point group: c1

    Geometry (in Angstrom), charge = 0, multiplicity = 1:

       Center              X                  Y                   Z               Mass
    ------------   -----------------  -----------------  -----------------  -----------------
      Gh(CL)          0.000000000000     0.000000000000     0.000000000000    34.968852682000
      Gh(O)          -1.229184000000    -2.993822000000     0.453137000000    15.994914619570
      Gh(H)          -0.418614000000    -3.395812000000     0.092820000000     1.007825032230
      Gh(H)          -1.013280000000    -2.074811000000     0.585463000000     1.007825032230
         O           -1.235222000000    -1.766810000000    -2.572586000000    15.994914619570
         H           -2.178163000000    -1.662201000000    -2.417220000000     1.007825032230
         H           -0.769873000000    -1.718371000000    -1.664414000000     1.007825032230
      Gh(O)          -1.384432000000    -0.260144000000     2.883153000000    15.994914619570
      Gh(H)          -0.766609000000    -0.589156000000     3.510778000000     1.007825032230
      Gh(H)          -0.859119000000    -0.152996000000     2.083720000000     1.007825032230
      Gh(O)           1.607896000000     0.813395000000    -2.710175000000    15.994914619570
      Gh(H)           2.315273000000     1.449805000000    -2.414289000000     1.007825032230
      Gh(H)           1.015105000000     0.595265000000    -1.995542000000     1.007825032230
      Gh(O)           1.117807000000     2.673918000000     1.419992000000    15.994914619570
      Gh(H)           1.158491000000     1.823418000000     1.031762000000     1.007825032230
      Gh(H)           0.169419000000     2.693657000000     1.399060000000     1.007825032230
      Gh(O)          -2.874762000000     0.414810000000    -1.653760000000    15.994914619570
      Gh(H)          -2.035974000000     0.467676000000    -1.186949000000     1.007825032230
      Gh(H)          -3.362591000000    -0.291211000000    -1.125177000000     1.007825032230

  Charge       = 0
  Multiplicity = 1
  Basis Set: AUG-CC-PVTZ
    Blend: AUG-CC-PVTZ
  Basis Set: (AUG-CC-PVTZ AUX)
    Blend: AUG-CC-PVTZ-JKFIT

    Orbital Energies [Eh]
    ---------------------

    Doubly Occupied:

       1A    -20.571405     2A     -1.335440     3A     -0.704697
       4A     -0.572558     5A     -0.506791

  @DF-RHF Final Energy:   -76.05470309420110

   => Energetics <=

    Nuclear Repulsion Energy =              8.8786332408803972
    One-Electron Energy =                -122.4848880549849355
    Two-Electron Energy =                  37.5515517199034576
    Total Energy =                        -76.0547030942010878
 Dipole X            :         23.9229577          -24.2448309           -0.3218732
 Dipole Y            :         33.1993522          -33.0986514            0.1007008
 Dipole Z            :         47.2992113          -46.6050342            0.6941771
 Magnitude           :                                                    0.7717673
  Basis Set: (AUG-CC-PVTZ AUX)
    Blend: AUG-CC-PVTZ-RI
	 Reference Energy          =     -76.0547030942011020 [Eh]
	 Singles Energy            =      -0.0000000000000000 [Eh]
	 Same-Spin Energy          =      -0.0689500520357900 [Eh]
	 Opposite-Spin Energy      =      -0.2176916193657085 [Eh]
	 Correlation Energy        =      -0.2866416714014985 [Eh]
	 Total Energy              =     -76.3413447656025994 [Eh]

	 ================> DF-SCS-MP2 Energies <==================
	-----------------------------------------------------------
	 SCS Same-Spin Scale       =       0.3333333333333333 [-]
	 SCS Opposite-Spin Scale   =       1.2000000000000000 [-]
	 SCS Same-Spin Energy      =      -0.0229833506785967 [Eh]
	 SCS Opposite-Spin Energy  =      -0.2612299432388501 [Eh]
	 SCS Correlation Energy    =      -0.2842132939174468 [Eh]
	 SCS Total Energy          =     -76.3389163881185482 [Eh]
	-----------------------------------------------------------

*** Psi4 exiting successfully. Buy a developer a beer!
