                               Psi4 1.8.2 release

  ==> Input File <==

--------------------------------------------------------------------------
MEMORY 60 GB

molecule dimer {
-1 1
Cl         0.000000     0.000000     0.000000
O          1.242748     0.373838    -2.862966
H          1.138454     0.351436    -1.908457
H          2.040450     0.897382    -2.964663
O          0.276420     3.153674    -0.747807
H          0.355701     2.306751    -0.429567
H         -0.187972     3.065629    -1.574720
O          0.006494     0.560028     2.997778
H          0.008803     0.499540     2.013278
H          0.769493     0.188003     3.383861
O          3.047364     0.861757     0.211652
H          2.118883     0.732903     0.199202
H          3.204150     1.194867    -0.687368
O          2.269934    -2.438292    -1.028284
H          2.047839    -1.483943    -0.900356
H          1.445497    -2.891753    -0.787702

units ang
no_reorient
no_com
symmetry c1
}

set {
basis        aug-cc-pVTZ
scf_type     df
}

energy("mp2")
--------------------------------------------------------------------------

    Molecular point group: c1

    Geometry (in Angstrom), charge = -1, multiplicity = 1:

       Center              X                  Y                   Z               Mass
    ------------   -----------------  -----------------  -----------------  -----------------
         CL           0.000000000000     0.000000000000     0.000000000000    34.968852682000
         O            1.242748000000     0.373838000000    -2.862966000000    15.994914619570
         H            1.138454000000     0.351436000000    -1.908457000000     1.007825032230
         H            2.040450000000     0.897382000000    -2.964663000000     1.007825032230
         O            0.276420000000     3.153674000000    -0.747807000000    15.994914619570
         H            0.355701000000     2.306751000000    -0.429567000000     1.007825032230
         H           -0.187972000000     3.065629000000    -1.574720000000     1.007825032230
         O            0.006494000000     0.560028000000     2.997778000000    15.994914619570
         H            0.008803000000     0.499540000000     2.013278000000     1.007825032230
         H            0.769493000000     0.188003000000     3.383861000000     1.007825032230
         O            3.047364000000     0.861757000000     0.211652000000    15.994914619570
         H            2.118883000000     0.732903000000     0.199202000000     1.007825032230
         H            3.204150000000     1.194867000000    -0.687368000000     1.007825032230
         O            2.269934000000    -2.438292000000    -1.028284000000    15.994914619570
         H            2.047839000000    -1.483943000000    -0.900356000000     1.007825032230
         H            1.445497000000    -2.891753000000    -0.787702000000     1.007825032230

  Charge       = -1
  Multiplicity = 1
  Basis Set: AUG-CC-PVTZ
    Blend: AUG-CC-PVTZ
  Basis Set: (AUG-CC-PVTZ AUX)
    Blend: AUG-CC-PVTZ-JKFIT

    Orbital Energies [Eh]
    ---------------------

    Doubly Occupied:

       1A   -104.599289     2A    -20.433827     3A    -20.429251
       4A    -20.425831     5A    -20.419543     6A    -20.397119
       7A    -10.325183     8A     -7.791283     9A     -7.791235
      10A     -7.791155    11A     -1.228362    12A     -1.224589
      13A     -1.221763    14A     -1.199495    15A     -1.187221
      16A     -0.849064    17A     -0.595979    18A     -0.584529
      19A     -0.579264    20A     -0.572676    21A     -0.560528
      22A     -0.470867    23A     -0.453987    24A     -0.452197
      25A     -0.444173    26A     -0.415014    27A     -0.383403
      28A     -0.377934    29A     -0.371979    30A     -0.364120
      31A     -0.347715    32A     -0.258633    33A     -0.256421
      34A     -0.252985

  @DF-RHF Final Energy:  -839.92559561729342

   => Energetics <=

    Nuclear Repulsion Energy =            319.1206973682606076
    One-Electron Energy =               -1807.9793503788093858
    Two-Electron Energy =                 648.9330573932553534
    Total Energy =                       -839.9255956172934248
 Dipole X            :       -129.1198164          127.9060712           -1.2137451
 Dipole Y            :        -47.6495619           47.1465031           -0.5030588
 Dipole Z            :         28.0042969          -28.5225964           -0.5182995
 Magnitude           :                                                    1.4124021
  Basis Set: (AUG-CC-PVTZ AUX)
    Blend: AUG-CC-PVTZ-RI
	 Reference Energy          =    -839.9255956172934248 [Eh]
	 Singles Energy            =      -0.0000000000000000 [Eh]
	 Same-Spin Energy          =      -0.4178268400550443 [Eh]
	 Opposite-Spin Energy      =      -1.2743815802718408 [Eh]
	 Correlation Energy        =      -1.6922084203268850 [Eh]
	 Total Energy              =    -841.6178040376203171 [Eh]

	 ================> DF-SCS-MP2 Energies <==================
	-----------------------------------------------------------
	 SCS Same-Spin Scale       =       0.3333333333333333 [-]
	 SCS Opposite-Spin Scale   =       1.2000000000000000 [-]
	 SCS Same-Spin Energy      =      -0.1392756133516814 [Eh]
	 SCS Opposite-Spin Energy  =      -1.5292578963262089 [Eh]
	 SCS Correlation Energy    =      -1.6685335096778904 [Eh]
	 SCS Total Energy          =    -841.5941291269713247 [Eh]
	-----------------------------------------------------------

*** Psi4 exiting successfully. Buy a developer a beer!
