                               Psi4 1.8.2 release

  ==> Input File <==

--------------------------------------------------------------------------
MEMORY 60 GB

molecule dimer {
-1 1
Cl         0.000000     0.000000     0.000000
O         -3.038300     0.134622    -1.043661
H         -3.193085    -0.817042    -1.081050
H         -2.168895     0.204810    -0.622911
O          0.823564     1.469194    -2.905263
H          0.448094     2.356201    -2.904934
H          0.575772     1.029626    -2.123683
O          0.828626     1.168457     2.974264
H          0.970257     2.138629     3.098186
H          0.641650     1.018427     2.076444
O         -0.318478    -2.578120     1.970563
H         -0.430935    -1.762301     1.500686
H          0.695700    -2.767996     1.959541
O         -0.851147     3.093003    -0.308058
H         -0.095872     3.522305     0.160168
H         -0.635313     2.177807    -0.311008

units ang
no_reorient
no_com
symmetry c1
}

set {
basis        aug-cc-pVTZ
scf_type     df
}

energy("mp2")
--------------------------------------------------------------------------

    Molecular point group: c1

    Geometry (in Angstrom), charge = -1, multiplicity = 1:

       Center              X                  Y                   Z               Mass
    ------------   -----------------  -----------------  -----------------  -----------------
         CL           0.000000000000     0.000000000000     0.000000000000    34.968852682000
         O           -3.038300000000     0.134622000000    -1.043661000000    15.994914619570
         H           -3.193085000000    -0.817042000000    -1.081050000000     1.007825032230
         H           -2.168895000000     0.204810000000    -0.622911000000     1.007825032230
         O            0.823564000000     1.469194000000    -2.905263000000    15.994914619570
         H            0.448094000000     2.356201000000    -2.904934000000     1.007825032230
         H            0.575772000000     1.029626000000    -2.123683000000     1.007825032230
         O            0.828626000000     1.168457000000     2.974264000000    15.994914619570
         H            0.970257000000     2.138629000000     3.098186000000     1.007825032230
         H            0.641650000000     1.018427000000     2.076444000000     1.007825032230
         O           -0.318478000000    -2.578120000000     1.970563000000    15.994914619570
         H           -0.430935000000    -1.762301000000     1.500686000000     1.007825032230
         H            0.695700000000    -2.767996000000     1.959541000000     1.007825032230
         O           -0.851147000000     3.093003000000    -0.308058000000    15.994914619570
         H           -0.095872000000     3.522305000000     0.160168000000     1.007825032230
         H           -0.635313000000     2.177807000000    -0.311008000000     1.007825032230

  Charge       = -1
  Multiplicity = 1
  Basis Set: AUG-CC-PVTZ
    Blend: AUG-CC-PVTZ
  Basis Set: (AUG-CC-PVTZ AUX)
    Blend: AUG-CC-PVTZ-JKFIT

    Orbital Energies [Eh]
    ---------------------

    Doubly Occupied:

       1A   -104.597965     2A    -20.430384     3A    -20.429101
       4A    -20.422037     5A    -20.416051     6A    -20.411881
       7A    -10.323476     8A     -7.789601     9A     -7.789546
      10A     -7.789520    11A     -1.217324    12A     -1.215324
      13A     -1.210523    14A     -1.195924    15A     -1.190586
      16A     -0.843889    17A     -0.591216    18A     -0.588542
      19A     -0.580727    20A     -0.558632    21A     -0.557271
      22A     -0.453192    23A     -0.446007    24A     -0.437896
      25A     -0.436896    26A     -0.433507    27A     -0.376802
      28A     -0.374139    29A     -0.366129    30A     -0.361523
      31A     -0.357047    32A     -0.256740    33A     -0.253231
      34A     -0.252257

  @DF-RHF Final Energy:  -839.93074095679617

   => Energetics <=

    Nuclear Repulsion Energy =            302.6467829075974691
    One-Electron Energy =               -1775.2452732145184200
    Two-Electron Energy =                 632.6677493501247227
    Total Energy =                       -839.9307409567961713
 Dipole X            :         46.1273104          -44.6703042            1.4570061
 Dipole Y            :        -63.1342348           63.1125327           -0.0217022
 Dipole Z            :        -13.5179207           13.7084494            0.1905286
 Magnitude           :                                                    1.4695710
  Basis Set: (AUG-CC-PVTZ AUX)
    Blend: AUG-CC-PVTZ-RI
	 Reference Energy          =    -839.9307409567961713 [Eh]
	 Singles Energy            =      -0.0000000000000000 [Eh]
	 Same-Spin Energy          =      -0.4157861900993541 [Eh]
	 Opposite-Spin Energy      =      -1.2726311751675270 [Eh]
	 Correlation Energy        =      -1.6884173652668810 [Eh]
	 Total Energy              =    -841.6191583220630719 [Eh]

	 ================> DF-SCS-MP2 Energies <==================
	-----------------------------------------------------------
	 SCS Same-Spin Scale       =       0.3333333333333333 [-]
	 SCS Opposite-Spin Scale   =       1.2000000000000000 [-]
	 SCS Same-Spin Energy      =      -0.1385953966997847 [Eh]
	 SCS Opposite-Spin Energy  =      -1.5271574102010324 [Eh]
	 SCS Correlation Energy    =      -1.6657528069008170 [Eh]
	 SCS Total Energy          =    -841.5964937636970262 [Eh]
	-----------------------------------------------------------

*** Psi4 exiting successfully. Buy a developer a beer!
