                               Psi4 1.8.2 release

  ==> Input File <==

--------------------------------------------------------------------------
MEMORY 60 GB

molecule dimer {
-1 1
Cl         0.000000     0.000000     0.000000
Gh(O)     -2.410834    -0.087828    -2.505110
Gh(H)     -1.817553    -0.796160    -2.294247
Gh(H)     -2.723707    -0.242293    -3.424832
Gh(O)     -2.085208     1.991842     1.728213
Gh(H)     -1.416728     1.372400     1.423648
Gh(H)     -2.024935     2.657723     1.018972
Gh(O)     -1.336003     2.724781    -1.712998
Gh(H)     -1.329154     2.487387    -2.671129
Gh(H)     -1.463313     1.836521    -1.398655
Gh(O)      0.693185     1.358756     3.016970
Gh(H)      0.630046     0.870811     3.863689
Gh(H)      0.669578     0.732034     2.210643
Gh(O)      2.806877     0.571110    -1.252195
Gh(H)      2.915446     1.526704    -1.285028
Gh(H)      1.961445     0.365407    -0.870162
Gh(O)      0.909191    -2.895189    -1.081663
Gh(H)      1.611131    -2.667095    -1.699815
Gh(H)      0.566234    -2.019767    -0.903729

units ang
no_reorient
no_com
symmetry c1
}

set {
basis        aug-cc-pVTZ
scf_type     df
}

energy("mp2")
--------------------------------------------------------------------------

    Molecular point group: c1

    Geometry (in Angstrom), charge = -1, multiplicity = 1:

       Center              X                  Y                   Z               Mass
    ------------   -----------------  -----------------  -----------------  -----------------
         CL           0.000000000000     0.000000000000     0.000000000000    34.968852682000
      Gh(O)          -2.410834000000    -0.087828000000    -2.505110000000    15.994914619570
      Gh(H)          -1.817553000000    -0.796160000000    -2.294247000000     1.007825032230
      Gh(H)          -2.723707000000    -0.242293000000    -3.424832000000     1.007825032230
      Gh(O)          -2.085208000000     1.991842000000     1.728213000000    15.994914619570
      Gh(H)          -1.416728000000     1.372400000000     1.423648000000     1.007825032230
      Gh(H)          -2.024935000000     2.657723000000     1.018972000000     1.007825032230
      Gh(O)          -1.336003000000     2.724781000000    -1.712998000000    15.994914619570
      Gh(H)          -1.329154000000     2.487387000000    -2.671129000000     1.007825032230
      Gh(H)          -1.463313000000     1.836521000000    -1.398655000000     1.007825032230
      Gh(O)           0.693185000000     1.358756000000     3.016970000000    15.994914619570
      Gh(H)           0.630046000000     0.870811000000     3.863689000000     1.007825032230
      Gh(H)           0.669578000000     0.732034000000     2.210643000000     1.007825032230
      Gh(O)           2.806877000000     0.571110000000    -1.252195000000    15.994914619570
      Gh(H)           2.915446000000     1.526704000000    -1.285028000000     1.007825032230
      Gh(H)           1.961445000000     0.365407000000    -0.870162000000     1.007825032230
      Gh(O)           0.909191000000    -2.895189000000    -1.081663000000    15.994914619570
      Gh(H)           1.611131000000    -2.667095000000    -1.699815000000     1.007825032230
      Gh(H)           0.566234000000    -2.019767000000    -0.903729000000     1.007825032230

  Charge       = -1
  Multiplicity = 1
  Basis Set: AUG-CC-PVTZ
    Blend: AUG-CC-PVTZ
  Basis Set: (AUG-CC-PVTZ AUX)
    Blend: AUG-CC-PVTZ-JKFIT

    Orbital Energies [Eh]
    ---------------------

    Doubly Occupied:

       1A   -104.507260     2A    -10.230057     3A     -7.696131
       4A     -7.696117     5A     -7.696092     6A     -0.733463
       7A     -0.150307     8A     -0.150305     9A     -0.150297

  @DF-RHF Final Energy:  -459.57358100291884

   => Energetics <=

    Nuclear Repulsion Energy =              0.0000000000000000
    One-Electron Energy =                -641.1271163196805674
    Two-Electron Energy =                 181.5535353167617529
    Total Energy =                       -459.5735810029187860
 Dipole X            :          0.0000925            0.0000000            0.0000925
 Dipole Y            :         -0.0000035            0.0000000           -0.0000035
 Dipole Z            :         -0.0000371            0.0000000           -0.0000371
 Magnitude           :                                                    0.0000997
  Basis Set: (AUG-CC-PVTZ AUX)
    Blend: AUG-CC-PVTZ-RI
	 Reference Energy          =    -459.5735810029188428 [Eh]
	 Singles Energy            =      -0.0000000000000000 [Eh]
	 Same-Spin Energy          =      -0.0635561150392000 [Eh]
	 Opposite-Spin Energy      =      -0.1839078004241717 [Eh]
	 Correlation Energy        =      -0.2474639154633717 [Eh]
	 Total Energy              =    -459.8210449183821993 [Eh]

	 ================> DF-SCS-MP2 Energies <==================
	-----------------------------------------------------------
	 SCS Same-Spin Scale       =       0.3333333333333333 [-]
	 SCS Opposite-Spin Scale   =       1.2000000000000000 [-]
	 SCS Same-Spin Energy      =      -0.0211853716797333 [Eh]
	 SCS Opposite-Spin Energy  =      -0.2206893605090060 [Eh]
	 SCS Correlation Energy    =      -0.2418747321887393 [Eh]
	 SCS Total Energy          =    -459.8154557351076051 [Eh]
	-----------------------------------------------------------

*** Psi4 exiting successfully. Buy a developer a beer!
