                               Psi4 1.8.2 release

  ==> Input File <==

--------------------------------------------------------------------------
MEMORY 60 GB

molecule dimer {
0 1
Gh(Cl)     0.000000     0.000000     0.000000
Gh(O)      2.741234     0.738472    -1.525475
Gh(H)      2.030876     0.591915    -0.837522
Gh(H)      3.603201     0.343611    -1.225902
Gh(O)     -1.282461     2.745085     1.157741
Gh(H)     -1.948791     2.416369     1.805657
Gh(H)     -0.745954     1.941353     0.995102
Gh(O)     -2.297413    -1.049486     2.333506
Gh(H)     -2.862620    -0.996762     1.560954
Gh(H)     -1.356740    -0.962436     2.174113
O         -1.160282     1.516406    -2.408583
H         -0.693222     0.915110    -1.786235
H         -0.649383     2.316099    -2.294649
Gh(O)      1.852777    -0.587624     2.593331
Gh(H)      2.415237    -1.388943     2.530648
Gh(H)      1.630884    -0.133154     1.758059

units ang
no_reorient
no_com
symmetry c1
}

set {
basis        aug-cc-pVTZ
scf_type     df
}

energy("mp2")
--------------------------------------------------------------------------

    Molecular point group: c1

    Geometry (in Angstrom), charge = 0, multiplicity = 1:

       Center              X                  Y                   Z               Mass
    ------------   -----------------  -----------------  -----------------  -----------------
      Gh(CL)          0.000000000000     0.000000000000     0.000000000000    34.968852682000
      Gh(O)           2.741234000000     0.738472000000    -1.525475000000    15.994914619570
      Gh(H)           2.030876000000     0.591915000000    -0.837522000000     1.007825032230
      Gh(H)           3.603201000000     0.343611000000    -1.225902000000     1.007825032230
      Gh(O)          -1.282461000000     2.745085000000     1.157741000000    15.994914619570
      Gh(H)          -1.948791000000     2.416369000000     1.805657000000     1.007825032230
      Gh(H)          -0.745954000000     1.941353000000     0.995102000000     1.007825032230
      Gh(O)          -2.297413000000    -1.049486000000     2.333506000000    15.994914619570
      Gh(H)          -2.862620000000    -0.996762000000     1.560954000000     1.007825032230
      Gh(H)          -1.356740000000    -0.962436000000     2.174113000000     1.007825032230
         O           -1.160282000000     1.516406000000    -2.408583000000    15.994914619570
         H           -0.693222000000     0.915110000000    -1.786235000000     1.007825032230
         H           -0.649383000000     2.316099000000    -2.294649000000     1.007825032230
      Gh(O)           1.852777000000    -0.587624000000     2.593331000000    15.994914619570
      Gh(H)           2.415237000000    -1.388943000000     2.530648000000     1.007825032230
      Gh(H)           1.630884000000    -0.133154000000     1.758059000000     1.007825032230

  Charge       = 0
  Multiplicity = 1
  Basis Set: AUG-CC-PVTZ
    Blend: AUG-CC-PVTZ
  Basis Set: (AUG-CC-PVTZ AUX)
    Blend: AUG-CC-PVTZ-JKFIT

    Orbital Energies [Eh]
    ---------------------

    Doubly Occupied:

       1A    -20.570989     2A     -1.350305     3A     -0.703329
       4A     -0.590292     5A     -0.510531

  @DF-RHF Final Energy:   -76.05863110630339

   => Energetics <=

    Nuclear Repulsion Energy =              9.0892106077853221
    One-Electron Energy =                -122.8447867299640137
    Two-Electron Energy =                  37.6969450158753006
    Total Energy =                        -76.0586311063033946
 Dipole X            :         20.7169063          -20.0780774            0.6388289
 Dipole Y            :        -28.8966997           29.0308363            0.1341367
 Dipole Z            :         44.6031595          -44.1242509            0.4789086
 Magnitude           :                                                    0.8095977
  Basis Set: (AUG-CC-PVTZ AUX)
    Blend: AUG-CC-PVTZ-RI
	 Reference Energy          =     -76.0586311063033946 [Eh]
	 Singles Energy            =      -0.0000000000000000 [Eh]
	 Same-Spin Energy          =      -0.0687020060948614 [Eh]
	 Opposite-Spin Energy      =      -0.2167537398308496 [Eh]
	 Correlation Energy        =      -0.2854557459257110 [Eh]
	 Total Energy              =     -76.3440868522291112 [Eh]

	 ================> DF-SCS-MP2 Energies <==================
	-----------------------------------------------------------
	 SCS Same-Spin Scale       =       0.3333333333333333 [-]
	 SCS Opposite-Spin Scale   =       1.2000000000000000 [-]
	 SCS Same-Spin Energy      =      -0.0229006686982871 [Eh]
	 SCS Opposite-Spin Energy  =      -0.2601044877970195 [Eh]
	 SCS Correlation Energy    =      -0.2830051564953066 [Eh]
	 SCS Total Energy          =     -76.3416362627987013 [Eh]
	-----------------------------------------------------------

*** Psi4 exiting successfully. Buy a developer a beer!
