                               Psi4 1.8.2 release

  ==> Input File <==

--------------------------------------------------------------------------
MEMORY 60 GB

molecule dimer {
0 1
Gh(Cl)     0.000000     0.000000     0.000000
Gh(O)      1.897040     2.508472     0.302538
Gh(H)      1.357854     1.760957     0.096876
Gh(H)      1.821429     3.097428    -0.472561
Gh(O)      1.468839    -2.859802     0.731682
Gh(H)      0.736236    -2.305230     0.469404
Gh(H)      1.608881    -2.605813     1.655215
Gh(O)     -0.432860     1.202269     3.088280
Gh(H)     -0.095501     0.925593     2.231419
Gh(H)     -0.432197     2.174121     3.067087
O         -2.583472    -1.827415     0.818109
H         -3.021839    -1.220259     0.255210
H         -1.746720    -1.415553     1.142264
Gh(O)     -2.492733     2.189682    -0.627088
Gh(H)     -2.444094     2.136340    -1.579013
Gh(H)     -2.056599     1.404262    -0.404676

units ang
no_reorient
no_com
symmetry c1
}

set {
basis        aug-cc-pVTZ
scf_type     df
}

energy("mp2")
--------------------------------------------------------------------------

    Molecular point group: c1

    Geometry (in Angstrom), charge = 0, multiplicity = 1:

       Center              X                  Y                   Z               Mass
    ------------   -----------------  -----------------  -----------------  -----------------
      Gh(CL)          0.000000000000     0.000000000000     0.000000000000    34.968852682000
      Gh(O)           1.897040000000     2.508472000000     0.302538000000    15.994914619570
      Gh(H)           1.357854000000     1.760957000000     0.096876000000     1.007825032230
      Gh(H)           1.821429000000     3.097428000000    -0.472561000000     1.007825032230
      Gh(O)           1.468839000000    -2.859802000000     0.731682000000    15.994914619570
      Gh(H)           0.736236000000    -2.305230000000     0.469404000000     1.007825032230
      Gh(H)           1.608881000000    -2.605813000000     1.655215000000     1.007825032230
      Gh(O)          -0.432860000000     1.202269000000     3.088280000000    15.994914619570
      Gh(H)          -0.095501000000     0.925593000000     2.231419000000     1.007825032230
      Gh(H)          -0.432197000000     2.174121000000     3.067087000000     1.007825032230
         O           -2.583472000000    -1.827415000000     0.818109000000    15.994914619570
         H           -3.021839000000    -1.220259000000     0.255210000000     1.007825032230
         H           -1.746720000000    -1.415553000000     1.142264000000     1.007825032230
      Gh(O)          -2.492733000000     2.189682000000    -0.627088000000    15.994914619570
      Gh(H)          -2.444094000000     2.136340000000    -1.579013000000     1.007825032230
      Gh(H)          -2.056599000000     1.404262000000    -0.404676000000     1.007825032230

  Charge       = 0
  Multiplicity = 1
  Basis Set: AUG-CC-PVTZ
    Blend: AUG-CC-PVTZ
  Basis Set: (AUG-CC-PVTZ AUX)
    Blend: AUG-CC-PVTZ-JKFIT

    Orbital Energies [Eh]
    ---------------------

    Doubly Occupied:

       1A    -20.565831     2A     -1.348602     3A     -0.723435
       4A     -0.575298     5A     -0.508672

  @DF-RHF Final Energy:   -76.05881332260006

   => Energetics <=

    Nuclear Repulsion Energy =              9.1445218414498175
    One-Electron Energy =                -122.9629920436820356
    Two-Electron Energy =                  37.7596568796321606
    Total Energy =                        -76.0588133226000593
 Dipole X            :         48.3297169          -48.0677068            0.2620101
 Dipole Y            :         33.2938314          -32.6074737            0.6863576
 Dipole Z            :        -15.1734539           15.0088587           -0.1645951
 Magnitude           :                                                    0.7528796
  Basis Set: (AUG-CC-PVTZ AUX)
    Blend: AUG-CC-PVTZ-RI
	 Reference Energy          =     -76.0588133226000593 [Eh]
	 Singles Energy            =      -0.0000000000000000 [Eh]
	 Same-Spin Energy          =      -0.0683941788816685 [Eh]
	 Opposite-Spin Energy      =      -0.2156640974294479 [Eh]
	 Correlation Energy        =      -0.2840582763111165 [Eh]
	 Total Energy              =     -76.3428715989111737 [Eh]

	 ================> DF-SCS-MP2 Energies <==================
	-----------------------------------------------------------
	 SCS Same-Spin Scale       =       0.3333333333333333 [-]
	 SCS Opposite-Spin Scale   =       1.2000000000000000 [-]
	 SCS Same-Spin Energy      =      -0.0227980596272228 [Eh]
	 SCS Opposite-Spin Energy  =      -0.2587969169153375 [Eh]
	 SCS Correlation Energy    =      -0.2815949765425604 [Eh]
	 SCS Total Energy          =     -76.3404082991426236 [Eh]
	-----------------------------------------------------------

*** Psi4 exiting successfully. Buy a developer a beer!
