                               Psi4 1.8.2 release

  ==> Input File <==

--------------------------------------------------------------------------
MEMORY 60 GB

molecule dimer {
0 1
Gh(Cl)     0.000000     0.000000     0.000000
Gh(O)      1.279422     1.813072     2.395684
Gh(H)      0.682919     1.310388     1.792513
Gh(H)      1.966367     1.174297     2.713761
O          0.654636     0.433879    -3.071352
H          0.416601     0.627639    -2.150429
H          1.079299    -0.421006    -3.057450
Gh(O)     -2.751681    -1.662134    -0.715478
Gh(H)     -1.767176    -1.405085    -0.782986
Gh(H)     -2.615721    -2.522329    -0.314722
Gh(O)     -0.054526    -2.456372     1.915545
Gh(H)     -0.644121    -2.325736     2.724853
Gh(H)     -0.025853    -1.607846     1.466047

units ang
no_reorient
no_com
symmetry c1
}

set {
basis        aug-cc-pVTZ
scf_type     df
}

energy("mp2")
--------------------------------------------------------------------------

    Molecular point group: c1

    Geometry (in Angstrom), charge = 0, multiplicity = 1:

       Center              X                  Y                   Z               Mass
    ------------   -----------------  -----------------  -----------------  -----------------
      Gh(CL)          0.000000000000     0.000000000000     0.000000000000    34.968852682000
      Gh(O)           1.279422000000     1.813072000000     2.395684000000    15.994914619570
      Gh(H)           0.682919000000     1.310388000000     1.792513000000     1.007825032230
      Gh(H)           1.966367000000     1.174297000000     2.713761000000     1.007825032230
         O            0.654636000000     0.433879000000    -3.071352000000    15.994914619570
         H            0.416601000000     0.627639000000    -2.150429000000     1.007825032230
         H            1.079299000000    -0.421006000000    -3.057450000000     1.007825032230
      Gh(O)          -2.751681000000    -1.662134000000    -0.715478000000    15.994914619570
      Gh(H)          -1.767176000000    -1.405085000000    -0.782986000000     1.007825032230
      Gh(H)          -2.615721000000    -2.522329000000    -0.314722000000     1.007825032230
      Gh(O)          -0.054526000000    -2.456372000000     1.915545000000    15.994914619570
      Gh(H)          -0.644121000000    -2.325736000000     2.724853000000     1.007825032230
      Gh(H)          -0.025853000000    -1.607846000000     1.466047000000     1.007825032230

  Charge       = 0
  Multiplicity = 1
  Basis Set: AUG-CC-PVTZ
    Blend: AUG-CC-PVTZ
  Basis Set: (AUG-CC-PVTZ AUX)
    Blend: AUG-CC-PVTZ-JKFIT

    Orbital Energies [Eh]
    ---------------------

    Doubly Occupied:

       1A    -20.567495     2A     -1.349844     3A     -0.717496
       4A     -0.581139     5A     -0.509486

  @DF-RHF Final Energy:   -76.06013493192937

   => Energetics <=

    Nuclear Repulsion Energy =              9.1399675142231303
    One-Electron Energy =                -122.9492839983598458
    Two-Electron Energy =                  37.7491815522073466
    Total Energy =                        -76.0601349319293689
 Dipole X            :        -12.5981730           12.7235033            0.1253303
 Dipole Y            :         -7.3916890            6.9497796           -0.4419094
 Dipole Z            :         56.8947846          -56.2735779            0.6212066
 Magnitude           :                                                    0.7725861
  Basis Set: (AUG-CC-PVTZ AUX)
    Blend: AUG-CC-PVTZ-RI
	 Reference Energy          =     -76.0601349319293689 [Eh]
	 Singles Energy            =      -0.0000000000000000 [Eh]
	 Same-Spin Energy          =      -0.0684417573833489 [Eh]
	 Opposite-Spin Energy      =      -0.2158826310878302 [Eh]
	 Correlation Energy        =      -0.2843243884711790 [Eh]
	 Total Energy              =     -76.3444593204005457 [Eh]

	 ================> DF-SCS-MP2 Energies <==================
	-----------------------------------------------------------
	 SCS Same-Spin Scale       =       0.3333333333333333 [-]
	 SCS Opposite-Spin Scale   =       1.2000000000000000 [-]
	 SCS Same-Spin Energy      =      -0.0228139191277830 [Eh]
	 SCS Opposite-Spin Energy  =      -0.2590591573053962 [Eh]
	 SCS Correlation Energy    =      -0.2818730764331792 [Eh]
	 SCS Total Energy          =     -76.3420080083625550 [Eh]
	-----------------------------------------------------------

*** Psi4 exiting successfully. Buy a developer a beer!
