                               Psi4 1.8.2 release

  ==> Input File <==

--------------------------------------------------------------------------
MEMORY 60 GB

molecule dimer {
-1 1
Cl         0.000000     0.000000     0.000000
O          3.121084    -0.404087    -0.885356
H          3.116609    -0.372361    -1.845845
H          2.192719    -0.330448    -0.616616
O         -2.819140     1.570254    -0.734010
H         -2.611282     1.796412    -1.725910
H         -2.014272     1.104724    -0.433930
O          0.369494     3.158235     0.273032
H          0.266849     2.267125    -0.149408
H          0.062383     2.931659     1.171278
O          1.432734     1.306996     2.864927
H          1.572932     0.422647     3.152455
H          1.365478     1.291318     1.910667
O         -1.816873    -2.925684    -0.245655
H         -1.793579    -2.165113     0.358356
H         -2.001121    -3.664882     0.343775
O          0.586581     0.286046    -3.368714
H          0.417037     1.203796    -3.600248
H          0.414413     0.201701    -2.417327

units ang
no_reorient
no_com
symmetry c1
}

set {
basis        aug-cc-pVTZ
scf_type     df
}

energy("mp2")
--------------------------------------------------------------------------

    Molecular point group: c1

    Geometry (in Angstrom), charge = -1, multiplicity = 1:

       Center              X                  Y                   Z               Mass
    ------------   -----------------  -----------------  -----------------  -----------------
         CL           0.000000000000     0.000000000000     0.000000000000    34.968852682000
         O            3.121084000000    -0.404087000000    -0.885356000000    15.994914619570
         H            3.116609000000    -0.372361000000    -1.845845000000     1.007825032230
         H            2.192719000000    -0.330448000000    -0.616616000000     1.007825032230
         O           -2.819140000000     1.570254000000    -0.734010000000    15.994914619570
         H           -2.611282000000     1.796412000000    -1.725910000000     1.007825032230
         H           -2.014272000000     1.104724000000    -0.433930000000     1.007825032230
         O            0.369494000000     3.158235000000     0.273032000000    15.994914619570
         H            0.266849000000     2.267125000000    -0.149408000000     1.007825032230
         H            0.062383000000     2.931659000000     1.171278000000     1.007825032230
         O            1.432734000000     1.306996000000     2.864927000000    15.994914619570
         H            1.572932000000     0.422647000000     3.152455000000     1.007825032230
         H            1.365478000000     1.291318000000     1.910667000000     1.007825032230
         O           -1.816873000000    -2.925684000000    -0.245655000000    15.994914619570
         H           -1.793579000000    -2.165113000000     0.358356000000     1.007825032230
         H           -2.001121000000    -3.664882000000     0.343775000000     1.007825032230
         O            0.586581000000     0.286046000000    -3.368714000000    15.994914619570
         H            0.417037000000     1.203796000000    -3.600248000000     1.007825032230
         H            0.414413000000     0.201701000000    -2.417327000000     1.007825032230

  Charge       = -1
  Multiplicity = 1
  Basis Set: AUG-CC-PVTZ
    Blend: AUG-CC-PVTZ
  Basis Set: (AUG-CC-PVTZ AUX)
    Blend: AUG-CC-PVTZ-JKFIT

    Orbital Energies [Eh]
    ---------------------

    Doubly Occupied:

       1A   -104.605307     2A    -20.447876     3A    -20.439682
       4A    -20.432663     5A    -20.432524     6A    -20.420505
       7A    -20.417033     8A    -10.330618     9A     -7.796717
      10A     -7.796710    11A     -7.796640    12A     -1.228157
      13A     -1.226391    14A     -1.222130    15A     -1.201414
      16A     -1.196252    17A     -1.190151    18A     -0.850164
      19A     -0.600563    20A     -0.592184    21A     -0.587669
      22A     -0.570146    23A     -0.551377    24A     -0.545662
      25A     -0.465140    26A     -0.457326    27A     -0.455004
      28A     -0.449875    29A     -0.441622    30A     -0.438858
      31A     -0.388961    32A     -0.384027    33A     -0.381831
      34A     -0.369883    35A     -0.363000    36A     -0.359676
      37A     -0.262401    38A     -0.260702    39A     -0.257610

  @DF-RHF Final Energy:  -915.99361212649217

   => Energetics <=

    Nuclear Repulsion Energy =            389.1690938964232487
    One-Electron Energy =               -2053.8965025824791155
    Two-Electron Energy =                 748.7337965595637570
    Total Energy =                       -915.9936121264921667
 Dipole X            :        -15.7183383           15.0785140           -0.6398242
 Dipole Y            :        -55.4148424           54.0852052           -1.3296373
 Dipole Z            :         39.4544496          -38.9641893            0.4902603
 Magnitude           :                                                    1.5548844
  Basis Set: (AUG-CC-PVTZ AUX)
    Blend: AUG-CC-PVTZ-RI
	 Reference Energy          =    -915.9936121264921667 [Eh]
	 Singles Energy            =      -0.0000000000000000 [Eh]
	 Same-Spin Energy          =      -0.4866862227535478 [Eh]
	 Opposite-Spin Energy      =      -1.4923553777796201 [Eh]
	 Correlation Energy        =      -1.9790416005331679 [Eh]
	 Total Energy              =    -917.9726537270253175 [Eh]

	 ================> DF-SCS-MP2 Energies <==================
	-----------------------------------------------------------
	 SCS Same-Spin Scale       =       0.3333333333333333 [-]
	 SCS Opposite-Spin Scale   =       1.2000000000000000 [-]
	 SCS Same-Spin Energy      =      -0.1622287409178493 [Eh]
	 SCS Opposite-Spin Energy  =      -1.7908264533355440 [Eh]
	 SCS Correlation Energy    =      -1.9530551942533934 [Eh]
	 SCS Total Energy          =    -917.9466673207455187 [Eh]
	-----------------------------------------------------------

*** Psi4 exiting successfully. Buy a developer a beer!
