                               Psi4 1.9 release

  ==> Input File <==

--------------------------------------------------------------------------
MEMORY 60 GB

molecule dimer {
-1 1
Cl     0.000000     0.000000     0.000000
--
0 1
O      1.407818     2.519133    -1.259393
H      1.027117     2.592937    -2.117333
H      0.994561     1.714342    -0.954582
O      3.058161    -0.076353     0.562502
H      2.147380     0.078030     0.450617
H      3.076044    -0.918720     1.134947
O      1.402074    -2.853236    -0.379833
H      2.341986    -2.667971    -0.026692
H      0.924122    -2.036659    -0.373298
O      1.041342     1.379260     2.538507
H      0.658961     0.767611     1.918648
H      0.313750     1.643816     3.141624
O     -1.649480     2.733617     0.773527
H     -0.887604     2.167739     0.492910
H     -1.074723     3.432313     1.189528
O     -1.197686    -2.589481     1.589581
H     -1.610851    -2.489368     2.457896
H     -0.710748    -1.803117     1.436687

units ang
no_reorient
no_com
symmetry c1
}

set {
basis        aug-cc-pVTZ
scf_type     df
}

energy("mp2", bsse_type="cp")
--------------------------------------------------------------------------

                               Psi4 1.9 release
    Molecular point group: c1
  Charge       = 0
  Multiplicity = 1
  Basis Set: AUG-CC-PVTZ
    Blend: AUG-CC-PVTZ
  Basis Set: (AUG-CC-PVTZ AUX)
    Blend: AUG-CC-PVTZ-JKFIT
  @DF-RHF Final Energy:  -456.32246908880802
    Total Energy =                       -456.3224690888080204
 Dipole X            :        -75.5243024           75.0180208           -0.5062816
 Dipole Y            :        -21.2321419           21.5135361            0.2813941
 Dipole Z            :        -73.6186131           74.3608742            0.7422611
 Magnitude           :                                                    0.9415175
  Basis Set: (AUG-CC-PVTZ AUX)
    Blend: AUG-CC-PVTZ-RI
	 Reference Energy          =    -456.3224690888080204 [Eh]
	 Singles Energy            =      -0.0000000000000000 [Eh]
	 Same-Spin Energy          =      -0.4155137042634864 [Eh]
	 Opposite-Spin Energy      =      -1.3055792916804523 [Eh]
	 Correlation Energy        =      -1.7210929959439387 [Eh]
	 Total Energy              =    -458.0435620847519544 [Eh]
	 SCS Total Energy          =    -458.0276688069124020 [Eh]
                               Psi4 1.9 release
    Molecular point group: c1
  Multiplicity = 1
  Basis Set: AUG-CC-PVTZ
    Blend: AUG-CC-PVTZ
  Basis Set: (AUG-CC-PVTZ AUX)
    Blend: AUG-CC-PVTZ-JKFIT
  @DF-RHF Final Energy:  -459.57360257199531
    Total Energy =                       -459.5736025719952522
  Basis Set: (AUG-CC-PVTZ AUX)
	 Singles Energy            =      -0.0000000000000000 [Eh]
	 Same-Spin Energy          =      -0.0638540002272819 [Eh]
	 Opposite-Spin Energy      =      -0.1852378382504259 [Eh]
	 Correlation Energy        =      -0.2490918384777079 [Eh]
	 Total Energy              =    -459.8226944104729910 [Eh]
	 SCS Total Energy          =    -459.8171726446382195 [Eh]
                               Psi4 1.9 release
    Molecular point group: c1

    Geometry (in Bohr), charge = -1, multiplicity = 1:

       Center              X                  Y                   Z               Mass
    ------------   -----------------  -----------------  -----------------  -----------------
         CL           0.000000000000     0.000000000000     0.000000000000    34.968852682000
         O            2.660390454490     4.760471443603    -2.379907854319    15.994914619570
         H            1.940969828802     4.899940790566    -4.001179486394     1.007825032230
         H            1.879447905061     3.239636865370    -1.803898544292     1.007825032230
         O            5.779086737556    -0.144286258857     1.062974725022    15.994914619570
         H            4.057960087286     0.147455329569     0.851542717475     1.007825032230
         H            5.812880709858    -1.736129185981     2.144738996910     1.007825032230
         O            2.649535867625    -5.391834611297    -0.717780343411    15.994914619570
         H            4.425712129656    -5.041734500664    -0.050440569741     1.007825032230
         H            1.746337486510    -3.848727720949    -0.705430983181     1.007825032230
         O            1.967851182937     2.606423655799     4.797082997558    15.994914619570
         H            1.245255817358     1.450574560889     3.625719251157     1.007825032230
         H            0.592901571862     3.106362040646     5.936808949165     1.007825032230
         O           -3.117065449420     5.165787461896     1.461754180647    15.994914619570
         H           -1.677328467861     4.096433021474     0.931464904499     1.007825032230
         H           -2.030932130730     6.486131546849     2.247882138564     1.007825032230
         O           -2.263298524295    -4.893409897077     3.003872744231    15.994914619570
         H           -3.044067218920    -4.704223745479     4.644750284858     1.007825032230
         H           -1.343119064217    -3.407397302157     2.714944958006     1.007825032230

  Charge       = -1
  Multiplicity = 1
  Basis Set: AUG-CC-PVTZ
    Blend: AUG-CC-PVTZ
  Basis Set: (AUG-CC-PVTZ AUX)
    Blend: AUG-CC-PVTZ-JKFIT

    Orbital Energies [Eh]
    ---------------------

    Doubly Occupied:

       1A   -104.609720     2A    -20.434655     3A    -20.426878
       4A    -20.424117     5A    -20.418355     6A    -20.418130
       7A    -20.416901     8A    -10.336311     9A     -7.802380
      10A     -7.802353    11A     -7.802308    12A     -1.218478
      13A     -1.215746    14A     -1.210025    15A     -1.203060
      16A     -1.200077    17A     -1.190724    18A     -0.864173
      19A     -0.590102    20A     -0.581794    21A     -0.572322
      22A     -0.566588    23A     -0.556296    24A     -0.540821
      25A     -0.462741    26A     -0.453187    27A     -0.448137
      28A     -0.446199    29A     -0.443989    30A     -0.424977
      31A     -0.376219    32A     -0.375393    33A     -0.369454
      34A     -0.364458    35A     -0.360888    36A     -0.357094
      37A     -0.271696    38A     -0.268445    39A     -0.266652

  @DF-RHF Final Energy:  -915.97314766025568

   => Energetics <=

    Nuclear Repulsion Energy =            416.7699385759602819
    One-Electron Energy =               -2109.3024820533937600
    Two-Electron Energy =                 776.5593958171779150
    Total Energy =                       -915.9731476602556768
 Dipole X            :        -76.1387178           75.0180208           -1.1206970
 Dipole Y            :        -21.4472755           21.5135361            0.0662606
 Dipole Z            :        -74.1382724           74.3608742            0.2226018
 Magnitude           :                                                    1.1445103
  Basis Set: (AUG-CC-PVTZ AUX)
    Blend: AUG-CC-PVTZ-RI
	 Reference Energy          =    -915.9731476602556768 [Eh]
	 Singles Energy            =      -0.0000000000000000 [Eh]
	 Same-Spin Energy          =      -0.4911698207820330 [Eh]
	 Opposite-Spin Energy      =      -1.4992129943548689 [Eh]
	 Correlation Energy        =      -1.9903828151369019 [Eh]
	 Total Energy              =    -917.9635304753925311 [Eh]

	 ================> DF-SCS-MP2 Energies <==================
	-----------------------------------------------------------
	 SCS Same-Spin Scale       =       0.3333333333333333 [-]
	 SCS Opposite-Spin Scale   =       1.2000000000000000 [-]
	 SCS Same-Spin Energy      =      -0.1637232735940110 [Eh]
	 SCS Opposite-Spin Energy  =      -1.7990555932258425 [Eh]
	 SCS Correlation Energy    =      -1.9627788668198536 [Eh]
	 SCS Total Energy          =    -917.9359265270754804 [Eh]
	-----------------------------------------------------------

*** Psi4 exiting successfully. Buy a developer a beer!
