                               Psi4 1.8.2 release

  ==> Input File <==

--------------------------------------------------------------------------
MEMORY 60 GB

molecule dimer {
-1 1
Cl         0.000000     0.000000     0.000000
O         -2.452431     1.179516    -1.383822
H         -1.837991     0.632158    -0.895002
H         -2.120427     2.027958    -1.619128
O         -1.167744    -2.919915    -0.939325
H         -1.764740    -2.860149    -0.192311
H         -0.702783    -2.092863    -0.831785
O          1.116976     2.890657    -0.274401
H          1.074806     1.920461    -0.397918
H          1.908259     3.184212    -0.701728
O          1.222605    -0.362937    -3.063516
H          2.064077    -0.758243    -2.722188
H          0.654956    -0.035259    -2.271002

units ang
no_reorient
no_com
symmetry c1
}

set {
basis        aug-cc-pVTZ
scf_type     df
}

energy("mp2")
--------------------------------------------------------------------------

    Molecular point group: c1

    Geometry (in Angstrom), charge = -1, multiplicity = 1:

       Center              X                  Y                   Z               Mass
    ------------   -----------------  -----------------  -----------------  -----------------
         CL           0.000000000000     0.000000000000     0.000000000000    34.968852682000
         O           -2.452431000000     1.179516000000    -1.383822000000    15.994914619570
         H           -1.837991000000     0.632158000000    -0.895002000000     1.007825032230
         H           -2.120427000000     2.027958000000    -1.619128000000     1.007825032230
         O           -1.167744000000    -2.919915000000    -0.939325000000    15.994914619570
         H           -1.764740000000    -2.860149000000    -0.192311000000     1.007825032230
         H           -0.702783000000    -2.092863000000    -0.831785000000     1.007825032230
         O            1.116976000000     2.890657000000    -0.274401000000    15.994914619570
         H            1.074806000000     1.920461000000    -0.397918000000     1.007825032230
         H            1.908259000000     3.184212000000    -0.701728000000     1.007825032230
         O            1.222605000000    -0.362937000000    -3.063516000000    15.994914619570
         H            2.064077000000    -0.758243000000    -2.722188000000     1.007825032230
         H            0.654956000000    -0.035259000000    -2.271002000000     1.007825032230

  Charge       = -1
  Multiplicity = 1
  Basis Set: AUG-CC-PVTZ
    Blend: AUG-CC-PVTZ
  Basis Set: (AUG-CC-PVTZ AUX)
    Blend: AUG-CC-PVTZ-JKFIT

    Orbital Energies [Eh]
    ---------------------

    Doubly Occupied:

       1A   -104.584146     2A    -20.419730     3A    -20.416714
       4A    -20.410798     5A    -20.389410     6A    -10.309763
       7A     -7.775850     8A     -7.775819     9A     -7.775769
      10A     -1.202978    11A     -1.202359    12A     -1.184304
      13A     -1.175857    14A     -0.830650    15A     -0.576937
      16A     -0.572558    17A     -0.553772    18A     -0.549717
      19A     -0.445592    20A     -0.436095    21A     -0.421370
      22A     -0.407878    23A     -0.362985    24A     -0.357928
      25A     -0.355343    26A     -0.342338    27A     -0.242582
      28A     -0.238389    29A     -0.236800

  @DF-RHF Final Energy:  -763.85727158293730

   => Energetics <=

    Nuclear Repulsion Energy =            225.4496871989089755
    One-Electron Energy =               -1515.5050536871488021
    Two-Electron Energy =                 526.1980949053024688
    Total Energy =                       -763.8572715829373010
 Dipole X            :         22.0720604          -20.7276405            1.3444199
 Dipole Y            :        -15.5283056           15.7165555            0.1882499
 Dipole Z            :        105.5572612         -103.7829538            1.7743074
 Magnitude           :                                                    2.2340702
  Basis Set: (AUG-CC-PVTZ AUX)
    Blend: AUG-CC-PVTZ-RI
	 Reference Energy          =    -763.8572715829373010 [Eh]
	 Singles Energy            =      -0.0000000000000000 [Eh]
	 Same-Spin Energy          =      -0.3469673496793862 [Eh]
	 Opposite-Spin Energy      =      -1.0555680812329853 [Eh]
	 Correlation Energy        =      -1.4025354309123714 [Eh]
	 Total Energy              =    -765.2598070138496951 [Eh]

	 ================> DF-SCS-MP2 Energies <==================
	-----------------------------------------------------------
	 SCS Same-Spin Scale       =       0.3333333333333333 [-]
	 SCS Opposite-Spin Scale   =       1.2000000000000000 [-]
	 SCS Same-Spin Energy      =      -0.1156557832264621 [Eh]
	 SCS Opposite-Spin Energy  =      -1.2666816974795823 [Eh]
	 SCS Correlation Energy    =      -1.3823374807060442 [Eh]
	 SCS Total Energy          =    -765.2396090636433428 [Eh]
	-----------------------------------------------------------

*** Psi4 exiting successfully. Buy a developer a beer!
