                               Psi4 1.8.2 release

  ==> Input File <==

--------------------------------------------------------------------------
MEMORY 60 GB

molecule dimer {
-1 1
Cl         0.000000     0.000000     0.000000
Gh(O)      1.897040     2.508472     0.302538
Gh(H)      1.357854     1.760957     0.096876
Gh(H)      1.821429     3.097428    -0.472561
Gh(O)      1.468839    -2.859802     0.731682
Gh(H)      0.736236    -2.305230     0.469404
Gh(H)      1.608881    -2.605813     1.655215
Gh(O)     -0.432860     1.202269     3.088280
Gh(H)     -0.095501     0.925593     2.231419
Gh(H)     -0.432197     2.174121     3.067087
Gh(O)     -2.583472    -1.827415     0.818109
Gh(H)     -3.021839    -1.220259     0.255210
Gh(H)     -1.746720    -1.415553     1.142264
Gh(O)     -2.492733     2.189682    -0.627088
Gh(H)     -2.444094     2.136340    -1.579013
Gh(H)     -2.056599     1.404262    -0.404676

units ang
no_reorient
no_com
symmetry c1
}

set {
basis        aug-cc-pVTZ
scf_type     df
}

energy("mp2")
--------------------------------------------------------------------------

    Molecular point group: c1

    Geometry (in Angstrom), charge = -1, multiplicity = 1:

       Center              X                  Y                   Z               Mass
    ------------   -----------------  -----------------  -----------------  -----------------
         CL           0.000000000000     0.000000000000     0.000000000000    34.968852682000
      Gh(O)           1.897040000000     2.508472000000     0.302538000000    15.994914619570
      Gh(H)           1.357854000000     1.760957000000     0.096876000000     1.007825032230
      Gh(H)           1.821429000000     3.097428000000    -0.472561000000     1.007825032230
      Gh(O)           1.468839000000    -2.859802000000     0.731682000000    15.994914619570
      Gh(H)           0.736236000000    -2.305230000000     0.469404000000     1.007825032230
      Gh(H)           1.608881000000    -2.605813000000     1.655215000000     1.007825032230
      Gh(O)          -0.432860000000     1.202269000000     3.088280000000    15.994914619570
      Gh(H)          -0.095501000000     0.925593000000     2.231419000000     1.007825032230
      Gh(H)          -0.432197000000     2.174121000000     3.067087000000     1.007825032230
      Gh(O)          -2.583472000000    -1.827415000000     0.818109000000    15.994914619570
      Gh(H)          -3.021839000000    -1.220259000000     0.255210000000     1.007825032230
      Gh(H)          -1.746720000000    -1.415553000000     1.142264000000     1.007825032230
      Gh(O)          -2.492733000000     2.189682000000    -0.627088000000    15.994914619570
      Gh(H)          -2.444094000000     2.136340000000    -1.579013000000     1.007825032230
      Gh(H)          -2.056599000000     1.404262000000    -0.404676000000     1.007825032230

  Charge       = -1
  Multiplicity = 1
  Basis Set: AUG-CC-PVTZ
    Blend: AUG-CC-PVTZ
  Basis Set: (AUG-CC-PVTZ AUX)
    Blend: AUG-CC-PVTZ-JKFIT

    Orbital Energies [Eh]
    ---------------------

    Doubly Occupied:

       1A   -104.507162     2A    -10.230035     3A     -7.696103
       4A     -7.696096     5A     -7.696073     6A     -0.733468
       7A     -0.150310     8A     -0.150308     9A     -0.150303

  @DF-RHF Final Energy:  -459.57357121304011

   => Energetics <=

    Nuclear Repulsion Energy =              0.0000000000000000
    One-Electron Energy =                -641.1274389975581016
    Two-Electron Energy =                 181.5538677845179905
    Total Energy =                       -459.5735712130401112
 Dipole X            :         -0.0000105            0.0000000           -0.0000105
 Dipole Y            :          0.0001014            0.0000000            0.0001014
 Dipole Z            :          0.0004623            0.0000000            0.0004623
 Magnitude           :                                                    0.0004734
  Basis Set: (AUG-CC-PVTZ AUX)
    Blend: AUG-CC-PVTZ-RI
	 Reference Energy          =    -459.5735712130401112 [Eh]
	 Singles Energy            =      -0.0000000000000000 [Eh]
	 Same-Spin Energy          =      -0.0634214617931498 [Eh]
	 Opposite-Spin Energy      =      -0.1833275652249185 [Eh]
	 Correlation Energy        =      -0.2467490270180683 [Eh]
	 Total Energy              =    -459.8203202400581517 [Eh]

	 ================> DF-SCS-MP2 Energies <==================
	-----------------------------------------------------------
	 SCS Same-Spin Scale       =       0.3333333333333333 [-]
	 SCS Opposite-Spin Scale   =       1.2000000000000000 [-]
	 SCS Same-Spin Energy      =      -0.0211404872643833 [Eh]
	 SCS Opposite-Spin Energy  =      -0.2199930782699022 [Eh]
	 SCS Correlation Energy    =      -0.2411335655342854 [Eh]
	 SCS Total Energy          =    -459.8147047785744235 [Eh]
	-----------------------------------------------------------

*** Psi4 exiting successfully. Buy a developer a beer!
