                               Psi4 1.9 release

  ==> Input File <==

--------------------------------------------------------------------------
MEMORY 60 GB

molecule dimer {
-1 1
Cl     0.000000     0.000000     0.000000
--
0 1
O     -1.574485    -1.388937    -2.457758
H     -1.317235    -0.940408    -1.655788
H     -0.953383    -2.128561    -2.491628
O      1.040796     3.218040    -0.206438
H      1.331961     2.595955     0.466511
H      1.503828     2.878531    -0.981858
O      1.627090    -0.479667     2.866522
H      2.163509     0.349331     2.829028
H      0.905208    -0.350725     2.192300
O     -2.718709    -1.072812     1.625741
H     -2.618297    -0.589436     2.466084
H     -1.916153    -0.782770     1.183766
O      0.257603    -3.266791     0.337367
H     -0.476299    -3.510657     0.988196
H      0.110478    -2.308356     0.242427
O      1.489698     0.001930    -3.063037
H      0.983789     0.084810    -2.249346
H      1.838570    -0.877214    -3.177410

units ang
no_reorient
no_com
symmetry c1
}

set {
basis        aug-cc-pVTZ
scf_type     df
}

energy("mp2", bsse_type="cp")
--------------------------------------------------------------------------

                               Psi4 1.9 release
    Molecular point group: c1
  Charge       = 0
  Multiplicity = 1
  Basis Set: AUG-CC-PVTZ
    Blend: AUG-CC-PVTZ
  Basis Set: (AUG-CC-PVTZ AUX)
    Blend: AUG-CC-PVTZ-JKFIT
  @DF-RHF Final Energy:  -456.33782042792808
    Total Energy =                       -456.3378204279280794
 Dipole X            :         -3.9732954            4.7846354            0.8113400
 Dipole Y            :         55.8577265          -55.7193231            0.1384034
 Dipole Z            :         14.9750589          -13.9245263            1.0505326
 Magnitude           :                                                    1.3345587
  Basis Set: (AUG-CC-PVTZ AUX)
    Blend: AUG-CC-PVTZ-RI
	 Reference Energy          =    -456.3378204279280794 [Eh]
	 Singles Energy            =      -0.0000000000000000 [Eh]
	 Same-Spin Energy          =      -0.4140170967660607 [Eh]
	 Opposite-Spin Energy      =      -1.3029741589232642 [Eh]
	 Correlation Energy        =      -1.7169912556893250 [Eh]
	 Total Energy              =    -458.0548116836174017 [Eh]
	 SCS Total Energy          =    -458.0393951175580014 [Eh]
                               Psi4 1.9 release
    Molecular point group: c1
  Multiplicity = 1
  Basis Set: AUG-CC-PVTZ
    Blend: AUG-CC-PVTZ
  Basis Set: (AUG-CC-PVTZ AUX)
    Blend: AUG-CC-PVTZ-JKFIT
  @DF-RHF Final Energy:  -459.57358731751026
    Total Energy =                       -459.5735873175102597
  Basis Set: (AUG-CC-PVTZ AUX)
	 Singles Energy            =      -0.0000000000000000 [Eh]
	 Same-Spin Energy          =      -0.0636166655766808 [Eh]
	 Opposite-Spin Energy      =      -0.1840700088206854 [Eh]
	 Correlation Energy        =      -0.2476866743973662 [Eh]
	 Total Energy              =    -459.8212739919076171 [Eh]
	 SCS Total Energy          =    -459.8156768832873240 [Eh]
                               Psi4 1.9 release
    Molecular point group: c1

    Geometry (in Bohr), charge = -1, multiplicity = 1:

       Center              X                  Y                   Z               Mass
    ------------   -----------------  -----------------  -----------------  -----------------
         CL           0.000000000000     0.000000000000     0.000000000000    34.968852682000
         O           -2.975345438641    -2.624710535515    -4.644489502653    15.994914619570
         H           -2.489213392867    -1.777113566190    -3.128985841820     1.007825032230
         H           -1.801632762667    -4.022397331331    -4.708494526522     1.007825032230
         O            1.966819392472     6.081214260768    -0.390111281887    15.994914619570
         H            2.517041499791     4.905643984013     0.881578024513     1.007825032230
         H            2.841823059795     5.439635233640    -1.855442714090     1.007825032230
         O            3.074754481471    -0.906439261420     5.416941512600    15.994914619570
         H            4.088439479963     0.660139917132     5.346088121252     1.007825032230
         H            1.710595206573    -0.662774195351     4.142846584841     1.007825032230
         O           -5.137615424817    -2.027320864105     3.072205240928    15.994914619570
         H           -4.947864245108    -1.113872608485     4.660223362374     1.007825032230
         H           -3.621004384474    -1.479220919225     2.236993536629     1.007825032230
         O            0.486799119096    -6.173340299111     0.637531233767    15.994914619570
         H           -0.900074663829    -6.634180250421     1.867419798273     1.007825032230
         H            0.208773162888    -4.362160640057     0.458120635416     1.007825032230
         O            2.815121229642     0.003647171422    -5.788301042144    15.994914619570
         H            1.859091775238     0.160267672700    -4.250647901394     1.007825032230
         H            3.474393762483    -1.657694213417    -6.004434688291     1.007825032230

  Charge       = -1
  Multiplicity = 1
  Basis Set: AUG-CC-PVTZ
    Blend: AUG-CC-PVTZ
  Basis Set: (AUG-CC-PVTZ AUX)
    Blend: AUG-CC-PVTZ-JKFIT

    Orbital Energies [Eh]
    ---------------------

    Doubly Occupied:

       1A   -104.607766     2A    -20.445346     3A    -20.439919
       4A    -20.437177     5A    -20.430214     6A    -20.427019
       7A    -20.414691     8A    -10.333152     9A     -7.799268
      10A     -7.799249    11A     -7.799154    12A     -1.229702
      13A     -1.220738    14A     -1.214307    15A     -1.206076
      16A     -1.203388    17A     -1.197810    18A     -0.853029
      19A     -0.598318    20A     -0.584839    21A     -0.571989
      22A     -0.571643    23A     -0.563426    24A     -0.553685
      25A     -0.470190    26A     -0.465803    27A     -0.451945
      28A     -0.448966    29A     -0.445371    30A     -0.438467
      31A     -0.389284    32A     -0.380611    33A     -0.378461
      34A     -0.377931    35A     -0.368496    36A     -0.358014
      37A     -0.265897    38A     -0.263638    39A     -0.259205

  @DF-RHF Final Energy:  -915.99488743647942

   => Energetics <=

    Nuclear Repulsion Energy =            390.8352450627707526
    One-Electron Energy =               -2057.1318824242212031
    Two-Electron Energy =                 750.3017499249709772
    Total Energy =                       -915.9948874364794165
 Dipole X            :         -3.9301066            4.7846354            0.8545287
 Dipole Y            :         56.4405911          -55.7193231            0.7212680
 Dipole Z            :         14.9104177          -13.9245263            0.9858914
 Magnitude           :                                                    1.4907812
  Basis Set: (AUG-CC-PVTZ AUX)
    Blend: AUG-CC-PVTZ-RI
	 Reference Energy          =    -915.9948874364794165 [Eh]
	 Singles Energy            =      -0.0000000000000000 [Eh]
	 Same-Spin Energy          =      -0.4866367551816194 [Eh]
	 Opposite-Spin Energy      =      -1.4925649477288256 [Eh]
	 Correlation Energy        =      -1.9792017029104449 [Eh]
	 Total Energy              =    -917.9740891393898892 [Eh]

	 ================> DF-SCS-MP2 Energies <==================
	-----------------------------------------------------------
	 SCS Same-Spin Scale       =       0.3333333333333333 [-]
	 SCS Opposite-Spin Scale   =       1.2000000000000000 [-]
	 SCS Same-Spin Energy      =      -0.1622122517272064 [Eh]
	 SCS Opposite-Spin Energy  =      -1.7910779372745906 [Eh]
	 SCS Correlation Energy    =      -1.9532901890017971 [Eh]
	 SCS Total Energy          =    -917.9481776254812075 [Eh]
	-----------------------------------------------------------

*** Psi4 exiting successfully. Buy a developer a beer!
