                               Psi4 1.8.2 release

  ==> Input File <==

--------------------------------------------------------------------------
MEMORY 60 GB

molecule dimer {
0 1
Gh(Cl)     0.000000     0.000000     0.000000
Gh(O)     -2.410834    -0.087828    -2.505110
Gh(H)     -1.817553    -0.796160    -2.294247
Gh(H)     -2.723707    -0.242293    -3.424832
O         -2.085208     1.991842     1.728213
H         -1.416728     1.372400     1.423648
H         -2.024935     2.657723     1.018972
Gh(O)     -1.336003     2.724781    -1.712998
Gh(H)     -1.329154     2.487387    -2.671129
Gh(H)     -1.463313     1.836521    -1.398655
Gh(O)      0.693185     1.358756     3.016970
Gh(H)      0.630046     0.870811     3.863689
Gh(H)      0.669578     0.732034     2.210643
Gh(O)      2.806877     0.571110    -1.252195
Gh(H)      2.915446     1.526704    -1.285028
Gh(H)      1.961445     0.365407    -0.870162
Gh(O)      0.909191    -2.895189    -1.081663
Gh(H)      1.611131    -2.667095    -1.699815
Gh(H)      0.566234    -2.019767    -0.903729

units ang
no_reorient
no_com
symmetry c1
}

set {
basis        aug-cc-pVTZ
scf_type     df
}

energy("mp2")
--------------------------------------------------------------------------

    Molecular point group: c1

    Geometry (in Angstrom), charge = 0, multiplicity = 1:

       Center              X                  Y                   Z               Mass
    ------------   -----------------  -----------------  -----------------  -----------------
      Gh(CL)          0.000000000000     0.000000000000     0.000000000000    34.968852682000
      Gh(O)          -2.410834000000    -0.087828000000    -2.505110000000    15.994914619570
      Gh(H)          -1.817553000000    -0.796160000000    -2.294247000000     1.007825032230
      Gh(H)          -2.723707000000    -0.242293000000    -3.424832000000     1.007825032230
         O           -2.085208000000     1.991842000000     1.728213000000    15.994914619570
         H           -1.416728000000     1.372400000000     1.423648000000     1.007825032230
         H           -2.024935000000     2.657723000000     1.018972000000     1.007825032230
      Gh(O)          -1.336003000000     2.724781000000    -1.712998000000    15.994914619570
      Gh(H)          -1.329154000000     2.487387000000    -2.671129000000     1.007825032230
      Gh(H)          -1.463313000000     1.836521000000    -1.398655000000     1.007825032230
      Gh(O)           0.693185000000     1.358756000000     3.016970000000    15.994914619570
      Gh(H)           0.630046000000     0.870811000000     3.863689000000     1.007825032230
      Gh(H)           0.669578000000     0.732034000000     2.210643000000     1.007825032230
      Gh(O)           2.806877000000     0.571110000000    -1.252195000000    15.994914619570
      Gh(H)           2.915446000000     1.526704000000    -1.285028000000     1.007825032230
      Gh(H)           1.961445000000     0.365407000000    -0.870162000000     1.007825032230
      Gh(O)           0.909191000000    -2.895189000000    -1.081663000000    15.994914619570
      Gh(H)           1.611131000000    -2.667095000000    -1.699815000000     1.007825032230
      Gh(H)           0.566234000000    -2.019767000000    -0.903729000000     1.007825032230

  Charge       = 0
  Multiplicity = 1
  Basis Set: AUG-CC-PVTZ
    Blend: AUG-CC-PVTZ
  Basis Set: (AUG-CC-PVTZ AUX)
    Blend: AUG-CC-PVTZ-JKFIT

    Orbital Energies [Eh]
    ---------------------

    Doubly Occupied:

       1A    -20.571081     2A     -1.351734     3A     -0.702362
       4A     -0.592480     5A     -0.510912

  @DF-RHF Final Energy:   -76.05882543397435

   => Energetics <=

    Nuclear Repulsion Energy =              9.1068750735956154
    One-Electron Energy =                -122.8742570267611427
    Two-Electron Energy =                  37.7085565191911769
    Total Energy =                        -76.0588254339743486
 Dipole X            :         38.5037758          -38.0275768            0.4761990
 Dipole Y            :        -37.7004928           37.7281156            0.0276229
 Dipole Z            :        -31.4030478           30.7426769           -0.6603709
 Magnitude           :                                                    0.8146277
  Basis Set: (AUG-CC-PVTZ AUX)
    Blend: AUG-CC-PVTZ-RI
	 Reference Energy          =     -76.0588254339743486 [Eh]
	 Singles Energy            =      -0.0000000000000000 [Eh]
	 Same-Spin Energy          =      -0.0687122566811853 [Eh]
	 Opposite-Spin Energy      =      -0.2168598832942268 [Eh]
	 Correlation Energy        =      -0.2855721399754121 [Eh]
	 Total Energy              =     -76.3443975739497631 [Eh]

	 ================> DF-SCS-MP2 Energies <==================
	-----------------------------------------------------------
	 SCS Same-Spin Scale       =       0.3333333333333333 [-]
	 SCS Opposite-Spin Scale   =       1.2000000000000000 [-]
	 SCS Same-Spin Energy      =      -0.0229040855603951 [Eh]
	 SCS Opposite-Spin Energy  =      -0.2602318599530721 [Eh]
	 SCS Correlation Energy    =      -0.2831359455134672 [Eh]
	 SCS Total Energy          =     -76.3419613794878131 [Eh]
	-----------------------------------------------------------

*** Psi4 exiting successfully. Buy a developer a beer!
