                               Psi4 1.8.2 release

  ==> Input File <==

--------------------------------------------------------------------------
MEMORY 60 GB

molecule dimer {
-1 1
Cl         0.000000     0.000000     0.000000
O          2.347456    -0.658120     1.836924
H          1.503461    -0.342108     1.498010
H          3.023913    -0.371611     1.184006
O          1.476974    -2.981181    -0.401283
H          1.428877    -2.124141     0.044335
H          0.987391    -2.973805    -1.261521
O          1.221048    -0.028193    -3.177290
H          0.809868    -0.267015    -2.372466
H          1.740949     0.746334    -2.920550
O         -0.343156     1.510349     2.607781
H         -0.163751     0.855136     1.877864
H          0.291671     2.275670     2.361551
O         -1.949830    -2.734697     0.889703
H         -2.584009    -2.204144     1.367376
H         -1.302316    -2.065112     0.692981

units ang
no_reorient
no_com
symmetry c1
}

set {
basis        aug-cc-pVTZ
scf_type     df
}

energy("mp2")
--------------------------------------------------------------------------

    Molecular point group: c1

    Geometry (in Angstrom), charge = -1, multiplicity = 1:

       Center              X                  Y                   Z               Mass
    ------------   -----------------  -----------------  -----------------  -----------------
         CL           0.000000000000     0.000000000000     0.000000000000    34.968852682000
         O            2.347456000000    -0.658120000000     1.836924000000    15.994914619570
         H            1.503461000000    -0.342108000000     1.498010000000     1.007825032230
         H            3.023913000000    -0.371611000000     1.184006000000     1.007825032230
         O            1.476974000000    -2.981181000000    -0.401283000000    15.994914619570
         H            1.428877000000    -2.124141000000     0.044335000000     1.007825032230
         H            0.987391000000    -2.973805000000    -1.261521000000     1.007825032230
         O            1.221048000000    -0.028193000000    -3.177290000000    15.994914619570
         H            0.809868000000    -0.267015000000    -2.372466000000     1.007825032230
         H            1.740949000000     0.746334000000    -2.920550000000     1.007825032230
         O           -0.343156000000     1.510349000000     2.607781000000    15.994914619570
         H           -0.163751000000     0.855136000000     1.877864000000     1.007825032230
         H            0.291671000000     2.275670000000     2.361551000000     1.007825032230
         O           -1.949830000000    -2.734697000000     0.889703000000    15.994914619570
         H           -2.584009000000    -2.204144000000     1.367376000000     1.007825032230
         H           -1.302316000000    -2.065112000000     0.692981000000     1.007825032230

  Charge       = -1
  Multiplicity = 1
  Basis Set: AUG-CC-PVTZ
    Blend: AUG-CC-PVTZ
  Basis Set: (AUG-CC-PVTZ AUX)
    Blend: AUG-CC-PVTZ-JKFIT

    Orbital Energies [Eh]
    ---------------------

    Doubly Occupied:

       1A   -104.601714     2A    -20.435487     3A    -20.423662
       4A    -20.418699     5A    -20.417207     6A    -20.415509
       7A    -10.327637     8A     -7.793777     9A     -7.793640
      10A     -7.793621    11A     -1.228863    12A     -1.216148
      13A     -1.200885    14A     -1.188378    15A     -1.176195
      16A     -0.850408    17A     -0.588476    18A     -0.572520
      19A     -0.569175    20A     -0.567139    21A     -0.535055
      22A     -0.465364    23A     -0.456307    24A     -0.441658
      25A     -0.433322    26A     -0.421827    27A     -0.383285
      28A     -0.370217    29A     -0.365857    30A     -0.357529
      31A     -0.352878    32A     -0.260608    33A     -0.256861
      34A     -0.254283

  @DF-RHF Final Energy:  -839.92171600261838

   => Energetics <=

    Nuclear Repulsion Energy =            308.1874509391630568
    One-Electron Energy =               -1786.3499465332567979
    Two-Electron Energy =                 638.2407795914754161
    Total Energy =                       -839.9217160026183819
 Dipole X            :        -52.6649038           52.4512194           -0.2136843
 Dipole Y            :         88.5768355          -86.1819653            2.3948702
 Dipole Z            :        -32.2091943           31.2149988           -0.9941955
 Magnitude           :                                                    2.6018241
  Basis Set: (AUG-CC-PVTZ AUX)
    Blend: AUG-CC-PVTZ-RI
	 Reference Energy          =    -839.9217160026183819 [Eh]
	 Singles Energy            =      -0.0000000000000000 [Eh]
	 Same-Spin Energy          =      -0.4180475689029499 [Eh]
	 Opposite-Spin Energy      =      -1.2764276677024555 [Eh]
	 Correlation Energy        =      -1.6944752366054054 [Eh]
	 Total Energy              =    -841.6161912392237809 [Eh]

	 ================> DF-SCS-MP2 Energies <==================
	-----------------------------------------------------------
	 SCS Same-Spin Scale       =       0.3333333333333333 [-]
	 SCS Opposite-Spin Scale   =       1.2000000000000000 [-]
	 SCS Same-Spin Energy      =      -0.1393491896343166 [Eh]
	 SCS Opposite-Spin Energy  =      -1.5317132012429466 [Eh]
	 SCS Correlation Energy    =      -1.6710623908772633 [Eh]
	 SCS Total Energy          =    -841.5927783934956778 [Eh]
	-----------------------------------------------------------

*** Psi4 exiting successfully. Buy a developer a beer!
