                               Psi4 1.8.2 release

  ==> Input File <==

--------------------------------------------------------------------------
MEMORY 60 GB

molecule dimer {
0 1
Gh(Cl)     0.000000     0.000000     0.000000
Gh(O)      1.401814     3.004279    -0.293739
Gh(H)      1.286935     2.071480    -0.547510
Gh(H)      0.587179     3.446356    -0.499197
Gh(O)      2.350678    -2.241718     0.338880
Gh(H)      1.723621    -1.571284     0.204117
Gh(H)      2.824680    -2.355887    -0.493503
Gh(O)      1.245199    -0.336761     2.824372
Gh(H)      0.470260     0.235926     2.905006
Gh(H)      1.361956    -0.347042     1.858412
O         -1.541109    -2.418693     1.370070
H         -0.925165    -1.895960     0.786732
H         -2.220385    -1.862267     1.722704

units ang
no_reorient
no_com
symmetry c1
}

set {
basis        aug-cc-pVTZ
scf_type     df
}

energy("mp2")
--------------------------------------------------------------------------

    Molecular point group: c1

    Geometry (in Angstrom), charge = 0, multiplicity = 1:

       Center              X                  Y                   Z               Mass
    ------------   -----------------  -----------------  -----------------  -----------------
      Gh(CL)          0.000000000000     0.000000000000     0.000000000000    34.968852682000
      Gh(O)           1.401814000000     3.004279000000    -0.293739000000    15.994914619570
      Gh(H)           1.286935000000     2.071480000000    -0.547510000000     1.007825032230
      Gh(H)           0.587179000000     3.446356000000    -0.499197000000     1.007825032230
      Gh(O)           2.350678000000    -2.241718000000     0.338880000000    15.994914619570
      Gh(H)           1.723621000000    -1.571284000000     0.204117000000     1.007825032230
      Gh(H)           2.824680000000    -2.355887000000    -0.493503000000     1.007825032230
      Gh(O)           1.245199000000    -0.336761000000     2.824372000000    15.994914619570
      Gh(H)           0.470260000000     0.235926000000     2.905006000000     1.007825032230
      Gh(H)           1.361956000000    -0.347042000000     1.858412000000     1.007825032230
         O           -1.541109000000    -2.418693000000     1.370070000000    15.994914619570
         H           -0.925165000000    -1.895960000000     0.786732000000     1.007825032230
         H           -2.220385000000    -1.862267000000     1.722704000000     1.007825032230

  Charge       = 0
  Multiplicity = 1
  Basis Set: AUG-CC-PVTZ
    Blend: AUG-CC-PVTZ
  Basis Set: (AUG-CC-PVTZ AUX)
    Blend: AUG-CC-PVTZ-JKFIT

    Orbital Energies [Eh]
    ---------------------

    Doubly Occupied:

       1A    -20.566537     2A     -1.342735     3A     -0.721439
       4A     -0.570085     5A     -0.507318

  @DF-RHF Final Energy:   -76.05747332803399

   => Energetics <=

    Nuclear Repulsion Energy =              9.0534784428639217
    One-Electron Energy =                -122.8056732588840703
    Two-Electron Energy =                  37.6947214879861647
    Total Energy =                        -76.0574733280339785
 Dipole X            :         29.1943475          -29.2424195           -0.0480720
 Dipole Y            :         44.3931128          -43.6673586            0.7257543
 Dipole Z            :        -25.6060604           25.4546034           -0.1514570
 Magnitude           :                                                    0.7429464
  Basis Set: (AUG-CC-PVTZ AUX)
    Blend: AUG-CC-PVTZ-RI
	 Reference Energy          =     -76.0574733280339927 [Eh]
	 Singles Energy            =      -0.0000000000000000 [Eh]
	 Same-Spin Energy          =      -0.0685461517633977 [Eh]
	 Opposite-Spin Energy      =      -0.2162325014698999 [Eh]
	 Correlation Energy        =      -0.2847786532332975 [Eh]
	 Total Energy              =     -76.3422519812672959 [Eh]

	 ================> DF-SCS-MP2 Energies <==================
	-----------------------------------------------------------
	 SCS Same-Spin Scale       =       0.3333333333333333 [-]
	 SCS Opposite-Spin Scale   =       1.2000000000000000 [-]
	 SCS Same-Spin Energy      =      -0.0228487172544659 [Eh]
	 SCS Opposite-Spin Energy  =      -0.2594790017638798 [Eh]
	 SCS Correlation Energy    =      -0.2823277190183457 [Eh]
	 SCS Total Energy          =     -76.3398010470523332 [Eh]
	-----------------------------------------------------------

*** Psi4 exiting successfully. Buy a developer a beer!
