                               Psi4 1.9 release

  ==> Input File <==

--------------------------------------------------------------------------
MEMORY 60 GB

molecule dimer {
-1 1
Cl     0.000000     0.000000     0.000000
--
0 1
O     -1.229184    -2.993822     0.453137
H     -0.418614    -3.395812     0.092820
H     -1.013280    -2.074811     0.585463
O     -1.235222    -1.766810    -2.572586
H     -2.178163    -1.662201    -2.417220
H     -0.769873    -1.718371    -1.664414
O     -1.384432    -0.260144     2.883153
H     -0.766609    -0.589156     3.510778
H     -0.859119    -0.152996     2.083720
O      1.607896     0.813395    -2.710175
H      2.315273     1.449805    -2.414289
H      1.015105     0.595265    -1.995542
O      1.117807     2.673918     1.419992
H      1.158491     1.823418     1.031762
H      0.169419     2.693657     1.399060
O     -2.874762     0.414810    -1.653760
H     -2.035974     0.467676    -1.186949
H     -3.362591    -0.291211    -1.125177

units ang
no_reorient
no_com
symmetry c1
}

set {
basis        aug-cc-pVTZ
scf_type     df
}

energy("mp2", bsse_type="cp")
--------------------------------------------------------------------------

                               Psi4 1.9 release
    Molecular point group: c1
  Charge       = 0
  Multiplicity = 1
  Basis Set: AUG-CC-PVTZ
    Blend: AUG-CC-PVTZ
  Basis Set: (AUG-CC-PVTZ AUX)
    Blend: AUG-CC-PVTZ-JKFIT
  @DF-RHF Final Energy:  -456.32549590767826
    Total Energy =                       -456.3254959076782598
 Dipole X            :         73.8980857          -73.1874129            0.7106728
 Dipole Y            :         21.9120298          -22.3062535           -0.3942237
 Dipole Z            :         38.4106225          -36.9288390            1.4817835
 Magnitude           :                                                    1.6900149
  Basis Set: (AUG-CC-PVTZ AUX)
    Blend: AUG-CC-PVTZ-RI
	 Reference Energy          =    -456.3254959076782598 [Eh]
	 Singles Energy            =      -0.0000000000000000 [Eh]
	 Same-Spin Energy          =      -0.4150125984235051 [Eh]
	 Opposite-Spin Energy      =      -1.3035722520831048 [Eh]
	 Correlation Energy        =      -1.7185848505066099 [Eh]
	 Total Energy              =    -458.0440807581848617 [Eh]
	 SCS Total Energy          =    -458.0281201429858129 [Eh]
                               Psi4 1.9 release
    Molecular point group: c1
  Multiplicity = 1
  Basis Set: AUG-CC-PVTZ
    Blend: AUG-CC-PVTZ
  Basis Set: (AUG-CC-PVTZ AUX)
    Blend: AUG-CC-PVTZ-JKFIT
  @DF-RHF Final Energy:  -459.57359291823371
    Total Energy =                       -459.5735929182337713
  Basis Set: (AUG-CC-PVTZ AUX)
	 Singles Energy            =      -0.0000000000000000 [Eh]
	 Same-Spin Energy          =      -0.0636631209515689 [Eh]
	 Opposite-Spin Energy      =      -0.1843831627841572 [Eh]
	 Correlation Energy        =      -0.2480462837357261 [Eh]
	 Total Energy              =    -459.8216392019694467 [Eh]
	 SCS Total Energy          =    -459.8160737538918852 [Eh]
                               Psi4 1.9 release
    Molecular point group: c1

    Geometry (in Bohr), charge = -1, multiplicity = 1:

       Center              X                  Y                   Z               Mass
    ------------   -----------------  -----------------  -----------------  -----------------
         CL           0.000000000000     0.000000000000     0.000000000000    34.968852682000
         O           -2.322821117795    -5.657503648370     0.856304827312    15.994914619570
         H           -0.791065812282    -6.417154653543     0.175404378965     1.007825032230
         H           -1.914821688404    -3.920824552087     1.106364726589     1.007825032230
         O           -2.334231284140    -3.338787015720    -4.861482974187    15.994914619570
         H           -4.116131526606    -3.141104655462    -4.567883784979     1.007825032230
         H           -1.454849121385    -3.247250571929    -3.145286619378     1.007825032230
         O           -2.616197319320    -0.491600913181     5.448369547792    15.994914619570
         H           -1.448681055311    -1.113343485170     6.634408907283     1.007825032230
         H           -1.623499619177    -0.289120538291     3.937660122139     1.007825032230
         O            3.038483078219     1.537093781817    -5.121488502063    15.994914619570
         H            4.375231875667     2.739734385319    -4.562344997705     1.007825032230
         H            1.918270438583     1.124887822071    -3.771027851848     1.007825032230
         O            2.112349091120     5.052972701932     2.683395980341    15.994914619570
         H            2.189230708808     3.445760632230     1.949747606655     1.007825032230
         H            0.320155510449     5.090274005922     2.643840233083     1.007825032230
         O           -5.432512855873     0.783877294101    -3.125153477237    15.994914619570
         H           -3.847433258553     0.883779555450    -2.243008534886     1.007825032230
         H           -6.354376061929    -0.550309034721    -2.126276372664     1.007825032230

  Charge       = -1
  Multiplicity = 1
  Basis Set: AUG-CC-PVTZ
    Blend: AUG-CC-PVTZ
  Basis Set: (AUG-CC-PVTZ AUX)
    Blend: AUG-CC-PVTZ-JKFIT

    Orbital Energies [Eh]
    ---------------------

    Doubly Occupied:

       1A   -104.616847     2A    -20.436885     3A    -20.434351
       4A    -20.431118     5A    -20.428520     6A    -20.419805
       7A    -20.413473     8A    -10.342728     9A     -7.808838
      10A     -7.808813    11A     -7.808747    12A     -1.233196
      13A     -1.226221    14A     -1.222884    15A     -1.209296
      16A     -1.195517    17A     -1.181755    18A     -0.865143
      19A     -0.592583    20A     -0.586851    21A     -0.576979
      22A     -0.567659    23A     -0.565072    24A     -0.553407
      25A     -0.480174    26A     -0.461559    27A     -0.459095
      28A     -0.455670    29A     -0.428563    30A     -0.427107
      31A     -0.387140    32A     -0.381227    33A     -0.378146
      34A     -0.375031    35A     -0.362949    36A     -0.345811
      37A     -0.275527    38A     -0.273808    39A     -0.271468

  @DF-RHF Final Energy:  -915.98886336908527

   => Energetics <=

    Nuclear Repulsion Energy =            403.8472590536104576
    One-Electron Energy =               -2083.0923177146460148
    Two-Electron Energy =                 763.2561952919502346
    Total Energy =                       -915.9888633690852657
 Dipole X            :         74.2865163          -73.1874129            1.0991035
 Dipole Y            :         22.0274581          -22.3062535           -0.2787954
 Dipole Z            :         38.4329158          -36.9288390            1.5040768
 Magnitude           :                                                    1.8836142
  Basis Set: (AUG-CC-PVTZ AUX)
    Blend: AUG-CC-PVTZ-RI
	 Reference Energy          =    -915.9888633690852657 [Eh]
	 Singles Energy            =      -0.0000000000000000 [Eh]
	 Same-Spin Energy          =      -0.4883523935976523 [Eh]
	 Opposite-Spin Energy      =      -1.4938057261581921 [Eh]
	 Correlation Energy        =      -1.9821581197558444 [Eh]
	 Total Energy              =    -917.9710214888410746 [Eh]

	 ================> DF-SCS-MP2 Energies <==================
	-----------------------------------------------------------
	 SCS Same-Spin Scale       =       0.3333333333333333 [-]
	 SCS Opposite-Spin Scale   =       1.2000000000000000 [-]
	 SCS Same-Spin Energy      =      -0.1627841311992174 [Eh]
	 SCS Opposite-Spin Energy  =      -1.7925668713898304 [Eh]
	 SCS Correlation Energy    =      -1.9553510025890479 [Eh]
	 SCS Total Energy          =    -917.9442143716743203 [Eh]
	-----------------------------------------------------------

*** Psi4 exiting successfully. Buy a developer a beer!
