                               Psi4 1.8.2 release

  ==> Input File <==

--------------------------------------------------------------------------
MEMORY 60 GB

molecule dimer {
-1 1
Cl         0.000000     0.000000     0.000000
Gh(O)      2.039085    -2.462644     0.200988
Gh(H)      1.844667    -1.848434    -0.539502
Gh(H)      2.791815    -2.941769    -0.104662
Gh(O)      2.498699     1.474611    -1.093244
Gh(H)      2.371003     1.199564    -1.994894
Gh(H)      1.745902     1.188647    -0.615483
Gh(O)      2.394840    -0.079249     2.053779
Gh(H)      1.775513     0.099764     2.735700
Gh(H)      1.874464    -0.207619     1.256205
Gh(O)     -0.383324     2.887532     1.419545
Gh(H)     -0.168626     2.055517     0.996479
Gh(H)      0.449266     3.337289     1.431516
Gh(O)     -2.136232     0.804329    -2.001926
Gh(H)     -2.664027     1.566950    -2.332419
Gh(H)     -1.432285     1.115994    -1.486120

units ang
no_reorient
no_com
symmetry c1
}

set {
basis        aug-cc-pVTZ
scf_type     df
}

energy("mp2")
--------------------------------------------------------------------------

    Molecular point group: c1

    Geometry (in Angstrom), charge = -1, multiplicity = 1:

       Center              X                  Y                   Z               Mass
    ------------   -----------------  -----------------  -----------------  -----------------
         CL           0.000000000000     0.000000000000     0.000000000000    34.968852682000
      Gh(O)           2.039085000000    -2.462644000000     0.200988000000    15.994914619570
      Gh(H)           1.844667000000    -1.848434000000    -0.539502000000     1.007825032230
      Gh(H)           2.791815000000    -2.941769000000    -0.104662000000     1.007825032230
      Gh(O)           2.498699000000     1.474611000000    -1.093244000000    15.994914619570
      Gh(H)           2.371003000000     1.199564000000    -1.994894000000     1.007825032230
      Gh(H)           1.745902000000     1.188647000000    -0.615483000000     1.007825032230
      Gh(O)           2.394840000000    -0.079249000000     2.053779000000    15.994914619570
      Gh(H)           1.775513000000     0.099764000000     2.735700000000     1.007825032230
      Gh(H)           1.874464000000    -0.207619000000     1.256205000000     1.007825032230
      Gh(O)          -0.383324000000     2.887532000000     1.419545000000    15.994914619570
      Gh(H)          -0.168626000000     2.055517000000     0.996479000000     1.007825032230
      Gh(H)           0.449266000000     3.337289000000     1.431516000000     1.007825032230
      Gh(O)          -2.136232000000     0.804329000000    -2.001926000000    15.994914619570
      Gh(H)          -2.664027000000     1.566950000000    -2.332419000000     1.007825032230
      Gh(H)          -1.432285000000     1.115994000000    -1.486120000000     1.007825032230

  Charge       = -1
  Multiplicity = 1
  Basis Set: AUG-CC-PVTZ
    Blend: AUG-CC-PVTZ
  Basis Set: (AUG-CC-PVTZ AUX)
    Blend: AUG-CC-PVTZ-JKFIT

    Orbital Energies [Eh]
    ---------------------

    Doubly Occupied:

       1A   -104.507302     2A    -10.230072     3A     -7.696149
       4A     -7.696130     5A     -7.696110     6A     -0.733467
       7A     -0.150311     8A     -0.150306     9A     -0.150302

  @DF-RHF Final Energy:  -459.57357966985188

   => Energetics <=

    Nuclear Repulsion Energy =              0.0000000000000000
    One-Electron Energy =                -641.1268757394078648
    Two-Electron Energy =                 181.5532960695559836
    Total Energy =                       -459.5735796698518811
 Dipole X            :          0.0001326            0.0000000            0.0001326
 Dipole Y            :          0.0003586            0.0000000            0.0003586
 Dipole Z            :          0.0000667            0.0000000            0.0000667
 Magnitude           :                                                    0.0003881
  Basis Set: (AUG-CC-PVTZ AUX)
    Blend: AUG-CC-PVTZ-RI
	 Reference Energy          =    -459.5735796698518811 [Eh]
	 Singles Energy            =      -0.0000000000000000 [Eh]
	 Same-Spin Energy          =      -0.0635731570712845 [Eh]
	 Opposite-Spin Energy      =      -0.1839532317190395 [Eh]
	 Correlation Energy        =      -0.2475263887903240 [Eh]
	 Total Energy              =    -459.8211060586422150 [Eh]

	 ================> DF-SCS-MP2 Energies <==================
	-----------------------------------------------------------
	 SCS Same-Spin Scale       =       0.3333333333333333 [-]
	 SCS Opposite-Spin Scale   =       1.2000000000000000 [-]
	 SCS Same-Spin Energy      =      -0.0211910523570948 [Eh]
	 SCS Opposite-Spin Energy  =      -0.2207438780628474 [Eh]
	 SCS Correlation Energy    =      -0.2419349304199422 [Eh]
	 SCS Total Energy          =    -459.8155146002717970 [Eh]
	-----------------------------------------------------------

*** Psi4 exiting successfully. Buy a developer a beer!
