                               Psi4 1.8.2 release

  ==> Input File <==

--------------------------------------------------------------------------
MEMORY 60 GB

molecule dimer {
-1 1
Cl         0.000000     0.000000     0.000000
O          0.492480     2.119925     2.296583
H          1.238518     2.643439     2.041108
H          0.428501     1.470490     1.595291
O          1.846097    -0.277742    -2.537849
H          1.865917     0.411947    -1.809728
H          2.620355    -0.119265    -3.081945
O          3.187083    -0.808910     0.753096
H          3.837814    -1.275304     0.218624
H          2.304602    -0.967605     0.432768
O          0.003568    -2.530042     1.974166
H          0.083099    -2.248155     2.894335
H         -0.019839    -1.660895     1.441275
O         -3.021706     1.403988     0.981928
H         -3.587380     0.629525     1.177356
H         -2.182889     0.987880     0.753889

units ang
no_reorient
no_com
symmetry c1
}

set {
basis        aug-cc-pVTZ
scf_type     df
}

energy("mp2")
--------------------------------------------------------------------------

    Molecular point group: c1

    Geometry (in Angstrom), charge = -1, multiplicity = 1:

       Center              X                  Y                   Z               Mass
    ------------   -----------------  -----------------  -----------------  -----------------
         CL           0.000000000000     0.000000000000     0.000000000000    34.968852682000
         O            0.492480000000     2.119925000000     2.296583000000    15.994914619570
         H            1.238518000000     2.643439000000     2.041108000000     1.007825032230
         H            0.428501000000     1.470490000000     1.595291000000     1.007825032230
         O            1.846097000000    -0.277742000000    -2.537849000000    15.994914619570
         H            1.865917000000     0.411947000000    -1.809728000000     1.007825032230
         H            2.620355000000    -0.119265000000    -3.081945000000     1.007825032230
         O            3.187083000000    -0.808910000000     0.753096000000    15.994914619570
         H            3.837814000000    -1.275304000000     0.218624000000     1.007825032230
         H            2.304602000000    -0.967605000000     0.432768000000     1.007825032230
         O            0.003568000000    -2.530042000000     1.974166000000    15.994914619570
         H            0.083099000000    -2.248155000000     2.894335000000     1.007825032230
         H           -0.019839000000    -1.660895000000     1.441275000000     1.007825032230
         O           -3.021706000000     1.403988000000     0.981928000000    15.994914619570
         H           -3.587380000000     0.629525000000     1.177356000000     1.007825032230
         H           -2.182889000000     0.987880000000     0.753889000000     1.007825032230

  Charge       = -1
  Multiplicity = 1
  Basis Set: AUG-CC-PVTZ
    Blend: AUG-CC-PVTZ
  Basis Set: (AUG-CC-PVTZ AUX)
    Blend: AUG-CC-PVTZ-JKFIT

    Orbital Energies [Eh]
    ---------------------

    Doubly Occupied:

       1A   -104.580426     2A    -20.438749     3A    -20.423444
       4A    -20.419485     5A    -20.407815     6A    -20.401169
       7A    -10.305704     8A     -7.771798     9A     -7.771773
      10A     -7.771745    11A     -1.210778    12A     -1.209113
      13A     -1.198875    14A     -1.195636    15A     -1.176835
      16A     -0.825143    17A     -0.590979    18A     -0.577063
      19A     -0.559582    20A     -0.555744    21A     -0.540917
      22A     -0.445701    23A     -0.441362    24A     -0.435898
      25A     -0.431589    26A     -0.423269    27A     -0.379141
      28A     -0.368782    29A     -0.361774    30A     -0.350288
      31A     -0.347770    32A     -0.237152    33A     -0.235939
      34A     -0.233579

  @DF-RHF Final Energy:  -839.91954513033943

   => Energetics <=

    Nuclear Repulsion Energy =            300.0315917160427830
    One-Electron Energy =               -1770.6522265848345796
    Two-Electron Energy =                 630.7010897384523105
    Total Energy =                       -839.9195451303394293
 Dipole X            :        -49.5286367           50.3590734            0.8304367
 Dipole Y            :          1.6662717           -1.6444227            0.0218490
 Dipole Z            :        -64.5788009           63.1288807           -1.4499202
 Magnitude           :                                                    1.6710390
  Basis Set: (AUG-CC-PVTZ AUX)
    Blend: AUG-CC-PVTZ-RI
	 Reference Energy          =    -839.9195451303394293 [Eh]
	 Singles Energy            =      -0.0000000000000000 [Eh]
	 Same-Spin Energy          =      -0.4166682729392134 [Eh]
	 Opposite-Spin Energy      =      -1.2738589532578308 [Eh]
	 Correlation Energy        =      -1.6905272261970441 [Eh]
	 Total Energy              =    -841.6100723565364206 [Eh]

	 ================> DF-SCS-MP2 Energies <==================
	-----------------------------------------------------------
	 SCS Same-Spin Scale       =       0.3333333333333333 [-]
	 SCS Opposite-Spin Scale   =       1.2000000000000000 [-]
	 SCS Same-Spin Energy      =      -0.1388894243130711 [Eh]
	 SCS Opposite-Spin Energy  =      -1.5286307439093969 [Eh]
	 SCS Correlation Energy    =      -1.6675201682224681 [Eh]
	 SCS Total Energy          =    -841.5870652985619245 [Eh]
	-----------------------------------------------------------

*** Psi4 exiting successfully. Buy a developer a beer!
