                               Psi4 1.8.2 release

  ==> Input File <==

--------------------------------------------------------------------------
MEMORY 60 GB

molecule dimer {
-1 1
Cl         0.000000     0.000000     0.000000
Gh(O)      2.141828    -1.926721     1.172770
Gh(H)      2.506845    -2.704525     0.813382
Gh(H)      1.387579    -1.666552     0.663666
Gh(O)     -1.667403    -0.134156    -2.964265
Gh(H)     -1.403386     0.216697    -2.118502
Gh(H)     -1.930230     0.658899    -3.498868
Gh(O)      1.685848     1.175691    -2.172477
Gh(H)      2.426841     0.570382    -2.393280
Gh(H)      1.275175     0.748865    -1.444869
Gh(O)     -2.150305    -0.295435     2.705843
Gh(H)     -1.521020    -0.158825     2.012721
Gh(H)     -1.597698    -0.371338     3.511263
Gh(O)     -2.367779    -2.039496    -0.941391
Gh(H)     -1.594146    -1.458780    -0.729704
Gh(H)     -2.441774    -2.608355    -0.193390

units ang
no_reorient
no_com
symmetry c1
}

set {
basis        aug-cc-pVTZ
scf_type     df
}

energy("mp2")
--------------------------------------------------------------------------

    Molecular point group: c1

    Geometry (in Angstrom), charge = -1, multiplicity = 1:

       Center              X                  Y                   Z               Mass
    ------------   -----------------  -----------------  -----------------  -----------------
         CL           0.000000000000     0.000000000000     0.000000000000    34.968852682000
      Gh(O)           2.141828000000    -1.926721000000     1.172770000000    15.994914619570
      Gh(H)           2.506845000000    -2.704525000000     0.813382000000     1.007825032230
      Gh(H)           1.387579000000    -1.666552000000     0.663666000000     1.007825032230
      Gh(O)          -1.667403000000    -0.134156000000    -2.964265000000    15.994914619570
      Gh(H)          -1.403386000000     0.216697000000    -2.118502000000     1.007825032230
      Gh(H)          -1.930230000000     0.658899000000    -3.498868000000     1.007825032230
      Gh(O)           1.685848000000     1.175691000000    -2.172477000000    15.994914619570
      Gh(H)           2.426841000000     0.570382000000    -2.393280000000     1.007825032230
      Gh(H)           1.275175000000     0.748865000000    -1.444869000000     1.007825032230
      Gh(O)          -2.150305000000    -0.295435000000     2.705843000000    15.994914619570
      Gh(H)          -1.521020000000    -0.158825000000     2.012721000000     1.007825032230
      Gh(H)          -1.597698000000    -0.371338000000     3.511263000000     1.007825032230
      Gh(O)          -2.367779000000    -2.039496000000    -0.941391000000    15.994914619570
      Gh(H)          -1.594146000000    -1.458780000000    -0.729704000000     1.007825032230
      Gh(H)          -2.441774000000    -2.608355000000    -0.193390000000     1.007825032230

  Charge       = -1
  Multiplicity = 1
  Basis Set: AUG-CC-PVTZ
    Blend: AUG-CC-PVTZ
  Basis Set: (AUG-CC-PVTZ AUX)
    Blend: AUG-CC-PVTZ-JKFIT

    Orbital Energies [Eh]
    ---------------------

    Doubly Occupied:

       1A   -104.507267     2A    -10.230057     3A     -7.696135
       4A     -7.696112     5A     -7.696093     6A     -0.733463
       7A     -0.150305     8A     -0.150303     9A     -0.150301

  @DF-RHF Final Energy:  -459.57358120851802

   => Energetics <=

    Nuclear Repulsion Energy =              0.0000000000000000
    One-Electron Energy =                -641.1271049099822221
    Two-Electron Energy =                 181.5535237014641723
    Total Energy =                       -459.5735812085180214
 Dipole X            :         -0.0000940            0.0000000           -0.0000940
 Dipole Y            :         -0.0001349            0.0000000           -0.0001349
 Dipole Z            :         -0.0001115            0.0000000           -0.0001115
 Magnitude           :                                                    0.0001987
  Basis Set: (AUG-CC-PVTZ AUX)
    Blend: AUG-CC-PVTZ-RI
	 Reference Energy          =    -459.5735812085180214 [Eh]
	 Singles Energy            =      -0.0000000000000000 [Eh]
	 Same-Spin Energy          =      -0.0635903028313298 [Eh]
	 Opposite-Spin Energy      =      -0.1841228070341960 [Eh]
	 Correlation Energy        =      -0.2477131098655257 [Eh]
	 Total Energy              =    -459.8212943183835364 [Eh]

	 ================> DF-SCS-MP2 Energies <==================
	-----------------------------------------------------------
	 SCS Same-Spin Scale       =       0.3333333333333333 [-]
	 SCS Opposite-Spin Scale   =       1.2000000000000000 [-]
	 SCS Same-Spin Energy      =      -0.0211967676104433 [Eh]
	 SCS Opposite-Spin Energy  =      -0.2209473684410351 [Eh]
	 SCS Correlation Energy    =      -0.2421441360514784 [Eh]
	 SCS Total Energy          =    -459.8157253445695005 [Eh]
	-----------------------------------------------------------

*** Psi4 exiting successfully. Buy a developer a beer!
