                               Psi4 1.8.2 release

  ==> Input File <==

--------------------------------------------------------------------------
MEMORY 60 GB

molecule dimer {
-1 1
Cl         0.000000     0.000000     0.000000
O          2.004466    -0.496177     2.546536
H          2.585244    -1.154785     2.189831
H          1.363421    -0.266412     1.830507
O          2.479580    -1.598125    -1.227379
H          1.827334    -1.093465    -0.781736
H          2.036467    -2.371329    -1.587810
O         -2.771537     0.837457     1.822875
H         -3.237440     0.820329     0.989508
H         -2.323566     0.003383     1.867055
O         -0.416174    -1.379225    -3.003309
H         -0.168991    -0.896023    -2.169454
H          0.155754    -2.140456    -3.062651

units ang
no_reorient
no_com
symmetry c1
}

set {
basis        aug-cc-pVTZ
scf_type     df
}

energy("mp2")
--------------------------------------------------------------------------

    Molecular point group: c1

    Geometry (in Angstrom), charge = -1, multiplicity = 1:

       Center              X                  Y                   Z               Mass
    ------------   -----------------  -----------------  -----------------  -----------------
         CL           0.000000000000     0.000000000000     0.000000000000    34.968852682000
         O            2.004466000000    -0.496177000000     2.546536000000    15.994914619570
         H            2.585244000000    -1.154785000000     2.189831000000     1.007825032230
         H            1.363421000000    -0.266412000000     1.830507000000     1.007825032230
         O            2.479580000000    -1.598125000000    -1.227379000000    15.994914619570
         H            1.827334000000    -1.093465000000    -0.781736000000     1.007825032230
         H            2.036467000000    -2.371329000000    -1.587810000000     1.007825032230
         O           -2.771537000000     0.837457000000     1.822875000000    15.994914619570
         H           -3.237440000000     0.820329000000     0.989508000000     1.007825032230
         H           -2.323566000000     0.003383000000     1.867055000000     1.007825032230
         O           -0.416174000000    -1.379225000000    -3.003309000000    15.994914619570
         H           -0.168991000000    -0.896023000000    -2.169454000000     1.007825032230
         H            0.155754000000    -2.140456000000    -3.062651000000     1.007825032230

  Charge       = -1
  Multiplicity = 1
  Basis Set: AUG-CC-PVTZ
    Blend: AUG-CC-PVTZ
  Basis Set: (AUG-CC-PVTZ AUX)
    Blend: AUG-CC-PVTZ-JKFIT

    Orbital Energies [Eh]
    ---------------------

    Doubly Occupied:

       1A   -104.574076     2A    -20.428607     3A    -20.420580
       4A    -20.418188     5A    -20.405888     6A    -10.299066
       7A     -7.765162     8A     -7.765147     9A     -7.765100
      10A     -1.219700    11A     -1.213558    12A     -1.198817
      13A     -1.188940    14A     -0.815306    15A     -0.586059
      16A     -0.585267    17A     -0.568470    18A     -0.558653
      19A     -0.451746    20A     -0.449919    21A     -0.431578
      22A     -0.425895    23A     -0.375512    24A     -0.370080
      25A     -0.362005    26A     -0.351719    27A     -0.230029
      28A     -0.227987    29A     -0.223612

  @DF-RHF Final Energy:  -763.86257785380576

   => Energetics <=

    Nuclear Repulsion Energy =            215.8857682673515228
    One-Electron Energy =               -1496.1433595638177394
    Two-Electron Energy =                 516.3950134426604563
    Total Energy =                       -763.8625778538057602
 Dipole X            :        -24.4268401           23.8273734           -0.5994667
 Dipole Y            :         52.5957551          -53.2663112           -0.6705561
 Dipole Z            :         -1.2753760            0.7276088           -0.5477672
 Magnitude           :                                                    1.0531167
  Basis Set: (AUG-CC-PVTZ AUX)
    Blend: AUG-CC-PVTZ-RI
	 Reference Energy          =    -763.8625778538057602 [Eh]
	 Singles Energy            =      -0.0000000000000000 [Eh]
	 Same-Spin Energy          =      -0.3443923135261446 [Eh]
	 Opposite-Spin Energy      =      -1.0513149669654431 [Eh]
	 Correlation Energy        =      -1.3957072804915878 [Eh]
	 Total Energy              =    -765.2582851342973527 [Eh]

	 ================> DF-SCS-MP2 Energies <==================
	-----------------------------------------------------------
	 SCS Same-Spin Scale       =       0.3333333333333333 [-]
	 SCS Opposite-Spin Scale   =       1.2000000000000000 [-]
	 SCS Same-Spin Energy      =      -0.1147974378420482 [Eh]
	 SCS Opposite-Spin Energy  =      -1.2615779603585318 [Eh]
	 SCS Correlation Energy    =      -1.3763753982005800 [Eh]
	 SCS Total Energy          =    -765.2389532520063540 [Eh]
	-----------------------------------------------------------

*** Psi4 exiting successfully. Buy a developer a beer!
