                               Psi4 1.8.2 release

  ==> Input File <==

--------------------------------------------------------------------------
MEMORY 60 GB

molecule dimer {
0 1
Gh(Cl)     0.000000     0.000000     0.000000
Gh(O)     -0.847666     1.123183    -2.635575
Gh(H)     -0.437574     0.880472    -1.760595
Gh(H)     -0.764447     2.074687    -2.698382
Gh(O)     -1.923843    -1.041384     2.309194
Gh(H)     -0.989393    -0.988290     2.002993
Gh(H)     -1.922107    -1.234669     3.265432
Gh(O)     -1.085792     2.891213     1.281354
Gh(H)     -0.827850     2.048774     0.893722
Gh(H)     -1.837629     3.227416     0.720403
O          2.086666    -0.280613     2.774800
H          2.485722    -0.200190     3.622985
H          2.716073     0.112459     2.212730
Gh(O)     -3.218433     0.993576    -0.104983
Gh(H)     -3.390588     0.720767    -1.017887
Gh(H)     -2.341262     0.608606     0.113792

units ang
no_reorient
no_com
symmetry c1
}

set {
basis        aug-cc-pVTZ
scf_type     df
}

energy("mp2")
--------------------------------------------------------------------------

    Molecular point group: c1

    Geometry (in Angstrom), charge = 0, multiplicity = 1:

       Center              X                  Y                   Z               Mass
    ------------   -----------------  -----------------  -----------------  -----------------
      Gh(CL)          0.000000000000     0.000000000000     0.000000000000    34.968852682000
      Gh(O)          -0.847666000000     1.123183000000    -2.635575000000    15.994914619570
      Gh(H)          -0.437574000000     0.880472000000    -1.760595000000     1.007825032230
      Gh(H)          -0.764447000000     2.074687000000    -2.698382000000     1.007825032230
      Gh(O)          -1.923843000000    -1.041384000000     2.309194000000    15.994914619570
      Gh(H)          -0.989393000000    -0.988290000000     2.002993000000     1.007825032230
      Gh(H)          -1.922107000000    -1.234669000000     3.265432000000     1.007825032230
      Gh(O)          -1.085792000000     2.891213000000     1.281354000000    15.994914619570
      Gh(H)          -0.827850000000     2.048774000000     0.893722000000     1.007825032230
      Gh(H)          -1.837629000000     3.227416000000     0.720403000000     1.007825032230
         O            2.086666000000    -0.280613000000     2.774800000000    15.994914619570
         H            2.485722000000    -0.200190000000     3.622985000000     1.007825032230
         H            2.716073000000     0.112459000000     2.212730000000     1.007825032230
      Gh(O)          -3.218433000000     0.993576000000    -0.104983000000    15.994914619570
      Gh(H)          -3.390588000000     0.720767000000    -1.017887000000     1.007825032230
      Gh(H)          -2.341262000000     0.608606000000     0.113792000000     1.007825032230

  Charge       = 0
  Multiplicity = 1
  Basis Set: AUG-CC-PVTZ
    Blend: AUG-CC-PVTZ
  Basis Set: (AUG-CC-PVTZ AUX)
    Blend: AUG-CC-PVTZ-JKFIT

    Orbital Energies [Eh]
    ---------------------

    Doubly Occupied:

       1A    -20.564029     2A     -1.366326     3A     -0.726245
       4A     -0.592447     5A     -0.512678

  @DF-RHF Final Energy:   -76.06073347858420

   => Energetics <=

    Nuclear Repulsion Energy =              9.4091513233982127
    One-Electron Energy =                -123.4163170894143917
    Two-Electron Energy =                  37.9464322874319748
    Total Energy =                        -76.0607334785842113
 Dipole X            :        -40.6848235           41.3757860            0.6909625
 Dipole Y            :          4.7261310           -4.4080413            0.3180897
 Dipole Z            :        -52.7864398           52.9767995            0.1903597
 Magnitude           :                                                    0.7841218
  Basis Set: (AUG-CC-PVTZ AUX)
    Blend: AUG-CC-PVTZ-RI
	 Reference Energy          =     -76.0607334785841971 [Eh]
	 Singles Energy            =      -0.0000000000000000 [Eh]
	 Same-Spin Energy          =      -0.0680179457231276 [Eh]
	 Opposite-Spin Energy      =      -0.2142827275723399 [Eh]
	 Correlation Energy        =      -0.2823006732954675 [Eh]
	 Total Energy              =     -76.3430341518796638 [Eh]

	 ================> DF-SCS-MP2 Energies <==================
	-----------------------------------------------------------
	 SCS Same-Spin Scale       =       0.3333333333333333 [-]
	 SCS Opposite-Spin Scale   =       1.2000000000000000 [-]
	 SCS Same-Spin Energy      =      -0.0226726485743758 [Eh]
	 SCS Opposite-Spin Energy  =      -0.2571392730868079 [Eh]
	 SCS Correlation Energy    =      -0.2798119216611837 [Eh]
	 SCS Total Energy          =     -76.3405454002453752 [Eh]
	-----------------------------------------------------------

*** Psi4 exiting successfully. Buy a developer a beer!
