                               Psi4 1.8.2 release

  ==> Input File <==

--------------------------------------------------------------------------
MEMORY 60 GB

molecule dimer {
0 1
Gh(Cl)     0.000000     0.000000     0.000000
Gh(O)     -0.769529    -2.966252     1.114406
Gh(H)     -0.491011    -2.049040     1.060829
Gh(H)     -0.099668    -3.431801     1.746687
Gh(O)     -2.572451     0.785674     2.137195
Gh(H)     -2.971007    -0.007188     2.353863
Gh(H)     -1.967522     0.455536     1.391827
Gh(O)      0.248544     0.677850     3.199615
Gh(H)      0.085963     0.586761     2.244952
Gh(H)      0.904498     1.336920     3.314940
Gh(O)      1.375017     2.839319     0.546590
Gh(H)      0.925526     1.985155     0.440289
Gh(H)      1.962844     2.854615    -0.199516
O          2.555530    -2.187632     0.855224
H          2.277326    -2.669991     1.647633
H          1.863637    -1.523641     0.765483

units ang
no_reorient
no_com
symmetry c1
}

set {
basis        aug-cc-pVTZ
scf_type     df
}

energy("mp2")
--------------------------------------------------------------------------

    Molecular point group: c1

    Geometry (in Angstrom), charge = 0, multiplicity = 1:

       Center              X                  Y                   Z               Mass
    ------------   -----------------  -----------------  -----------------  -----------------
      Gh(CL)          0.000000000000     0.000000000000     0.000000000000    34.968852682000
      Gh(O)          -0.769529000000    -2.966252000000     1.114406000000    15.994914619570
      Gh(H)          -0.491011000000    -2.049040000000     1.060829000000     1.007825032230
      Gh(H)          -0.099668000000    -3.431801000000     1.746687000000     1.007825032230
      Gh(O)          -2.572451000000     0.785674000000     2.137195000000    15.994914619570
      Gh(H)          -2.971007000000    -0.007188000000     2.353863000000     1.007825032230
      Gh(H)          -1.967522000000     0.455536000000     1.391827000000     1.007825032230
      Gh(O)           0.248544000000     0.677850000000     3.199615000000    15.994914619570
      Gh(H)           0.085963000000     0.586761000000     2.244952000000     1.007825032230
      Gh(H)           0.904498000000     1.336920000000     3.314940000000     1.007825032230
      Gh(O)           1.375017000000     2.839319000000     0.546590000000    15.994914619570
      Gh(H)           0.925526000000     1.985155000000     0.440289000000     1.007825032230
      Gh(H)           1.962844000000     2.854615000000    -0.199516000000     1.007825032230
         O            2.555530000000    -2.187632000000     0.855224000000    15.994914619570
         H            2.277326000000    -2.669991000000     1.647633000000     1.007825032230
         H            1.863637000000    -1.523641000000     0.765483000000     1.007825032230

  Charge       = 0
  Multiplicity = 1
  Basis Set: AUG-CC-PVTZ
    Blend: AUG-CC-PVTZ
  Basis Set: (AUG-CC-PVTZ AUX)
    Blend: AUG-CC-PVTZ-JKFIT

    Orbital Energies [Eh]
    ---------------------

    Doubly Occupied:

       1A    -20.569612     2A     -1.350731     3A     -0.708828
       4A     -0.587552     5A     -0.510286

  @DF-RHF Final Energy:   -76.05972639877660

   => Energetics <=

    Nuclear Repulsion Energy =              9.1182706472132153
    One-Electron Energy =                -122.9019744037609456
    Two-Electron Energy =                  37.7239773577711333
    Total Energy =                        -76.0597263987766041
 Dipole X            :        -47.0976440           46.4593004           -0.6383436
 Dipole Y            :         41.1173435          -40.9970187            0.1203248
 Dipole Z            :        -17.0277923           17.4892414            0.4614491
 Magnitude           :                                                    0.7968036
  Basis Set: (AUG-CC-PVTZ AUX)
    Blend: AUG-CC-PVTZ-RI
	 Reference Energy          =     -76.0597263987766041 [Eh]
	 Singles Energy            =      -0.0000000000000000 [Eh]
	 Same-Spin Energy          =      -0.0685905068926714 [Eh]
	 Opposite-Spin Energy      =      -0.2164269821331877 [Eh]
	 Correlation Energy        =      -0.2850174890258591 [Eh]
	 Total Energy              =     -76.3447438878024656 [Eh]

	 ================> DF-SCS-MP2 Energies <==================
	-----------------------------------------------------------
	 SCS Same-Spin Scale       =       0.3333333333333333 [-]
	 SCS Opposite-Spin Scale   =       1.2000000000000000 [-]
	 SCS Same-Spin Energy      =      -0.0228635022975571 [Eh]
	 SCS Opposite-Spin Energy  =      -0.2597123785598252 [Eh]
	 SCS Correlation Energy    =      -0.2825758808573823 [Eh]
	 SCS Total Energy          =     -76.3423022796339836 [Eh]
	-----------------------------------------------------------

*** Psi4 exiting successfully. Buy a developer a beer!
