                               Psi4 1.8.2 release

  ==> Input File <==

--------------------------------------------------------------------------
MEMORY 60 GB

molecule dimer {
0 1
Gh(Cl)     0.000000     0.000000     0.000000
Gh(O)     -1.646482     1.636033    -2.118452
Gh(H)     -1.306755     2.527241    -2.068860
Gh(H)     -1.347572     1.202892    -1.318347
O          0.358450    -3.254429     0.454156
H          0.170382    -2.323902     0.612073
H         -0.522232    -3.667292     0.173894
Gh(O)     -1.946055    -0.590932     2.381757
Gh(H)     -1.388639    -0.387392     1.592721
Gh(H)     -2.499547     0.181910     2.276099
Gh(O)      2.703315     1.660936     0.446614
Gh(H)      1.911369     1.537530    -0.062756
Gh(H)      3.335061     2.181112     0.003027

units ang
no_reorient
no_com
symmetry c1
}

set {
basis        aug-cc-pVTZ
scf_type     df
}

energy("mp2")
--------------------------------------------------------------------------

    Molecular point group: c1

    Geometry (in Angstrom), charge = 0, multiplicity = 1:

       Center              X                  Y                   Z               Mass
    ------------   -----------------  -----------------  -----------------  -----------------
      Gh(CL)          0.000000000000     0.000000000000     0.000000000000    34.968852682000
      Gh(O)          -1.646482000000     1.636033000000    -2.118452000000    15.994914619570
      Gh(H)          -1.306755000000     2.527241000000    -2.068860000000     1.007825032230
      Gh(H)          -1.347572000000     1.202892000000    -1.318347000000     1.007825032230
         O            0.358450000000    -3.254429000000     0.454156000000    15.994914619570
         H            0.170382000000    -2.323902000000     0.612073000000     1.007825032230
         H           -0.522232000000    -3.667292000000     0.173894000000     1.007825032230
      Gh(O)          -1.946055000000    -0.590932000000     2.381757000000    15.994914619570
      Gh(H)          -1.388639000000    -0.387392000000     1.592721000000     1.007825032230
      Gh(H)          -2.499547000000     0.181910000000     2.276099000000     1.007825032230
      Gh(O)           2.703315000000     1.660936000000     0.446614000000    15.994914619570
      Gh(H)           1.911369000000     1.537530000000    -0.062756000000     1.007825032230
      Gh(H)           3.335061000000     2.181112000000     0.003027000000     1.007825032230

  Charge       = 0
  Multiplicity = 1
  Basis Set: AUG-CC-PVTZ
    Blend: AUG-CC-PVTZ
  Basis Set: (AUG-CC-PVTZ AUX)
    Blend: AUG-CC-PVTZ-JKFIT

    Orbital Energies [Eh]
    ---------------------

    Doubly Occupied:

       1A    -20.571688     2A     -1.338355     3A     -0.703914
       4A     -0.576711     5A     -0.507652

  @DF-RHF Final Energy:   -76.05598949562948

   => Energetics <=

    Nuclear Repulsion Energy =              8.9174268917046593
    One-Electron Energy =                -122.5501898947941299
    Two-Electron Energy =                  37.5767735074599898
    Total Energy =                        -76.0559894956294755
 Dipole X            :         -5.4510080            4.7540785           -0.6969295
 Dipole Y            :         60.8682451          -60.5215519            0.3466932
 Dipole Z            :         -8.4287144            8.3511060           -0.0776084
 Magnitude           :                                                    0.7822595
  Basis Set: (AUG-CC-PVTZ AUX)
    Blend: AUG-CC-PVTZ-RI
	 Reference Energy          =     -76.0559894956294755 [Eh]
	 Singles Energy            =      -0.0000000000000000 [Eh]
	 Same-Spin Energy          =      -0.0688748575569504 [Eh]
	 Opposite-Spin Energy      =      -0.2172840911826850 [Eh]
	 Correlation Energy        =      -0.2861589487396354 [Eh]
	 Total Energy              =     -76.3421484443691156 [Eh]

	 ================> DF-SCS-MP2 Energies <==================
	-----------------------------------------------------------
	 SCS Same-Spin Scale       =       0.3333333333333333 [-]
	 SCS Opposite-Spin Scale   =       1.2000000000000000 [-]
	 SCS Same-Spin Energy      =      -0.0229582858523168 [Eh]
	 SCS Opposite-Spin Energy  =      -0.2607409094192220 [Eh]
	 SCS Correlation Energy    =      -0.2836991952715388 [Eh]
	 SCS Total Energy          =     -76.3396886909010135 [Eh]
	-----------------------------------------------------------

*** Psi4 exiting successfully. Buy a developer a beer!
