                               Psi4 1.8.2 release

  ==> Input File <==

--------------------------------------------------------------------------
MEMORY 60 GB

molecule dimer {
-1 1
Cl         0.000000     0.000000     0.000000
O          1.843131    -2.928078     0.028869
H          1.734144    -3.339101    -0.815892
H          1.476043    -2.034862    -0.124140
O         -0.739325     0.185713     3.270818
H         -0.593132     0.273354     2.341271
H         -1.651095     0.407133     3.553063
O          3.026441     0.116813     0.654019
H          3.740367    -0.459401     0.917951
H          2.256261    -0.016604     1.231702
O         -3.062313     1.140314    -0.135008
H         -3.441508     1.597141     0.629278
H         -2.174978     0.899555     0.162993
O          0.894047     2.914112    -0.227527
H          1.684458     3.103862     0.278795
H          0.585305     2.078635     0.100756

units ang
no_reorient
no_com
symmetry c1
}

set {
basis        aug-cc-pVTZ
scf_type     df
}

energy("mp2")
--------------------------------------------------------------------------

    Molecular point group: c1

    Geometry (in Angstrom), charge = -1, multiplicity = 1:

       Center              X                  Y                   Z               Mass
    ------------   -----------------  -----------------  -----------------  -----------------
         CL           0.000000000000     0.000000000000     0.000000000000    34.968852682000
         O            1.843131000000    -2.928078000000     0.028869000000    15.994914619570
         H            1.734144000000    -3.339101000000    -0.815892000000     1.007825032230
         H            1.476043000000    -2.034862000000    -0.124140000000     1.007825032230
         O           -0.739325000000     0.185713000000     3.270818000000    15.994914619570
         H           -0.593132000000     0.273354000000     2.341271000000     1.007825032230
         H           -1.651095000000     0.407133000000     3.553063000000     1.007825032230
         O            3.026441000000     0.116813000000     0.654019000000    15.994914619570
         H            3.740367000000    -0.459401000000     0.917951000000     1.007825032230
         H            2.256261000000    -0.016604000000     1.231702000000     1.007825032230
         O           -3.062313000000     1.140314000000    -0.135008000000    15.994914619570
         H           -3.441508000000     1.597141000000     0.629278000000     1.007825032230
         H           -2.174978000000     0.899555000000     0.162993000000     1.007825032230
         O            0.894047000000     2.914112000000    -0.227527000000    15.994914619570
         H            1.684458000000     3.103862000000     0.278795000000     1.007825032230
         H            0.585305000000     2.078635000000     0.100756000000     1.007825032230

  Charge       = -1
  Multiplicity = 1
  Basis Set: AUG-CC-PVTZ
    Blend: AUG-CC-PVTZ
  Basis Set: (AUG-CC-PVTZ AUX)
    Blend: AUG-CC-PVTZ-JKFIT

    Orbital Energies [Eh]
    ---------------------

    Doubly Occupied:

       1A   -104.575864     2A    -20.426894     3A    -20.423871
       4A    -20.422630     5A    -20.420048     6A    -20.394221
       7A    -10.301231     8A     -7.767361     9A     -7.767281
      10A     -7.767243    11A     -1.211036    12A     -1.209900
      13A     -1.205483    14A     -1.202326    15A     -1.187292
      16A     -0.821025    17A     -0.597620    18A     -0.584479
      19A     -0.569641    20A     -0.563802    21A     -0.555124
      22A     -0.449925    23A     -0.442166    24A     -0.433481
      25A     -0.433148    26A     -0.420962    27A     -0.375012
      28A     -0.373107    29A     -0.363475    30A     -0.362981
      31A     -0.343645    32A     -0.235318    33A     -0.231172
      34A     -0.227498

  @DF-RHF Final Energy:  -839.92059972359584

   => Energetics <=

    Nuclear Repulsion Energy =            303.1440169821406130
    One-Electron Energy =               -1776.7967041652345870
    Two-Electron Energy =                 633.7320874594981888
    Total Energy =                       -839.9205997235958421
 Dipole X            :        -36.6881982           36.4938486           -0.1943496
 Dipole Y            :        -26.8870458           26.3441126           -0.5429333
 Dipole Z            :        -69.7446445           69.9295893            0.1849447
 Magnitude           :                                                    0.6056012
  Basis Set: (AUG-CC-PVTZ AUX)
    Blend: AUG-CC-PVTZ-RI
	 Reference Energy          =    -839.9205997235958421 [Eh]
	 Singles Energy            =      -0.0000000000000000 [Eh]
	 Same-Spin Energy          =      -0.4159961174931309 [Eh]
	 Opposite-Spin Energy      =      -1.2715711666631337 [Eh]
	 Correlation Energy        =      -1.6875672841562648 [Eh]
	 Total Energy              =    -841.6081670077520585 [Eh]

	 ================> DF-SCS-MP2 Energies <==================
	-----------------------------------------------------------
	 SCS Same-Spin Scale       =       0.3333333333333333 [-]
	 SCS Opposite-Spin Scale   =       1.2000000000000000 [-]
	 SCS Same-Spin Energy      =      -0.1386653724977103 [Eh]
	 SCS Opposite-Spin Energy  =      -1.5258853999957604 [Eh]
	 SCS Correlation Energy    =      -1.6645507724934707 [Eh]
	 SCS Total Energy          =    -841.5851504960893408 [Eh]
	-----------------------------------------------------------

*** Psi4 exiting successfully. Buy a developer a beer!
