                               Psi4 1.8.2 release

  ==> Input File <==

--------------------------------------------------------------------------
MEMORY 60 GB

molecule dimer {
-1 1
Cl         0.000000     0.000000     0.000000
O          3.015981     0.151241    -1.457305
H          2.845971    -0.567435    -2.049500
H          2.230828     0.149298    -0.843213
O         -2.797673    -0.644207    -1.757639
H         -2.491546    -1.380346    -2.302014
H         -2.015250    -0.495737    -1.259297
O         -0.715759     3.330850    -0.769336
H          0.052831     3.505661    -0.203645
H         -0.556393     2.470762    -1.223557
O          0.652205     0.435816    -3.215109
H          1.085218     1.200515    -2.995505
H          0.387193     0.144769    -2.312401
O          1.503331     1.130459     2.879779
H          1.109970     0.660961     2.083685
H          1.604155     0.401707     3.533176
O          0.517922    -3.056007    -0.636675
H         -0.210470    -3.438063    -1.173663
H          0.434987    -2.108656    -0.643081

units ang
no_reorient
no_com
symmetry c1
}

set {
basis        aug-cc-pVTZ
scf_type     df
}

energy("mp2")
--------------------------------------------------------------------------

    Molecular point group: c1

    Geometry (in Angstrom), charge = -1, multiplicity = 1:

       Center              X                  Y                   Z               Mass
    ------------   -----------------  -----------------  -----------------  -----------------
         CL           0.000000000000     0.000000000000     0.000000000000    34.968852682000
         O            3.015981000000     0.151241000000    -1.457305000000    15.994914619570
         H            2.845971000000    -0.567435000000    -2.049500000000     1.007825032230
         H            2.230828000000     0.149298000000    -0.843213000000     1.007825032230
         O           -2.797673000000    -0.644207000000    -1.757639000000    15.994914619570
         H           -2.491546000000    -1.380346000000    -2.302014000000     1.007825032230
         H           -2.015250000000    -0.495737000000    -1.259297000000     1.007825032230
         O           -0.715759000000     3.330850000000    -0.769336000000    15.994914619570
         H            0.052831000000     3.505661000000    -0.203645000000     1.007825032230
         H           -0.556393000000     2.470762000000    -1.223557000000     1.007825032230
         O            0.652205000000     0.435816000000    -3.215109000000    15.994914619570
         H            1.085218000000     1.200515000000    -2.995505000000     1.007825032230
         H            0.387193000000     0.144769000000    -2.312401000000     1.007825032230
         O            1.503331000000     1.130459000000     2.879779000000    15.994914619570
         H            1.109970000000     0.660961000000     2.083685000000     1.007825032230
         H            1.604155000000     0.401707000000     3.533176000000     1.007825032230
         O            0.517922000000    -3.056007000000    -0.636675000000    15.994914619570
         H           -0.210470000000    -3.438063000000    -1.173663000000     1.007825032230
         H            0.434987000000    -2.108656000000    -0.643081000000     1.007825032230

  Charge       = -1
  Multiplicity = 1
  Basis Set: AUG-CC-PVTZ
    Blend: AUG-CC-PVTZ
  Basis Set: (AUG-CC-PVTZ AUX)
    Blend: AUG-CC-PVTZ-JKFIT

    Orbital Energies [Eh]
    ---------------------

    Doubly Occupied:

       1A   -104.614071     2A    -20.441512     3A    -20.437290
       4A    -20.435647     5A    -20.433417     6A    -20.427524
       7A    -20.426808     8A    -10.339409     9A     -7.805530
      10A     -7.805466    11A     -7.805428    12A     -1.232595
      13A     -1.229536    14A     -1.216023    15A     -1.210417
      16A     -1.208609    17A     -1.206460    18A     -0.859462
      19A     -0.591958    20A     -0.581778    21A     -0.581576
      22A     -0.579176    23A     -0.572327    24A     -0.565331
      25A     -0.471824    26A     -0.469924    27A     -0.454461
      28A     -0.450245    29A     -0.448749    30A     -0.447034
      31A     -0.390411    32A     -0.382248    33A     -0.378972
      34A     -0.378553    35A     -0.377965    36A     -0.361213
      37A     -0.272660    38A     -0.268431    39A     -0.266432

  @DF-RHF Final Energy:  -915.99505222166738

   => Energetics <=

    Nuclear Repulsion Energy =            395.0106710740548692
    One-Electron Energy =               -2065.1584964092248811
    Two-Electron Energy =                 754.1527731135025761
    Total Energy =                       -915.9950522216673789
 Dipole X            :        -41.5750957           41.3576956           -0.2174000
 Dipole Y            :        -22.6639844           21.4080497           -1.2559348
 Dipole Z            :         93.5540232          -92.6708369            0.8831862
 Magnitude           :                                                    1.5506943
  Basis Set: (AUG-CC-PVTZ AUX)
    Blend: AUG-CC-PVTZ-RI
	 Reference Energy          =    -915.9950522216673789 [Eh]
	 Singles Energy            =      -0.0000000000000000 [Eh]
	 Same-Spin Energy          =      -0.4869343067200350 [Eh]
	 Opposite-Spin Energy      =      -1.4922567903236827 [Eh]
	 Correlation Energy        =      -1.9791910970437177 [Eh]
	 Total Energy              =    -917.9742433187110464 [Eh]

	 ================> DF-SCS-MP2 Energies <==================
	-----------------------------------------------------------
	 SCS Same-Spin Scale       =       0.3333333333333333 [-]
	 SCS Opposite-Spin Scale   =       1.2000000000000000 [-]
	 SCS Same-Spin Energy      =      -0.1623114355733450 [Eh]
	 SCS Opposite-Spin Energy  =      -1.7907081483884193 [Eh]
	 SCS Correlation Energy    =      -1.9530195839617643 [Eh]
	 SCS Total Energy          =    -917.9480718056291835 [Eh]
	-----------------------------------------------------------

*** Psi4 exiting successfully. Buy a developer a beer!
