                               Psi4 1.8.2 release

  ==> Input File <==

--------------------------------------------------------------------------
MEMORY 60 GB

molecule dimer {
0 1
Gh(Cl)     0.000000     0.000000     0.000000
Gh(O)      1.774032    -1.212909    -2.452343
Gh(H)      1.305888    -0.738993    -1.732187
Gh(H)      2.508319    -1.629930    -2.012047
O          2.186775     2.588737     0.277671
H          1.476037     1.911683     0.339217
H          3.009960     2.191670    -0.033394
Gh(O)     -1.686863     2.434953     1.365585
Gh(H)     -1.173488     2.559282     2.184309
Gh(H)     -1.383221     1.585374     0.970444
Gh(O)     -1.491886    -1.582103    -2.320471
Gh(H)     -1.016194    -0.998340    -1.638782
Gh(H)     -2.114507    -0.952675    -2.708062
Gh(O)     -0.791886     2.266519    -2.120884
Gh(H)     -1.711508     2.191897    -2.087996
Gh(H)     -0.411803     1.608549    -1.538367

units ang
no_reorient
no_com
symmetry c1
}

set {
basis        aug-cc-pVTZ
scf_type     df
}

energy("mp2")
--------------------------------------------------------------------------

    Molecular point group: c1

    Geometry (in Angstrom), charge = 0, multiplicity = 1:

       Center              X                  Y                   Z               Mass
    ------------   -----------------  -----------------  -----------------  -----------------
      Gh(CL)          0.000000000000     0.000000000000     0.000000000000    34.968852682000
      Gh(O)           1.774032000000    -1.212909000000    -2.452343000000    15.994914619570
      Gh(H)           1.305888000000    -0.738993000000    -1.732187000000     1.007825032230
      Gh(H)           2.508319000000    -1.629930000000    -2.012047000000     1.007825032230
         O            2.186775000000     2.588737000000     0.277671000000    15.994914619570
         H            1.476037000000     1.911683000000     0.339217000000     1.007825032230
         H            3.009960000000     2.191670000000    -0.033394000000     1.007825032230
      Gh(O)          -1.686863000000     2.434953000000     1.365585000000    15.994914619570
      Gh(H)          -1.173488000000     2.559282000000     2.184309000000     1.007825032230
      Gh(H)          -1.383221000000     1.585374000000     0.970444000000     1.007825032230
      Gh(O)          -1.491886000000    -1.582103000000    -2.320471000000    15.994914619570
      Gh(H)          -1.016194000000    -0.998340000000    -1.638782000000     1.007825032230
      Gh(H)          -2.114507000000    -0.952675000000    -2.708062000000     1.007825032230
      Gh(O)          -0.791886000000     2.266519000000    -2.120884000000    15.994914619570
      Gh(H)          -1.711508000000     2.191897000000    -2.087996000000     1.007825032230
      Gh(H)          -0.411803000000     1.608549000000    -1.538367000000     1.007825032230

  Charge       = 0
  Multiplicity = 1
  Basis Set: AUG-CC-PVTZ
    Blend: AUG-CC-PVTZ
  Basis Set: (AUG-CC-PVTZ AUX)
    Blend: AUG-CC-PVTZ-JKFIT

    Orbital Energies [Eh]
    ---------------------

    Doubly Occupied:

       1A    -20.567211     2A     -1.340702     3A     -0.719523
       4A     -0.569691     5A     -0.507022

  @DF-RHF Final Energy:   -76.05806714931049

   => Energetics <=

    Nuclear Repulsion Energy =              9.0193778943781329
    One-Electron Energy =                -122.7465883817455250
    Two-Electron Energy =                  37.6691433380569052
    Total Energy =                        -76.0580671493104887
 Dipole X            :        -41.4589276           41.5365525            0.0776249
 Dipole Y            :        -47.6107834           46.8902449           -0.7205385
 Dipole Z            :         -4.9433534            4.7756989           -0.1676545
 Magnitude           :                                                    0.7438477
  Basis Set: (AUG-CC-PVTZ AUX)
    Blend: AUG-CC-PVTZ-RI
	 Reference Energy          =     -76.0580671493104887 [Eh]
	 Singles Energy            =      -0.0000000000000000 [Eh]
	 Same-Spin Energy          =      -0.0686100447394574 [Eh]
	 Opposite-Spin Energy      =      -0.2164383749585607 [Eh]
	 Correlation Energy        =      -0.2850484196980181 [Eh]
	 Total Energy              =     -76.3431155690085035 [Eh]

	 ================> DF-SCS-MP2 Energies <==================
	-----------------------------------------------------------
	 SCS Same-Spin Scale       =       0.3333333333333333 [-]
	 SCS Opposite-Spin Scale   =       1.2000000000000000 [-]
	 SCS Same-Spin Energy      =      -0.0228700149131525 [Eh]
	 SCS Opposite-Spin Energy  =      -0.2597260499502728 [Eh]
	 SCS Correlation Energy    =      -0.2825960648634253 [Eh]
	 SCS Total Energy          =     -76.3406632141739152 [Eh]
	-----------------------------------------------------------

*** Psi4 exiting successfully. Buy a developer a beer!
