                               Psi4 1.8.2 release

  ==> Input File <==

--------------------------------------------------------------------------
MEMORY 60 GB

molecule dimer {
0 1
Gh(Cl)     0.000000     0.000000     0.000000
Gh(O)     -2.053684     2.304311     0.217814
Gh(H)     -1.456383     2.956946     0.610925
Gh(H)     -1.443301     1.666290    -0.182013
Gh(O)      2.189604     1.887725    -1.286451
Gh(H)      1.490313     1.304328    -0.911948
Gh(H)      2.485988     1.522653    -2.115611
Gh(O)      1.794090    -2.315229    -1.369329
Gh(H)      1.050639    -2.681183    -1.877896
Gh(H)      1.473504    -1.592214    -0.862287
O         -1.373675     0.424170    -2.840394
H         -0.768222     0.275953    -3.546434
H         -0.987035     0.245546    -1.972930

units ang
no_reorient
no_com
symmetry c1
}

set {
basis        aug-cc-pVTZ
scf_type     df
}

energy("mp2")
--------------------------------------------------------------------------

    Molecular point group: c1

    Geometry (in Angstrom), charge = 0, multiplicity = 1:

       Center              X                  Y                   Z               Mass
    ------------   -----------------  -----------------  -----------------  -----------------
      Gh(CL)          0.000000000000     0.000000000000     0.000000000000    34.968852682000
      Gh(O)          -2.053684000000     2.304311000000     0.217814000000    15.994914619570
      Gh(H)          -1.456383000000     2.956946000000     0.610925000000     1.007825032230
      Gh(H)          -1.443301000000     1.666290000000    -0.182013000000     1.007825032230
      Gh(O)           2.189604000000     1.887725000000    -1.286451000000    15.994914619570
      Gh(H)           1.490313000000     1.304328000000    -0.911948000000     1.007825032230
      Gh(H)           2.485988000000     1.522653000000    -2.115611000000     1.007825032230
      Gh(O)           1.794090000000    -2.315229000000    -1.369329000000    15.994914619570
      Gh(H)           1.050639000000    -2.681183000000    -1.877896000000     1.007825032230
      Gh(H)           1.473504000000    -1.592214000000    -0.862287000000     1.007825032230
         O           -1.373675000000     0.424170000000    -2.840394000000    15.994914619570
         H           -0.768222000000     0.275953000000    -3.546434000000     1.007825032230
         H           -0.987035000000     0.245546000000    -1.972930000000     1.007825032230

  Charge       = 0
  Multiplicity = 1
  Basis Set: AUG-CC-PVTZ
    Blend: AUG-CC-PVTZ
  Basis Set: (AUG-CC-PVTZ AUX)
    Blend: AUG-CC-PVTZ-JKFIT

    Orbital Energies [Eh]
    ---------------------

    Doubly Occupied:

       1A    -20.562754     2A     -1.349570     3A     -0.734736
       4A     -0.569508     5A     -0.508138

  @DF-RHF Final Energy:   -76.05939689723618

   => Energetics <=

    Nuclear Repulsion Energy =              9.2086437824036693
    One-Electron Energy =                -123.0866670266208303
    Two-Electron Energy =                  37.8186263469809774
    Total Energy =                        -76.0593968972361836
 Dipole X            :         24.7635426          -24.0839113            0.6796313
 Dipole Y            :         -7.6219585            7.3980113           -0.2239472
 Dipole Z            :         53.4782445          -53.3706203            0.1076241
 Magnitude           :                                                    0.7236256
  Basis Set: (AUG-CC-PVTZ AUX)
    Blend: AUG-CC-PVTZ-RI
	 Reference Energy          =     -76.0593968972361836 [Eh]
	 Singles Energy            =      -0.0000000000000000 [Eh]
	 Same-Spin Energy          =      -0.0682625583524066 [Eh]
	 Opposite-Spin Energy      =      -0.2154530264131507 [Eh]
	 Correlation Energy        =      -0.2837155847655573 [Eh]
	 Total Energy              =     -76.3431124820017430 [Eh]

	 ================> DF-SCS-MP2 Energies <==================
	-----------------------------------------------------------
	 SCS Same-Spin Scale       =       0.3333333333333333 [-]
	 SCS Opposite-Spin Scale   =       1.2000000000000000 [-]
	 SCS Same-Spin Energy      =      -0.0227541861174689 [Eh]
	 SCS Opposite-Spin Energy  =      -0.2585436316957808 [Eh]
	 SCS Correlation Energy    =      -0.2812978178132497 [Eh]
	 SCS Total Energy          =     -76.3406947150494375 [Eh]
	-----------------------------------------------------------

*** Psi4 exiting successfully. Buy a developer a beer!
