                               Psi4 1.9 release

  ==> Input File <==

--------------------------------------------------------------------------
MEMORY 60 GB

molecule dimer {
-1 1
Cl     0.000000     0.000000     0.000000
--
0 1
O      1.176272    -2.652134     1.006030
H      1.873466    -2.542158     1.713725
H      0.639279    -1.844121     1.017799
O      3.155492     0.183050    -0.179212
H      2.426842    -0.396814    -0.177652
H      2.953359     0.962596     0.365673
O     -1.682274    -0.690400    -2.903171
H     -1.247480    -0.704847    -2.001267
H     -2.042989    -1.552534    -3.117626
O     -0.502562     2.885382     1.669906
H     -0.735193     3.424883     0.886029
H     -0.882051     2.032142     1.378365
O      1.380074     2.285806    -1.974688
H      0.729598     1.850939    -2.552618
H      2.093496     1.644184    -1.762183
O     -1.374052    -0.773625     2.691235
H     -1.053332    -0.518274     1.803823
H     -2.083565    -1.408779     2.593044

units ang
no_reorient
no_com
symmetry c1
}

set {
basis        aug-cc-pVTZ
scf_type     df
}

energy("mp2", bsse_type="cp")
--------------------------------------------------------------------------

                               Psi4 1.9 release
    Molecular point group: c1
  Charge       = 0
  Multiplicity = 1
  Basis Set: AUG-CC-PVTZ
    Blend: AUG-CC-PVTZ
  Basis Set: (AUG-CC-PVTZ AUX)
    Blend: AUG-CC-PVTZ-JKFIT
  @DF-RHF Final Energy:  -456.34794784874265
    Total Energy =                       -456.3479478487426491
 Dipole X            :        -38.6628719           37.5961580           -1.0667139
 Dipole Y            :        -21.6299561           20.5070226           -1.1229335
 Dipole Z            :         -5.1463748            4.9660340           -0.1803408
 Magnitude           :                                                    1.5592887
  Basis Set: (AUG-CC-PVTZ AUX)
    Blend: AUG-CC-PVTZ-RI
	 Reference Energy          =    -456.3479478487426491 [Eh]
	 Singles Energy            =      -0.0000000000000000 [Eh]
	 Same-Spin Energy          =      -0.4141482367518596 [Eh]
	 Opposite-Spin Energy      =      -1.3015413263965534 [Eh]
	 Correlation Energy        =      -1.7156895631484130 [Eh]
	 Total Energy              =    -458.0636374118910794 [Eh]
	 SCS Total Energy          =    -458.0478468526691245 [Eh]
                               Psi4 1.9 release
    Molecular point group: c1
  Multiplicity = 1
  Basis Set: AUG-CC-PVTZ
    Blend: AUG-CC-PVTZ
  Basis Set: (AUG-CC-PVTZ AUX)
    Blend: AUG-CC-PVTZ-JKFIT
  @DF-RHF Final Energy:  -459.57358425967931
    Total Energy =                       -459.5735842596792509
  Basis Set: (AUG-CC-PVTZ AUX)
	 Singles Energy            =      -0.0000000000000000 [Eh]
	 Same-Spin Energy          =      -0.0636078511253995 [Eh]
	 Opposite-Spin Energy      =      -0.1841009883689757 [Eh]
	 Correlation Energy        =      -0.2477088394943752 [Eh]
	 Total Energy              =    -459.8212930991736584 [Eh]
	 SCS Total Energy          =    -459.8157080627638607 [Eh]
                               Psi4 1.9 release
    Molecular point group: c1

    Geometry (in Bohr), charge = -1, multiplicity = 1:

       Center              X                  Y                   Z               Mass
    ------------   -----------------  -----------------  -----------------  -----------------
         CL           0.000000000000     0.000000000000     0.000000000000    34.968852682000
         O            2.222831929045    -5.011806908015     1.901121173994    15.994914619570
         H            3.540337645357    -4.803982387642     3.238470904350     1.007825032230
         H            1.208062227757    -3.484883632205     1.923361360765     1.007825032230
         O            5.963015671073     0.345914367265    -0.338661598396    15.994914619570
         H            4.586066729758    -0.749869782747    -0.335713625640     1.007825032230
         H            5.581039660156     1.819042809461     0.691021821475     1.007825032230
         O           -3.179037127978    -1.304666917016    -5.486198085372    15.994914619570
         H           -2.357395546986    -1.331967790351    -3.781846533917     1.007825032230
         H           -3.860689687323    -2.933864060462    -5.891459301607     1.007825032230
         O           -0.949704541062     5.452581747326     3.155664995259    15.994914619570
         H           -1.389313419354     6.472090881736     1.674352149213     1.007825032230
         H           -1.666834818686     3.840191828040     2.604732350917     1.007825032230
         O            2.607961892865     4.319547315928    -3.731619503228    15.994914619570
         H            1.378740401682     3.497767784929    -4.823748922914     1.007825032230
         H            3.956134084741     3.107057459860    -3.330043252938     1.007825032230
         O           -2.596581962138    -1.461939373807     5.085697089246    15.994914619570
         H           -1.990508999181    -0.979395917946     3.408731448802     1.007825032230
         H           -3.937367214590    -2.662206481296     4.900142991262     1.007825032230

  Charge       = -1
  Multiplicity = 1
  Basis Set: AUG-CC-PVTZ
    Blend: AUG-CC-PVTZ
  Basis Set: (AUG-CC-PVTZ AUX)
    Blend: AUG-CC-PVTZ-JKFIT

    Orbital Energies [Eh]
    ---------------------

    Doubly Occupied:

       1A   -104.590106     2A    -20.435901     3A    -20.426323
       4A    -20.424397     5A    -20.423531     6A    -20.418301
       7A    -20.415545     8A    -10.315961     9A     -7.782046
      10A     -7.782012    11A     -7.781958    12A     -1.216238
      13A     -1.208884    14A     -1.201533    15A     -1.199606
      16A     -1.198022    17A     -1.190459    18A     -0.838633
      19A     -0.594151    20A     -0.587023    21A     -0.576852
      22A     -0.573330    23A     -0.560793    24A     -0.549780
      25A     -0.450662    26A     -0.445214    27A     -0.442213
      28A     -0.435454    29A     -0.433258    30A     -0.431104
      31A     -0.377659    32A     -0.376471    33A     -0.367795
      34A     -0.366068    35A     -0.363880    36A     -0.357510
      37A     -0.249176    38A     -0.246721    39A     -0.243374

  @DF-RHF Final Energy:  -915.98443674186251

   => Energetics <=

    Nuclear Repulsion Energy =            396.7551419172377791
    One-Electron Energy =               -2069.7232617899035176
    Two-Electron Energy =                 756.9836831308032288
    Total Energy =                       -915.9844367418625097
 Dipole X            :        -38.6085640           37.5961580           -1.0124060
 Dipole Y            :        -21.3306141           20.5070226           -0.8235915
 Dipole Z            :         -5.4389270            4.9660340           -0.4728931
 Magnitude           :                                                    1.3881271
  Basis Set: (AUG-CC-PVTZ AUX)
    Blend: AUG-CC-PVTZ-RI
	 Reference Energy          =    -915.9844367418625097 [Eh]
	 Singles Energy            =      -0.0000000000000000 [Eh]
	 Same-Spin Energy          =      -0.4879106590471454 [Eh]
	 Opposite-Spin Energy      =      -1.4930114816904183 [Eh]
	 Correlation Energy        =      -1.9809221407375637 [Eh]
	 Total Energy              =    -917.9653588826000714 [Eh]

	 ================> DF-SCS-MP2 Energies <==================
	-----------------------------------------------------------
	 SCS Same-Spin Scale       =       0.3333333333333333 [-]
	 SCS Opposite-Spin Scale   =       1.2000000000000000 [-]
	 SCS Same-Spin Energy      =      -0.1626368863490484 [Eh]
	 SCS Opposite-Spin Energy  =      -1.7916137780285020 [Eh]
	 SCS Correlation Energy    =      -1.9542506643775504 [Eh]
	 SCS Total Energy          =    -917.9386874062400921 [Eh]
	-----------------------------------------------------------

*** Psi4 exiting successfully. Buy a developer a beer!
