                               Psi4 1.9 release

  ==> Input File <==

--------------------------------------------------------------------------
MEMORY 60 GB

molecule dimer {
-1 1
Cl     0.000000     0.000000     0.000000
--
0 1
O      0.923800     0.408945    -3.194493
H      0.272905    -0.114701    -3.625352
H      0.832172     0.185801    -2.298947
O     -2.149744     2.054070     0.217609
H     -1.403826     1.455993     0.053234
H     -2.334377     1.897274     1.183531
O     -0.300157    -2.869195     1.420956
H     -0.867771    -3.254414     0.744974
H      0.097773    -2.075737     1.017545
O      1.448917     0.712721     2.656163
H      1.296456     0.906343     1.730539
H      0.664996     0.886631     3.121181
O     -2.509108    -1.248524    -1.805840
H     -1.802638    -0.777252    -1.256016
H     -2.458071    -2.098524    -1.337245

units ang
no_reorient
no_com
symmetry c1
}

set {
basis        aug-cc-pVTZ
scf_type     df
}

energy("mp2", bsse_type="cp")
--------------------------------------------------------------------------

                               Psi4 1.9 release
    Molecular point group: c1
  Charge       = 0
  Multiplicity = 1
  Basis Set: AUG-CC-PVTZ
    Blend: AUG-CC-PVTZ
  Basis Set: (AUG-CC-PVTZ AUX)
    Blend: AUG-CC-PVTZ-JKFIT
  @DF-RHF Final Energy:  -380.28213969973319
    Total Energy =                       -380.2821396997331931
 Dipole X            :         49.4097302          -49.8750068           -0.4652767
 Dipole Y            :         19.1954893          -19.8883281           -0.6928388
 Dipole Z            :         12.3958238          -11.9268099            0.4690139
 Magnitude           :                                                    0.9573307
  Basis Set: (AUG-CC-PVTZ AUX)
    Blend: AUG-CC-PVTZ-RI
	 Reference Energy          =    -380.2821396997331931 [Eh]
	 Singles Energy            =      -0.0000000000000000 [Eh]
	 Same-Spin Energy          =      -0.3439819569439496 [Eh]
	 Opposite-Spin Energy      =      -1.0832948553428716 [Eh]
	 Correlation Energy        =      -1.4272768122868214 [Eh]
	 Total Energy              =    -381.7094165120200273 [Eh]
	 SCS Total Energy          =    -381.6967541784592868 [Eh]
                               Psi4 1.9 release
    Molecular point group: c1
  Multiplicity = 1
  Basis Set: AUG-CC-PVTZ
    Blend: AUG-CC-PVTZ
  Basis Set: (AUG-CC-PVTZ AUX)
    Blend: AUG-CC-PVTZ-JKFIT
  @DF-RHF Final Energy:  -459.57358129952036
    Total Energy =                       -459.5735812995203560
  Basis Set: (AUG-CC-PVTZ AUX)
	 Singles Energy            =      -0.0000000000000000 [Eh]
	 Same-Spin Energy          =      -0.0635710930149457 [Eh]
	 Opposite-Spin Energy      =      -0.1841328004497654 [Eh]
	 Correlation Energy        =      -0.2477038934647111 [Eh]
	 Total Energy              =    -459.8212851929850444 [Eh]
	 SCS Total Energy          =    -459.8157310243984170 [Eh]
                               Psi4 1.9 release
    Molecular point group: c1

    Geometry (in Bohr), charge = -1, multiplicity = 1:

       Center              X                  Y                   Z               Mass
    ------------   -----------------  -----------------  -----------------  -----------------
         CL           0.000000000000     0.000000000000     0.000000000000    34.968852682000
         O            1.745728994698     0.772794050375    -6.036716879692    15.994914619570
         H            0.515715708268    -0.216753476316    -6.850922388381     1.007825032230
         H            1.572577169274     0.351113003836    -4.344380206943     1.007825032230
         O           -4.062427399846     3.881629742519     0.411221412435    15.994914619570
         H           -2.652846667797     2.751428010584     0.100597680563     1.007825032230
         H           -4.411333203568     3.585328244952     2.236549450989     1.007825032230
         O           -0.567214524639    -5.421992750533     2.685217676326    15.994914619570
         H           -1.639849529615    -6.149951158856     1.407796830587     1.007825032230
         H            0.184764192464    -3.922574438479     1.922881370329     1.007825032230
         O            2.738056308520     1.346847493862     5.019420614574    15.994914619570
         H            2.449946773707     1.712740045726     3.270244759424     1.007825032230
         H            1.256660314525     1.675489764341     5.898177277983     1.007825032230
         O           -4.741526939195    -2.359368421061    -3.412543026397    15.994914619570
         H           -3.406492123343    -1.468793410464    -2.373526249193     1.007825032230
         H           -4.645080986930    -3.965635627700    -2.527026812638     1.007825032230

  Charge       = -1
  Multiplicity = 1
  Basis Set: AUG-CC-PVTZ
    Blend: AUG-CC-PVTZ
  Basis Set: (AUG-CC-PVTZ AUX)
    Blend: AUG-CC-PVTZ-JKFIT

    Orbital Energies [Eh]
    ---------------------

    Doubly Occupied:

       1A   -104.602859     2A    -20.435267     3A    -20.427086
       4A    -20.419093     5A    -20.417544     6A    -20.408074
       7A    -10.329159     8A     -7.795245     9A     -7.795218
      10A     -7.795137    11A     -1.224485    12A     -1.216641
      13A     -1.208493    14A     -1.205248    15A     -1.184700
      16A     -0.853783    17A     -0.592241    18A     -0.588441
      19A     -0.577299    20A     -0.548866    21A     -0.544803
      22A     -0.462412    23A     -0.453176    24A     -0.446473
      25A     -0.443097    26A     -0.434006    27A     -0.373924
      28A     -0.372073    29A     -0.371750    30A     -0.370117
      31A     -0.351369    32A     -0.260982    33A     -0.259776
      34A     -0.258307

  @DF-RHF Final Energy:  -839.92799222050633

   => Energetics <=

    Nuclear Repulsion Energy =            305.0760351669184729
    One-Electron Energy =               -1779.9537653259667422
    Two-Electron Energy =                 634.9497379385419435
    Total Energy =                       -839.9279922205063258
 Dipole X            :         49.9050144          -49.8750068            0.0300076
 Dipole Y            :         19.2764990          -19.8883281           -0.6118291
 Dipole Z            :         12.4485870          -11.9268099            0.5217771
 Magnitude           :                                                    0.8046656
  Basis Set: (AUG-CC-PVTZ AUX)
    Blend: AUG-CC-PVTZ-RI
	 Reference Energy          =    -839.9279922205063258 [Eh]
	 Singles Energy            =      -0.0000000000000000 [Eh]
	 Same-Spin Energy          =      -0.4173919511386884 [Eh]
	 Opposite-Spin Energy      =      -1.2736247154058689 [Eh]
	 Correlation Energy        =      -1.6910166665445572 [Eh]
	 Total Energy              =    -841.6190088870508816 [Eh]

	 ================> DF-SCS-MP2 Energies <==================
	-----------------------------------------------------------
	 SCS Same-Spin Scale       =       0.3333333333333333 [-]
	 SCS Opposite-Spin Scale   =       1.2000000000000000 [-]
	 SCS Same-Spin Energy      =      -0.1391306503795628 [Eh]
	 SCS Opposite-Spin Energy  =      -1.5283496584870426 [Eh]
	 SCS Correlation Energy    =      -1.6674803088666055 [Eh]
	 SCS Total Energy          =    -841.5954725293729553 [Eh]
	-----------------------------------------------------------

*** Psi4 exiting successfully. Buy a developer a beer!
