                               Psi4 1.8.2 release

  ==> Input File <==

--------------------------------------------------------------------------
MEMORY 60 GB

molecule dimer {
0 1
Gh(Cl)     0.000000     0.000000     0.000000
Gh(O)      2.577144     1.301097    -1.507566
Gh(H)      1.636751     1.082512    -1.310522
Gh(H)      2.493026     1.546902    -2.431710
O         -0.803884    -0.114309     3.230273
H         -1.032596    -0.160666     2.314983
H         -1.231357    -0.797408     3.797174
Gh(O)      0.843661    -2.286358    -2.084704
Gh(H)      0.687224    -1.478250    -1.561391
Gh(H)      0.748808    -1.967004    -2.989697
Gh(O)     -3.119480    -1.368652    -0.412857
Gh(H)     -2.259889    -0.968028    -0.211314
Gh(H)     -2.868990    -2.275884    -0.520071

units ang
no_reorient
no_com
symmetry c1
}

set {
basis        aug-cc-pVTZ
scf_type     df
}

energy("mp2")
--------------------------------------------------------------------------

    Molecular point group: c1

    Geometry (in Angstrom), charge = 0, multiplicity = 1:

       Center              X                  Y                   Z               Mass
    ------------   -----------------  -----------------  -----------------  -----------------
      Gh(CL)          0.000000000000     0.000000000000     0.000000000000    34.968852682000
      Gh(O)           2.577144000000     1.301097000000    -1.507566000000    15.994914619570
      Gh(H)           1.636751000000     1.082512000000    -1.310522000000     1.007825032230
      Gh(H)           2.493026000000     1.546902000000    -2.431710000000     1.007825032230
         O           -0.803884000000    -0.114309000000     3.230273000000    15.994914619570
         H           -1.032596000000    -0.160666000000     2.314983000000     1.007825032230
         H           -1.231357000000    -0.797408000000     3.797174000000     1.007825032230
      Gh(O)           0.843661000000    -2.286358000000    -2.084704000000    15.994914619570
      Gh(H)           0.687224000000    -1.478250000000    -1.561391000000     1.007825032230
      Gh(H)           0.748808000000    -1.967004000000    -2.989697000000     1.007825032230
      Gh(O)          -3.119480000000    -1.368652000000    -0.412857000000    15.994914619570
      Gh(H)          -2.259889000000    -0.968028000000    -0.211314000000     1.007825032230
      Gh(H)          -2.868990000000    -2.275884000000    -0.520071000000     1.007825032230

  Charge       = 0
  Multiplicity = 1
  Basis Set: AUG-CC-PVTZ
    Blend: AUG-CC-PVTZ
  Basis Set: (AUG-CC-PVTZ AUX)
    Blend: AUG-CC-PVTZ-JKFIT

    Orbital Energies [Eh]
    ---------------------

    Doubly Occupied:

       1A    -20.563552     2A     -1.343096     3A     -0.731863
       4A     -0.563730     5A     -0.506565

  @DF-RHF Final Energy:   -76.05712639933343

   => Energetics <=

    Nuclear Repulsion Energy =              9.1041743310153187
    One-Electron Energy =                -122.9049838606414653
    Two-Electron Energy =                  37.7436831302927160
    Total Energy =                        -76.0571263993334412
 Dipole X            :         15.9822351          -16.4312159           -0.4489808
 Dipole Y            :          3.0410619           -3.5385991           -0.4975372
 Dipole Z            :        -60.6279785           60.3849530           -0.2430255
 Magnitude           :                                                    0.7128733
  Basis Set: (AUG-CC-PVTZ AUX)
    Blend: AUG-CC-PVTZ-RI
	 Reference Energy          =     -76.0571263993334270 [Eh]
	 Singles Energy            =      -0.0000000000000000 [Eh]
	 Same-Spin Energy          =      -0.0684218509432014 [Eh]
	 Opposite-Spin Energy      =      -0.2155653903404669 [Eh]
	 Correlation Energy        =      -0.2839872412836683 [Eh]
	 Total Energy              =     -76.3411136406170954 [Eh]

	 ================> DF-SCS-MP2 Energies <==================
	-----------------------------------------------------------
	 SCS Same-Spin Scale       =       0.3333333333333333 [-]
	 SCS Opposite-Spin Scale   =       1.2000000000000000 [-]
	 SCS Same-Spin Energy      =      -0.0228072836477338 [Eh]
	 SCS Opposite-Spin Energy  =      -0.2586784684085603 [Eh]
	 SCS Correlation Energy    =      -0.2814857520562941 [Eh]
	 SCS Total Energy          =     -76.3386121513897251 [Eh]
	-----------------------------------------------------------

*** Psi4 exiting successfully. Buy a developer a beer!
