                               Psi4 1.8.2 release

  ==> Input File <==

--------------------------------------------------------------------------
MEMORY 60 GB

molecule dimer {
0 1
Gh(Cl)     0.000000     0.000000     0.000000
O          2.094734     2.420118    -0.988704
H          2.288132     3.072303    -0.322075
H          1.277471     1.962329    -0.721292
Gh(O)      1.301190    -0.283191    -2.893486
Gh(H)      0.711077     0.041554    -3.544511
Gh(H)      0.857715    -0.109161    -2.051104
Gh(O)     -1.945290     2.393035     1.309219
Gh(H)     -2.923087     2.279788     1.331312
Gh(H)     -1.540510     1.545688     0.980189
Gh(O)      0.845936    -3.031399    -0.329358
Gh(H)      0.345432    -2.188035    -0.437677
Gh(H)      1.647577    -2.766488    -0.821843
Gh(O)      1.967141     1.310230     2.500265
Gh(H)      1.474350     0.935107     1.769862
Gh(H)      2.839433     0.878062     2.441727

units ang
no_reorient
no_com
symmetry c1
}

set {
basis        aug-cc-pVTZ
scf_type     df
}

energy("mp2")
--------------------------------------------------------------------------

    Molecular point group: c1

    Geometry (in Angstrom), charge = 0, multiplicity = 1:

       Center              X                  Y                   Z               Mass
    ------------   -----------------  -----------------  -----------------  -----------------
      Gh(CL)          0.000000000000     0.000000000000     0.000000000000    34.968852682000
         O            2.094734000000     2.420118000000    -0.988704000000    15.994914619570
         H            2.288132000000     3.072303000000    -0.322075000000     1.007825032230
         H            1.277471000000     1.962329000000    -0.721292000000     1.007825032230
      Gh(O)           1.301190000000    -0.283191000000    -2.893486000000    15.994914619570
      Gh(H)           0.711077000000     0.041554000000    -3.544511000000     1.007825032230
      Gh(H)           0.857715000000    -0.109161000000    -2.051104000000     1.007825032230
      Gh(O)          -1.945290000000     2.393035000000     1.309219000000    15.994914619570
      Gh(H)          -2.923087000000     2.279788000000     1.331312000000     1.007825032230
      Gh(H)          -1.540510000000     1.545688000000     0.980189000000     1.007825032230
      Gh(O)           0.845936000000    -3.031399000000    -0.329358000000    15.994914619570
      Gh(H)           0.345432000000    -2.188035000000    -0.437677000000     1.007825032230
      Gh(H)           1.647577000000    -2.766488000000    -0.821843000000     1.007825032230
      Gh(O)           1.967141000000     1.310230000000     2.500265000000    15.994914619570
      Gh(H)           1.474350000000     0.935107000000     1.769862000000     1.007825032230
      Gh(H)           2.839433000000     0.878062000000     2.441727000000     1.007825032230

  Charge       = 0
  Multiplicity = 1
  Basis Set: AUG-CC-PVTZ
    Blend: AUG-CC-PVTZ
  Basis Set: (AUG-CC-PVTZ AUX)
    Blend: AUG-CC-PVTZ-JKFIT

    Orbital Energies [Eh]
    ---------------------

    Doubly Occupied:

       1A    -20.566818     2A     -1.348466     3A     -0.720041
       4A     -0.577949     5A     -0.508973

  @DF-RHF Final Energy:   -76.05991591001037

   => Energetics <=

    Nuclear Repulsion Energy =              9.1311692102715778
    One-Electron Energy =                -122.9376727250780874
    Two-Electron Energy =                  37.7465876047961331
    Total Energy =                        -76.0599159100103748
 Dipole X            :        -38.8213328           38.4058017           -0.4155311
 Dipole Y            :        -45.9684214           46.1009573            0.1325359
 Dipole Z            :         17.5443081          -16.9187161            0.6255920
 Magnitude           :                                                    0.7626252
  Basis Set: (AUG-CC-PVTZ AUX)
    Blend: AUG-CC-PVTZ-RI
	 Reference Energy          =     -76.0599159100103748 [Eh]
	 Singles Energy            =      -0.0000000000000000 [Eh]
	 Same-Spin Energy          =      -0.0684501174725310 [Eh]
	 Opposite-Spin Energy      =      -0.2158963556612621 [Eh]
	 Correlation Energy        =      -0.2843464731337931 [Eh]
	 Total Energy              =     -76.3442623831441693 [Eh]

	 ================> DF-SCS-MP2 Energies <==================
	-----------------------------------------------------------
	 SCS Same-Spin Scale       =       0.3333333333333333 [-]
	 SCS Opposite-Spin Scale   =       1.2000000000000000 [-]
	 SCS Same-Spin Energy      =      -0.0228167058241770 [Eh]
	 SCS Opposite-Spin Energy  =      -0.2590756267935145 [Eh]
	 SCS Correlation Energy    =      -0.2818923326176915 [Eh]
	 SCS Total Energy          =     -76.3418082426280620 [Eh]
	-----------------------------------------------------------

*** Psi4 exiting successfully. Buy a developer a beer!
