                               Psi4 1.8.2 release

  ==> Input File <==

--------------------------------------------------------------------------
MEMORY 60 GB

molecule dimer {
0 1
Gh(Cl)     0.000000     0.000000     0.000000
Gh(O)     -1.632332     2.490935     1.090048
Gh(H)     -2.053129     2.113159     1.904687
Gh(H)     -1.215364     1.757596     0.622949
O          0.950607     2.374464    -2.175994
H          0.927656     1.703640    -1.451191
H          1.486632     2.014327    -2.868406
Gh(O)      1.822289     1.832252     1.982226
Gh(H)      1.341000     2.127700     2.740689
Gh(H)      1.159400     1.352759     1.469391
Gh(O)      1.460341    -2.851653    -1.369342
Gh(H)      0.883151    -3.546723    -1.094304
Gh(H)      1.133759    -1.999688    -1.056883
Gh(O)     -0.794840    -0.536729    -3.305985
Gh(H)     -1.209369    -0.160838    -4.088131
Gh(H)     -0.723789     0.210704    -2.606868

units ang
no_reorient
no_com
symmetry c1
}

set {
basis        aug-cc-pVTZ
scf_type     df
}

energy("mp2")
--------------------------------------------------------------------------

    Molecular point group: c1

    Geometry (in Angstrom), charge = 0, multiplicity = 1:

       Center              X                  Y                   Z               Mass
    ------------   -----------------  -----------------  -----------------  -----------------
      Gh(CL)          0.000000000000     0.000000000000     0.000000000000    34.968852682000
      Gh(O)          -1.632332000000     2.490935000000     1.090048000000    15.994914619570
      Gh(H)          -2.053129000000     2.113159000000     1.904687000000     1.007825032230
      Gh(H)          -1.215364000000     1.757596000000     0.622949000000     1.007825032230
         O            0.950607000000     2.374464000000    -2.175994000000    15.994914619570
         H            0.927656000000     1.703640000000    -1.451191000000     1.007825032230
         H            1.486632000000     2.014327000000    -2.868406000000     1.007825032230
      Gh(O)           1.822289000000     1.832252000000     1.982226000000    15.994914619570
      Gh(H)           1.341000000000     2.127700000000     2.740689000000     1.007825032230
      Gh(H)           1.159400000000     1.352759000000     1.469391000000     1.007825032230
      Gh(O)           1.460341000000    -2.851653000000    -1.369342000000    15.994914619570
      Gh(H)           0.883151000000    -3.546723000000    -1.094304000000     1.007825032230
      Gh(H)           1.133759000000    -1.999688000000    -1.056883000000     1.007825032230
      Gh(O)          -0.794840000000    -0.536729000000    -3.305985000000    15.994914619570
      Gh(H)          -1.209369000000    -0.160838000000    -4.088131000000     1.007825032230
      Gh(H)          -0.723789000000     0.210704000000    -2.606868000000     1.007825032230

  Charge       = 0
  Multiplicity = 1
  Basis Set: AUG-CC-PVTZ
    Blend: AUG-CC-PVTZ
  Basis Set: (AUG-CC-PVTZ AUX)
    Blend: AUG-CC-PVTZ-JKFIT

    Orbital Energies [Eh]
    ---------------------

    Doubly Occupied:

       1A    -20.567689     2A     -1.347075     3A     -0.716954
       4A     -0.578081     5A     -0.508818

  @DF-RHF Final Energy:   -76.05899654916296

   => Energetics <=

    Nuclear Repulsion Energy =              9.0970068806438071
    One-Electron Energy =                -122.8747710346769395
    Two-Electron Energy =                  37.7187676048701874
    Total Energy =                        -76.0589965491629414
 Dipole X            :        -18.5890788           18.9334382            0.3443594
 Dipole Y            :        -43.6082099           42.9226326           -0.6855773
 Dipole Z            :         41.0749701          -41.0591170            0.0158531
 Magnitude           :                                                    0.7673662
  Basis Set: (AUG-CC-PVTZ AUX)
    Blend: AUG-CC-PVTZ-RI
	 Reference Energy          =     -76.0589965491629556 [Eh]
	 Singles Energy            =      -0.0000000000000000 [Eh]
	 Same-Spin Energy          =      -0.0685246488258356 [Eh]
	 Opposite-Spin Energy      =      -0.2161790320212812 [Eh]
	 Correlation Energy        =      -0.2847036808471167 [Eh]
	 Total Energy              =     -76.3437002300100716 [Eh]

	 ================> DF-SCS-MP2 Energies <==================
	-----------------------------------------------------------
	 SCS Same-Spin Scale       =       0.3333333333333333 [-]
	 SCS Opposite-Spin Scale   =       1.2000000000000000 [-]
	 SCS Same-Spin Energy      =      -0.0228415496086119 [Eh]
	 SCS Opposite-Spin Energy  =      -0.2594148384255374 [Eh]
	 SCS Correlation Energy    =      -0.2822563880341492 [Eh]
	 SCS Total Energy          =     -76.3412529371971118 [Eh]
	-----------------------------------------------------------

*** Psi4 exiting successfully. Buy a developer a beer!
