                               Psi4 1.8.2 release

  ==> Input File <==

--------------------------------------------------------------------------
MEMORY 60 GB

molecule dimer {
0 1
Gh(Cl)     0.000000     0.000000     0.000000
Gh(O)      1.643517    -2.671033    -0.571244
Gh(H)      1.442644    -3.447881     0.013578
Gh(H)      0.828471    -2.107925    -0.378806
Gh(O)     -2.118199    -2.087345     0.884562
Gh(H)     -1.644371    -1.233785     0.607522
Gh(H)     -3.051365    -1.880592     0.681310
Gh(O)      0.599442     1.213303     2.922861
Gh(H)      0.626392     1.960370     2.295878
Gh(H)      0.540948     0.461657     2.407060
Gh(O)     -2.500190     1.554417     0.736574
Gh(H)     -1.721962     1.048901     0.477950
Gh(H)     -3.117665     1.113809     0.151889
O          0.419712     0.008157    -3.275042
H         -0.472377     0.059341    -3.781707
H          0.155255    -0.226504    -2.409947

units ang
no_reorient
no_com
symmetry c1
}

set {
basis        aug-cc-pVTZ
scf_type     df
}

energy("mp2")
--------------------------------------------------------------------------

    Molecular point group: c1

    Geometry (in Angstrom), charge = 0, multiplicity = 1:

       Center              X                  Y                   Z               Mass
    ------------   -----------------  -----------------  -----------------  -----------------
      Gh(CL)          0.000000000000     0.000000000000     0.000000000000    34.968852682000
      Gh(O)           1.643517000000    -2.671033000000    -0.571244000000    15.994914619570
      Gh(H)           1.442644000000    -3.447881000000     0.013578000000     1.007825032230
      Gh(H)           0.828471000000    -2.107925000000    -0.378806000000     1.007825032230
      Gh(O)          -2.118199000000    -2.087345000000     0.884562000000    15.994914619570
      Gh(H)          -1.644371000000    -1.233785000000     0.607522000000     1.007825032230
      Gh(H)          -3.051365000000    -1.880592000000     0.681310000000     1.007825032230
      Gh(O)           0.599442000000     1.213303000000     2.922861000000    15.994914619570
      Gh(H)           0.626392000000     1.960370000000     2.295878000000     1.007825032230
      Gh(H)           0.540948000000     0.461657000000     2.407060000000     1.007825032230
      Gh(O)          -2.500190000000     1.554417000000     0.736574000000    15.994914619570
      Gh(H)          -1.721962000000     1.048901000000     0.477950000000     1.007825032230
      Gh(H)          -3.117665000000     1.113809000000     0.151889000000     1.007825032230
         O            0.419712000000     0.008157000000    -3.275042000000    15.994914619570
         H           -0.472377000000     0.059341000000    -3.781707000000     1.007825032230
         H            0.155255000000    -0.226504000000    -2.409947000000     1.007825032230

  Charge       = 0
  Multiplicity = 1
  Basis Set: AUG-CC-PVTZ
    Blend: AUG-CC-PVTZ
  Basis Set: (AUG-CC-PVTZ AUX)
    Blend: AUG-CC-PVTZ-JKFIT

    Orbital Energies [Eh]
    ---------------------

    Doubly Occupied:

       1A    -20.571550     2A     -1.344762     3A     -0.702906
       4A     -0.582638     5A     -0.509127

  @DF-RHF Final Energy:   -76.05428789492024

   => Energetics <=

    Nuclear Repulsion Energy =              8.9958287249003188
    One-Electron Energy =                -122.6782611355736208
    Two-Electron Energy =                  37.6281445157530712
    Total Energy =                        -76.0542878949202361
 Dipole X            :         -6.4947819            5.7458521           -0.7489297
 Dipole Y            :          0.0693415           -0.1925763           -0.1232349
 Dipole Z            :         61.4615084          -61.2119898            0.2495186
 Magnitude           :                                                    0.7989632
  Basis Set: (AUG-CC-PVTZ AUX)
    Blend: AUG-CC-PVTZ-RI
	 Reference Energy          =     -76.0542878949202361 [Eh]
	 Singles Energy            =      -0.0000000000000000 [Eh]
	 Same-Spin Energy          =      -0.0687979856033711 [Eh]
	 Opposite-Spin Energy      =      -0.2171675286876006 [Eh]
	 Correlation Energy        =      -0.2859655142909717 [Eh]
	 Total Energy              =     -76.3402534092112148 [Eh]

	 ================> DF-SCS-MP2 Energies <==================
	-----------------------------------------------------------
	 SCS Same-Spin Scale       =       0.3333333333333333 [-]
	 SCS Opposite-Spin Scale   =       1.2000000000000000 [-]
	 SCS Same-Spin Energy      =      -0.0229326618677904 [Eh]
	 SCS Opposite-Spin Energy  =      -0.2606010344251207 [Eh]
	 SCS Correlation Energy    =      -0.2835336962929110 [Eh]
	 SCS Total Energy          =     -76.3378215912131424 [Eh]
	-----------------------------------------------------------

*** Psi4 exiting successfully. Buy a developer a beer!
