                               Psi4 1.8.2 release

  ==> Input File <==

--------------------------------------------------------------------------
MEMORY 60 GB

molecule dimer {
-1 1
Cl         0.000000     0.000000     0.000000
O         -3.072186    -0.943385    -1.151340
H         -2.109297    -0.833410    -1.232254
H         -3.480580    -0.069519    -1.336406
O         -2.170564     2.085398    -0.537936
H         -1.492369     1.468992    -0.217548
H         -1.948541     2.234535    -1.504709
O          1.715914     2.702458    -1.046000
H          2.231407     2.871279    -1.844869
H          1.155635     1.946575    -1.231334
O         -0.734965     0.285092    -3.206055
H         -0.613228     0.151032    -2.243593
H         -0.192858     1.041459    -3.457951
O         -1.691451    -2.961899     0.571525
H         -1.220428    -3.805275     0.457431
H         -1.045938    -2.256831     0.320946

units ang
no_reorient
no_com
symmetry c1
}

set {
basis        aug-cc-pVTZ
scf_type     df
}

energy("mp2")
--------------------------------------------------------------------------

    Molecular point group: c1

    Geometry (in Angstrom), charge = -1, multiplicity = 1:

       Center              X                  Y                   Z               Mass
    ------------   -----------------  -----------------  -----------------  -----------------
         CL           0.000000000000     0.000000000000     0.000000000000    34.968852682000
         O           -3.072186000000    -0.943385000000    -1.151340000000    15.994914619570
         H           -2.109297000000    -0.833410000000    -1.232254000000     1.007825032230
         H           -3.480580000000    -0.069519000000    -1.336406000000     1.007825032230
         O           -2.170564000000     2.085398000000    -0.537936000000    15.994914619570
         H           -1.492369000000     1.468992000000    -0.217548000000     1.007825032230
         H           -1.948541000000     2.234535000000    -1.504709000000     1.007825032230
         O            1.715914000000     2.702458000000    -1.046000000000    15.994914619570
         H            2.231407000000     2.871279000000    -1.844869000000     1.007825032230
         H            1.155635000000     1.946575000000    -1.231334000000     1.007825032230
         O           -0.734965000000     0.285092000000    -3.206055000000    15.994914619570
         H           -0.613228000000     0.151032000000    -2.243593000000     1.007825032230
         H           -0.192858000000     1.041459000000    -3.457951000000     1.007825032230
         O           -1.691451000000    -2.961899000000     0.571525000000    15.994914619570
         H           -1.220428000000    -3.805275000000     0.457431000000     1.007825032230
         H           -1.045938000000    -2.256831000000     0.320946000000     1.007825032230

  Charge       = -1
  Multiplicity = 1
  Basis Set: AUG-CC-PVTZ
    Blend: AUG-CC-PVTZ
  Basis Set: (AUG-CC-PVTZ AUX)
    Blend: AUG-CC-PVTZ-JKFIT

    Orbital Energies [Eh]
    ---------------------

    Doubly Occupied:

       1A   -104.589216     2A    -20.442136     3A    -20.437797
       4A    -20.417643     5A    -20.407814     6A    -20.400289
       7A    -10.314386     8A     -7.780506     9A     -7.780431
      10A     -7.780390    11A     -1.225480    12A     -1.218495
      13A     -1.190722    14A     -1.182145    15A     -1.174696
      16A     -0.833486    17A     -0.595377    18A     -0.591352
      19A     -0.561008    20A     -0.548174    21A     -0.542796
      22A     -0.459699    23A     -0.452152    24A     -0.430395
      25A     -0.428942    26A     -0.413676    27A     -0.385627
      28A     -0.380945    29A     -0.358002    30A     -0.350902
      31A     -0.339022    32A     -0.245556    33A     -0.243458
      34A     -0.240705

  @DF-RHF Final Energy:  -839.91360210793744

   => Energetics <=

    Nuclear Repulsion Energy =            315.4716514743355447
    One-Electron Energy =               -1801.2836566423325166
    Two-Electron Energy =                 645.8984030600596498
    Total Energy =                       -839.9136021079374359
 Dipole X            :        109.0667029         -106.4713519            2.5953510
 Dipole Y            :        -22.7571384           22.8470704            0.0899320
 Dipole Z            :        104.1362156         -104.4049779           -0.2687623
 Magnitude           :                                                    2.6107792
  Basis Set: (AUG-CC-PVTZ AUX)
    Blend: AUG-CC-PVTZ-RI
	 Reference Energy          =    -839.9136021079374359 [Eh]
	 Singles Energy            =      -0.0000000000000000 [Eh]
	 Same-Spin Energy          =      -0.4187268464012934 [Eh]
	 Opposite-Spin Energy      =      -1.2776951980867974 [Eh]
	 Correlation Energy        =      -1.6964220444880909 [Eh]
	 Total Energy              =    -841.6100241524255807 [Eh]

	 ================> DF-SCS-MP2 Energies <==================
	-----------------------------------------------------------
	 SCS Same-Spin Scale       =       0.3333333333333333 [-]
	 SCS Opposite-Spin Scale   =       1.2000000000000000 [-]
	 SCS Same-Spin Energy      =      -0.1395756154670978 [Eh]
	 SCS Opposite-Spin Energy  =      -1.5332342377041568 [Eh]
	 SCS Correlation Energy    =      -1.6728098531712545 [Eh]
	 SCS Total Energy          =    -841.5864119611086380 [Eh]
	-----------------------------------------------------------

*** Psi4 exiting successfully. Buy a developer a beer!
