                               Psi4 1.8.2 release

  ==> Input File <==

--------------------------------------------------------------------------
MEMORY 60 GB

molecule dimer {
-1 1
Cl         0.000000     0.000000     0.000000
Gh(O)     -1.308514    -3.021033     0.224570
Gh(H)     -0.936905    -2.106332     0.230301
Gh(H)     -1.583115    -3.224008    -0.634500
Gh(O)      2.034987    -2.736438     0.261525
Gh(H)      1.926419    -3.209727     1.152196
Gh(H)      1.340897    -2.074538     0.255592
Gh(O)      2.614152     1.974738    -1.057657
Gh(H)      2.604676     1.369411    -0.325218
Gh(H)      3.499309     2.340070    -1.031330
Gh(O)     -0.443471     1.169568    -3.144304
Gh(H)     -0.589228     0.505431    -2.398513
Gh(H)     -0.814852     0.803347    -3.980457
Gh(O)      3.188344    -0.067036     1.347838
Gh(H)      3.603647     0.506360     1.946832
Gh(H)      2.585837    -0.642943     1.833742
Gh(O)      0.074816    -0.986092     3.001192
Gh(H)     -0.185721    -0.495387     2.211357
Gh(H)     -0.346700    -0.687598     3.778177
Gh(O)     -3.028136    -0.051263     0.795317
Gh(H)     -3.215716     0.852168     1.057333
Gh(H)     -2.058031    -0.146230     0.730970

units ang
no_reorient
no_com
symmetry c1
}

set {
basis        aug-cc-pVTZ
scf_type     df
}

energy("mp2")
--------------------------------------------------------------------------

    Molecular point group: c1

    Geometry (in Angstrom), charge = -1, multiplicity = 1:

       Center              X                  Y                   Z               Mass
    ------------   -----------------  -----------------  -----------------  -----------------
         CL           0.000000000000     0.000000000000     0.000000000000    34.968852682000
      Gh(O)          -1.308514000000    -3.021033000000     0.224570000000    15.994914619570
      Gh(H)          -0.936905000000    -2.106332000000     0.230301000000     1.007825032230
      Gh(H)          -1.583115000000    -3.224008000000    -0.634500000000     1.007825032230
      Gh(O)           2.034987000000    -2.736438000000     0.261525000000    15.994914619570
      Gh(H)           1.926419000000    -3.209727000000     1.152196000000     1.007825032230
      Gh(H)           1.340897000000    -2.074538000000     0.255592000000     1.007825032230
      Gh(O)           2.614152000000     1.974738000000    -1.057657000000    15.994914619570
      Gh(H)           2.604676000000     1.369411000000    -0.325218000000     1.007825032230
      Gh(H)           3.499309000000     2.340070000000    -1.031330000000     1.007825032230
      Gh(O)          -0.443471000000     1.169568000000    -3.144304000000    15.994914619570
      Gh(H)          -0.589228000000     0.505431000000    -2.398513000000     1.007825032230
      Gh(H)          -0.814852000000     0.803347000000    -3.980457000000     1.007825032230
      Gh(O)           3.188344000000    -0.067036000000     1.347838000000    15.994914619570
      Gh(H)           3.603647000000     0.506360000000     1.946832000000     1.007825032230
      Gh(H)           2.585837000000    -0.642943000000     1.833742000000     1.007825032230
      Gh(O)           0.074816000000    -0.986092000000     3.001192000000    15.994914619570
      Gh(H)          -0.185721000000    -0.495387000000     2.211357000000     1.007825032230
      Gh(H)          -0.346700000000    -0.687598000000     3.778177000000     1.007825032230
      Gh(O)          -3.028136000000    -0.051263000000     0.795317000000    15.994914619570
      Gh(H)          -3.215716000000     0.852168000000     1.057333000000     1.007825032230
      Gh(H)          -2.058031000000    -0.146230000000     0.730970000000     1.007825032230

  Charge       = -1
  Multiplicity = 1
  Basis Set: AUG-CC-PVTZ
    Blend: AUG-CC-PVTZ
  Basis Set: (AUG-CC-PVTZ AUX)
    Blend: AUG-CC-PVTZ-JKFIT

    Orbital Energies [Eh]
    ---------------------

    Doubly Occupied:

       1A   -104.507409     2A    -10.230093     3A     -7.696168
       4A     -7.696149     5A     -7.696142     6A     -0.733458
       7A     -0.150304     8A     -0.150303     9A     -0.150295

  @DF-RHF Final Energy:  -459.57359436524905

   => Energetics <=

    Nuclear Repulsion Energy =              0.0000000000000000
    One-Electron Energy =                -641.1265574628001787
    Two-Electron Energy =                 181.5529630975511566
    Total Energy =                       -459.5735943652490505
 Dipole X            :         -0.0000803            0.0000000           -0.0000803
 Dipole Y            :         -0.0001486            0.0000000           -0.0001486
 Dipole Z            :          0.0000120            0.0000000            0.0000120
 Magnitude           :                                                    0.0001693
  Basis Set: (AUG-CC-PVTZ AUX)
    Blend: AUG-CC-PVTZ-RI
	 Reference Energy          =    -459.5735943652490505 [Eh]
	 Singles Energy            =      -0.0000000000000000 [Eh]
	 Same-Spin Energy          =      -0.0637368735111806 [Eh]
	 Opposite-Spin Energy      =      -0.1845677950124082 [Eh]
	 Correlation Energy        =      -0.2483046685235888 [Eh]
	 Total Energy              =    -459.8218990337726382 [Eh]

	 ================> DF-SCS-MP2 Energies <==================
	-----------------------------------------------------------
	 SCS Same-Spin Scale       =       0.3333333333333333 [-]
	 SCS Opposite-Spin Scale   =       1.2000000000000000 [-]
	 SCS Same-Spin Energy      =      -0.0212456245037269 [Eh]
	 SCS Opposite-Spin Energy  =      -0.2214813540148898 [Eh]
	 SCS Correlation Energy    =      -0.2427269785186167 [Eh]
	 SCS Total Energy          =    -459.8163213437676404 [Eh]
	-----------------------------------------------------------

*** Psi4 exiting successfully. Buy a developer a beer!
