                               Psi4 1.8.2 release

  ==> Input File <==

--------------------------------------------------------------------------
MEMORY 60 GB

molecule dimer {
0 1
Gh(Cl)     0.000000     0.000000     0.000000
Gh(O)     -0.798897     3.124496    -0.215681
Gh(H)      0.060559     3.616307    -0.380398
Gh(H)     -0.556490     2.210170     0.138435
O          2.730753    -0.341451    -2.110045
H          2.680631    -1.003483    -1.437785
H          1.867978    -0.486660    -2.459935
Gh(O)      2.428296    -0.475128     2.348279
Gh(H)      1.839286    -0.737724     1.638816
Gh(H)      2.905468    -1.272764     2.554222
Gh(O)     -1.218819     0.750935     2.669050
Gh(H)     -1.171669     0.087468     3.394068
Gh(H)     -0.655150     0.411680     1.957964
Gh(O)     -0.679205    -3.054936    -0.078274
Gh(H)     -0.469217    -2.104139    -0.091012
Gh(H)     -0.608392    -3.314175    -1.020973

units ang
no_reorient
no_com
symmetry c1
}

set {
basis        aug-cc-pVTZ
scf_type     df
}

energy("mp2")
--------------------------------------------------------------------------

    Molecular point group: c1

    Geometry (in Angstrom), charge = 0, multiplicity = 1:

       Center              X                  Y                   Z               Mass
    ------------   -----------------  -----------------  -----------------  -----------------
      Gh(CL)          0.000000000000     0.000000000000     0.000000000000    34.968852682000
      Gh(O)          -0.798897000000     3.124496000000    -0.215681000000    15.994914619570
      Gh(H)           0.060559000000     3.616307000000    -0.380398000000     1.007825032230
      Gh(H)          -0.556490000000     2.210170000000     0.138435000000     1.007825032230
         O            2.730753000000    -0.341451000000    -2.110045000000    15.994914619570
         H            2.680631000000    -1.003483000000    -1.437785000000     1.007825032230
         H            1.867978000000    -0.486660000000    -2.459935000000     1.007825032230
      Gh(O)           2.428296000000    -0.475128000000     2.348279000000    15.994914619570
      Gh(H)           1.839286000000    -0.737724000000     1.638816000000     1.007825032230
      Gh(H)           2.905468000000    -1.272764000000     2.554222000000     1.007825032230
      Gh(O)          -1.218819000000     0.750935000000     2.669050000000    15.994914619570
      Gh(H)          -1.171669000000     0.087468000000     3.394068000000     1.007825032230
      Gh(H)          -0.655150000000     0.411680000000     1.957964000000     1.007825032230
      Gh(O)          -0.679205000000    -3.054936000000    -0.078274000000    15.994914619570
      Gh(H)          -0.469217000000    -2.104139000000    -0.091012000000     1.007825032230
      Gh(H)          -0.608392000000    -3.314175000000    -1.020973000000     1.007825032230

  Charge       = 0
  Multiplicity = 1
  Basis Set: AUG-CC-PVTZ
    Blend: AUG-CC-PVTZ
  Basis Set: (AUG-CC-PVTZ AUX)
    Blend: AUG-CC-PVTZ-JKFIT

    Orbital Energies [Eh]
    ---------------------

    Doubly Occupied:

       1A    -20.568039     2A     -1.367339     3A     -0.707808
       4A     -0.604209     5A     -0.513821

  @DF-RHF Final Energy:   -76.05841688448825

   => Energetics <=

    Nuclear Repulsion Energy =              9.3500892441249839
    One-Electron Energy =                -123.2945766082486045
    Two-Electron Energy =                  37.8860704796353573
    Total Energy =                        -76.0584168844882527
 Dipole X            :        -50.4776988           49.8786276           -0.5990712
 Dipole Y            :          7.4483865           -7.9779532           -0.5295667
 Dipole Z            :         39.4758312          -39.2648806            0.2109506
 Magnitude           :                                                    0.8269385
  Basis Set: (AUG-CC-PVTZ AUX)
    Blend: AUG-CC-PVTZ-RI
	 Reference Energy          =     -76.0584168844882527 [Eh]
	 Singles Energy            =      -0.0000000000000000 [Eh]
	 Same-Spin Energy          =      -0.0683585486174160 [Eh]
	 Opposite-Spin Energy      =      -0.2152045073989265 [Eh]
	 Correlation Energy        =      -0.2835630560163425 [Eh]
	 Total Energy              =     -76.3419799405046007 [Eh]

	 ================> DF-SCS-MP2 Energies <==================
	-----------------------------------------------------------
	 SCS Same-Spin Scale       =       0.3333333333333333 [-]
	 SCS Opposite-Spin Scale   =       1.2000000000000000 [-]
	 SCS Same-Spin Energy      =      -0.0227861828724720 [Eh]
	 SCS Opposite-Spin Energy  =      -0.2582454088787118 [Eh]
	 SCS Correlation Energy    =      -0.2810315917511838 [Eh]
	 SCS Total Energy          =     -76.3394484762394399 [Eh]
	-----------------------------------------------------------

*** Psi4 exiting successfully. Buy a developer a beer!
