                               Psi4 1.8.2 release

  ==> Input File <==

--------------------------------------------------------------------------
MEMORY 60 GB

molecule dimer {
0 1
Gh(Cl)     0.000000     0.000000     0.000000
Gh(O)     -0.626448    -3.113592     0.754314
Gh(H)     -0.239394    -2.239675     0.691889
Gh(H)     -1.537945    -2.905973     0.527826
Gh(O)      1.128243    -1.708551    -2.677056
Gh(H)      0.826606    -1.143339    -1.981423
Gh(H)      0.825023    -2.562071    -2.503514
O          2.956940    -0.462505     1.050307
H          2.187350    -0.102340     0.693405
H          2.611752    -1.280708     1.398652
Gh(O)     -0.731735     3.351951     0.529715
Gh(H)     -0.503408     2.491672     0.171643
Gh(H)     -0.052956     3.760527     1.140496
Gh(O)      1.659667     1.365866    -2.584794
Gh(H)      1.265558     1.161297    -3.485117
Gh(H)      1.085125     0.911723    -1.915010

units ang
no_reorient
no_com
symmetry c1
}

set {
basis        aug-cc-pVTZ
scf_type     df
}

energy("mp2")
--------------------------------------------------------------------------

    Molecular point group: c1

    Geometry (in Angstrom), charge = 0, multiplicity = 1:

       Center              X                  Y                   Z               Mass
    ------------   -----------------  -----------------  -----------------  -----------------
      Gh(CL)          0.000000000000     0.000000000000     0.000000000000    34.968852682000
      Gh(O)          -0.626448000000    -3.113592000000     0.754314000000    15.994914619570
      Gh(H)          -0.239394000000    -2.239675000000     0.691889000000     1.007825032230
      Gh(H)          -1.537945000000    -2.905973000000     0.527826000000     1.007825032230
      Gh(O)           1.128243000000    -1.708551000000    -2.677056000000    15.994914619570
      Gh(H)           0.826606000000    -1.143339000000    -1.981423000000     1.007825032230
      Gh(H)           0.825023000000    -2.562071000000    -2.503514000000     1.007825032230
         O            2.956940000000    -0.462505000000     1.050307000000    15.994914619570
         H            2.187350000000    -0.102340000000     0.693405000000     1.007825032230
         H            2.611752000000    -1.280708000000     1.398652000000     1.007825032230
      Gh(O)          -0.731735000000     3.351951000000     0.529715000000    15.994914619570
      Gh(H)          -0.503408000000     2.491672000000     0.171643000000     1.007825032230
      Gh(H)          -0.052956000000     3.760527000000     1.140496000000     1.007825032230
      Gh(O)           1.659667000000     1.365866000000    -2.584794000000    15.994914619570
      Gh(H)           1.265558000000     1.161297000000    -3.485117000000     1.007825032230
      Gh(H)           1.085125000000     0.911723000000    -1.915010000000     1.007825032230

  Charge       = 0
  Multiplicity = 1
  Basis Set: AUG-CC-PVTZ
    Blend: AUG-CC-PVTZ
  Basis Set: (AUG-CC-PVTZ AUX)
    Blend: AUG-CC-PVTZ-JKFIT

    Orbital Energies [Eh]
    ---------------------

    Doubly Occupied:

       1A    -20.565389     2A     -1.367630     3A     -0.719414
       4A     -0.597439     5A     -0.513269

  @DF-RHF Final Energy:   -76.05953716018654

   => Energetics <=

    Nuclear Repulsion Energy =              9.3995906117885948
    One-Electron Energy =                -123.3919695946643031
    Two-Electron Energy =                  37.9328418226891699
    Total Energy =                        -76.0595371601865367
 Dipole X            :        -54.5149806           53.7714426           -0.7435380
 Dipole Y            :          9.3065211           -9.6056442           -0.2991231
 Dipole Z            :        -19.8406261           19.8317554           -0.0088707
 Magnitude           :                                                    0.8014999
  Basis Set: (AUG-CC-PVTZ AUX)
    Blend: AUG-CC-PVTZ-RI
	 Reference Energy          =     -76.0595371601865367 [Eh]
	 Singles Energy            =      -0.0000000000000000 [Eh]
	 Same-Spin Energy          =      -0.0681484995411662 [Eh]
	 Opposite-Spin Energy      =      -0.2151287620001404 [Eh]
	 Correlation Energy        =      -0.2832772615413065 [Eh]
	 Total Energy              =     -76.3428144217278373 [Eh]

	 ================> DF-SCS-MP2 Energies <==================
	-----------------------------------------------------------
	 SCS Same-Spin Scale       =       0.3333333333333333 [-]
	 SCS Opposite-Spin Scale   =       1.2000000000000000 [-]
	 SCS Same-Spin Energy      =      -0.0227161665137221 [Eh]
	 SCS Opposite-Spin Energy  =      -0.2581545144001684 [Eh]
	 SCS Correlation Energy    =      -0.2808706809138904 [Eh]
	 SCS Total Energy          =     -76.3404078411004292 [Eh]
	-----------------------------------------------------------

*** Psi4 exiting successfully. Buy a developer a beer!
