                               Psi4 1.8.2 release

  ==> Input File <==

--------------------------------------------------------------------------
MEMORY 60 GB

molecule dimer {
-1 1
Cl         0.000000     0.000000     0.000000
O          0.312084    -2.150104    -2.377592
H         -0.296467    -2.021026    -3.090852
H         -0.022577    -1.598504    -1.659883
O          1.889572     0.729427    -2.641984
H          2.634422     0.109919    -2.606851
H          1.389837     0.523187    -1.827466
O         -2.762003     1.925216     0.336061
H         -2.814583     2.737091    -0.091539
H         -1.965756     1.584775    -0.015239
O          0.811586     2.751185     1.027694
H          1.119303     3.426267     0.397995
H          0.691782     1.988673     0.474040
O          2.965938    -0.228637     0.943152
H          2.234889     0.224653     0.518219
H          2.499928    -0.824590     1.525148

units ang
no_reorient
no_com
symmetry c1
}

set {
basis        aug-cc-pVTZ
scf_type     df
}

energy("mp2")
--------------------------------------------------------------------------

    Molecular point group: c1

    Geometry (in Angstrom), charge = -1, multiplicity = 1:

       Center              X                  Y                   Z               Mass
    ------------   -----------------  -----------------  -----------------  -----------------
         CL           0.000000000000     0.000000000000     0.000000000000    34.968852682000
         O            0.312084000000    -2.150104000000    -2.377592000000    15.994914619570
         H           -0.296467000000    -2.021026000000    -3.090852000000     1.007825032230
         H           -0.022577000000    -1.598504000000    -1.659883000000     1.007825032230
         O            1.889572000000     0.729427000000    -2.641984000000    15.994914619570
         H            2.634422000000     0.109919000000    -2.606851000000     1.007825032230
         H            1.389837000000     0.523187000000    -1.827466000000     1.007825032230
         O           -2.762003000000     1.925216000000     0.336061000000    15.994914619570
         H           -2.814583000000     2.737091000000    -0.091539000000     1.007825032230
         H           -1.965756000000     1.584775000000    -0.015239000000     1.007825032230
         O            0.811586000000     2.751185000000     1.027694000000    15.994914619570
         H            1.119303000000     3.426267000000     0.397995000000     1.007825032230
         H            0.691782000000     1.988673000000     0.474040000000     1.007825032230
         O            2.965938000000    -0.228637000000     0.943152000000    15.994914619570
         H            2.234889000000     0.224653000000     0.518219000000     1.007825032230
         H            2.499928000000    -0.824590000000     1.525148000000     1.007825032230

  Charge       = -1
  Multiplicity = 1
  Basis Set: AUG-CC-PVTZ
    Blend: AUG-CC-PVTZ
  Basis Set: (AUG-CC-PVTZ AUX)
    Blend: AUG-CC-PVTZ-JKFIT

    Orbital Energies [Eh]
    ---------------------

    Doubly Occupied:

       1A   -104.592954     2A    -20.421503     3A    -20.417034
       4A    -20.416167     5A    -20.414486     6A    -20.408419
       7A    -10.318754     8A     -7.784870     9A     -7.784781
      10A     -7.784770    11A     -1.232624    12A     -1.207476
      13A     -1.203266    14A     -1.199920    15A     -1.196193
      16A     -0.841151    17A     -0.588419    18A     -0.574967
      19A     -0.565169    20A     -0.558917    21A     -0.555725
      22A     -0.460213    23A     -0.444103    24A     -0.441243
      25A     -0.440367    26A     -0.439663    27A     -0.375693
      28A     -0.372113    29A     -0.361826    30A     -0.355298
      31A     -0.352660    32A     -0.252052    33A     -0.248872
      34A     -0.247779

  @DF-RHF Final Energy:  -839.93066698990651

   => Energetics <=

    Nuclear Repulsion Energy =            310.3515781978657060
    One-Electron Energy =               -1790.8455894394178358
    Two-Electron Energy =                 640.5633442516455034
    Total Energy =                       -839.9306669899065128
 Dipole X            :        -60.0154648           58.9749395           -1.0405253
 Dipole Y            :        -57.6751354           57.3855797           -0.2895557
 Dipole Z            :         52.8315794          -53.0593144           -0.2277350
 Magnitude           :                                                    1.1038109
  Basis Set: (AUG-CC-PVTZ AUX)
    Blend: AUG-CC-PVTZ-RI
	 Reference Energy          =    -839.9306669899065128 [Eh]
	 Singles Energy            =      -0.0000000000000000 [Eh]
	 Same-Spin Energy          =      -0.4166263289637169 [Eh]
	 Opposite-Spin Energy      =      -1.2719163436846923 [Eh]
	 Correlation Energy        =      -1.6885426726484092 [Eh]
	 Total Energy              =    -841.6192096625549084 [Eh]

	 ================> DF-SCS-MP2 Energies <==================
	-----------------------------------------------------------
	 SCS Same-Spin Scale       =       0.3333333333333333 [-]
	 SCS Opposite-Spin Scale   =       1.2000000000000000 [-]
	 SCS Same-Spin Energy      =      -0.1388754429879056 [Eh]
	 SCS Opposite-Spin Energy  =      -1.5262996124216308 [Eh]
	 SCS Correlation Energy    =      -1.6651750554095364 [Eh]
	 SCS Total Energy          =    -841.5958420453160898 [Eh]
	-----------------------------------------------------------

*** Psi4 exiting successfully. Buy a developer a beer!
