                               Psi4 1.8.2 release

  ==> Input File <==

--------------------------------------------------------------------------
MEMORY 60 GB

molecule dimer {
0 1
Gh(Cl)     0.000000     0.000000     0.000000
O          1.771129     2.489187     0.169336
H          1.379107     1.608893     0.191284
H          1.074826     3.009005    -0.305359
Gh(O)     -0.595761    -2.485321     1.681379
Gh(H)     -0.839779    -2.280443     2.596276
Gh(H)     -0.383113    -1.560361     1.328127
Gh(O)     -3.305344     0.023545    -0.246950
Gh(H)     -3.552244    -0.023220    -1.134455
Gh(H)     -2.322919     0.116370    -0.213788

units ang
no_reorient
no_com
symmetry c1
}

set {
basis        aug-cc-pVTZ
scf_type     df
}

energy("mp2")
--------------------------------------------------------------------------

    Molecular point group: c1

    Geometry (in Angstrom), charge = 0, multiplicity = 1:

       Center              X                  Y                   Z               Mass
    ------------   -----------------  -----------------  -----------------  -----------------
      Gh(CL)          0.000000000000     0.000000000000     0.000000000000    34.968852682000
         O            1.771129000000     2.489187000000     0.169336000000    15.994914619570
         H            1.379107000000     1.608893000000     0.191284000000     1.007825032230
         H            1.074826000000     3.009005000000    -0.305359000000     1.007825032230
      Gh(O)          -0.595761000000    -2.485321000000     1.681379000000    15.994914619570
      Gh(H)          -0.839779000000    -2.280443000000     2.596276000000     1.007825032230
      Gh(H)          -0.383113000000    -1.560361000000     1.328127000000     1.007825032230
      Gh(O)          -3.305344000000     0.023545000000    -0.246950000000    15.994914619570
      Gh(H)          -3.552244000000    -0.023220000000    -1.134455000000     1.007825032230
      Gh(H)          -2.322919000000     0.116370000000    -0.213788000000     1.007825032230

  Charge       = 0
  Multiplicity = 1
  Basis Set: AUG-CC-PVTZ
    Blend: AUG-CC-PVTZ
  Basis Set: (AUG-CC-PVTZ AUX)
    Blend: AUG-CC-PVTZ-JKFIT

    Orbital Energies [Eh]
    ---------------------

    Doubly Occupied:

       1A    -20.571809     2A     -1.345647     3A     -0.701992
       4A     -0.586343     5A     -0.509581

  @DF-RHF Final Energy:   -76.05804617410408

   => Energetics <=

    Nuclear Repulsion Energy =              9.0165444629106197
    One-Electron Energy =                -122.7184351503319419
    Two-Electron Energy =                  37.6438445133172479
    Total Energy =                        -76.0580461741040779
 Dipole X            :        -32.1218437           31.4128512           -0.7089925
 Dipole Y            :        -46.5976253           46.3576161           -0.2400091
 Dipole Z            :         -2.6381103            2.3444188           -0.2936915
 Magnitude           :                                                    0.8040705
  Basis Set: (AUG-CC-PVTZ AUX)
    Blend: AUG-CC-PVTZ-RI
	 Reference Energy          =     -76.0580461741040779 [Eh]
	 Singles Energy            =      -0.0000000000000000 [Eh]
	 Same-Spin Energy          =      -0.0687813875487112 [Eh]
	 Opposite-Spin Energy      =      -0.2169764138035428 [Eh]
	 Correlation Energy        =      -0.2857578013522539 [Eh]
	 Total Energy              =     -76.3438039754563249 [Eh]

	 ================> DF-SCS-MP2 Energies <==================
	-----------------------------------------------------------
	 SCS Same-Spin Scale       =       0.3333333333333333 [-]
	 SCS Opposite-Spin Scale   =       1.2000000000000000 [-]
	 SCS Same-Spin Energy      =      -0.0229271291829037 [Eh]
	 SCS Opposite-Spin Energy  =      -0.2603716965642513 [Eh]
	 SCS Correlation Energy    =      -0.2832988257471550 [Eh]
	 SCS Total Energy          =     -76.3413449998512306 [Eh]
	-----------------------------------------------------------

*** Psi4 exiting successfully. Buy a developer a beer!
