                               Psi4 1.8.2 release

  ==> Input File <==

--------------------------------------------------------------------------
MEMORY 60 GB

molecule dimer {
-1 1
Cl         0.000000     0.000000     0.000000
O         -1.257237     2.633802     1.643676
H         -0.472322     3.199341     1.601593
H         -0.884215     1.758953     1.297836
O         -0.959567     0.169390    -3.287997
H         -0.989043     1.102120    -3.350897
H         -0.834577    -0.042888    -2.352496
O         -1.511354    -2.001931     2.031514
H         -1.523814    -2.958892     1.902628
H         -1.166046    -1.643150     1.181507
O          1.480813     2.833599    -1.290836
H          1.309795     1.891885    -1.090443
H          1.759092     2.761863    -2.211318
O         -3.275195    -0.122822    -0.472046
H         -2.339256    -0.062478    -0.530134
H         -3.682454     0.715169    -0.738294
O          1.065993    -3.039273    -1.176898
H          1.143900    -3.393441    -0.306845
H          0.193610    -2.655795    -1.030520

units ang
no_reorient
no_com
symmetry c1
}

set {
basis        aug-cc-pVTZ
scf_type     df
}

energy("mp2")
--------------------------------------------------------------------------

    Molecular point group: c1

    Geometry (in Angstrom), charge = -1, multiplicity = 1:

       Center              X                  Y                   Z               Mass
    ------------   -----------------  -----------------  -----------------  -----------------
         CL           0.000000000000     0.000000000000     0.000000000000    34.968852682000
         O           -1.257237000000     2.633802000000     1.643676000000    15.994914619570
         H           -0.472322000000     3.199341000000     1.601593000000     1.007825032230
         H           -0.884215000000     1.758953000000     1.297836000000     1.007825032230
         O           -0.959567000000     0.169390000000    -3.287997000000    15.994914619570
         H           -0.989043000000     1.102120000000    -3.350897000000     1.007825032230
         H           -0.834577000000    -0.042888000000    -2.352496000000     1.007825032230
         O           -1.511354000000    -2.001931000000     2.031514000000    15.994914619570
         H           -1.523814000000    -2.958892000000     1.902628000000     1.007825032230
         H           -1.166046000000    -1.643150000000     1.181507000000     1.007825032230
         O            1.480813000000     2.833599000000    -1.290836000000    15.994914619570
         H            1.309795000000     1.891885000000    -1.090443000000     1.007825032230
         H            1.759092000000     2.761863000000    -2.211318000000     1.007825032230
         O           -3.275195000000    -0.122822000000    -0.472046000000    15.994914619570
         H           -2.339256000000    -0.062478000000    -0.530134000000     1.007825032230
         H           -3.682454000000     0.715169000000    -0.738294000000     1.007825032230
         O            1.065993000000    -3.039273000000    -1.176898000000    15.994914619570
         H            1.143900000000    -3.393441000000    -0.306845000000     1.007825032230
         H            0.193610000000    -2.655795000000    -1.030520000000     1.007825032230

  Charge       = -1
  Multiplicity = 1
  Basis Set: AUG-CC-PVTZ
    Blend: AUG-CC-PVTZ
  Basis Set: (AUG-CC-PVTZ AUX)
    Blend: AUG-CC-PVTZ-JKFIT

    Orbital Energies [Eh]
    ---------------------

    Doubly Occupied:

       1A   -104.599209     2A    -20.445878     3A    -20.444005
       4A    -20.429653     5A    -20.426803     6A    -20.417576
       7A    -20.416918     8A    -10.324319     9A     -7.790451
      10A     -7.790387    11A     -7.790353    12A     -1.239821
      13A     -1.224366    14A     -1.222545    15A     -1.206792
      16A     -1.203778    17A     -1.187138    18A     -0.842547
      19A     -0.594523    20A     -0.586893    21A     -0.577159
      22A     -0.576268    23A     -0.567621    24A     -0.542237
      25A     -0.484043    26A     -0.468784    27A     -0.453023
      28A     -0.442989    29A     -0.437090    30A     -0.432880
      31A     -0.391227    32A     -0.386234    33A     -0.379176
      34A     -0.369099    35A     -0.362930    36A     -0.356632
      37A     -0.256999    38A     -0.253165    39A     -0.250802

  @DF-RHF Final Energy:  -915.98892194267205

   => Energetics <=

    Nuclear Repulsion Energy =            389.8456005564345332
    One-Electron Energy =               -2055.3244062900794233
    Two-Electron Energy =                 749.4898837909729536
    Total Energy =                       -915.9889219426720501
 Dipole X            :         82.9440145          -81.5184500            1.4255645
 Dipole Y            :         -8.6534351            8.4183652           -0.2350699
 Dipole Z            :         49.0915773          -49.2237354           -0.1321581
 Magnitude           :                                                    1.4508472
  Basis Set: (AUG-CC-PVTZ AUX)
    Blend: AUG-CC-PVTZ-RI
	 Reference Energy          =    -915.9889219426720501 [Eh]
	 Singles Energy            =      -0.0000000000000000 [Eh]
	 Same-Spin Energy          =      -0.4857411296419091 [Eh]
	 Opposite-Spin Energy      =      -1.4900742160439497 [Eh]
	 Correlation Energy        =      -1.9758153456858589 [Eh]
	 Total Energy              =    -917.9647372883579237 [Eh]

	 ================> DF-SCS-MP2 Energies <==================
	-----------------------------------------------------------
	 SCS Same-Spin Scale       =       0.3333333333333333 [-]
	 SCS Opposite-Spin Scale   =       1.2000000000000000 [-]
	 SCS Same-Spin Energy      =      -0.1619137098806364 [Eh]
	 SCS Opposite-Spin Energy  =      -1.7880890592527396 [Eh]
	 SCS Correlation Energy    =      -1.9500027691333761 [Eh]
	 SCS Total Energy          =    -917.9389247118053845 [Eh]
	-----------------------------------------------------------

*** Psi4 exiting successfully. Buy a developer a beer!
