                               Psi4 1.9 release

  ==> Input File <==

--------------------------------------------------------------------------
MEMORY 60 GB

molecule dimer {
-1 1
Cl     0.000000     0.000000     0.000000
--
0 1
O     -1.887462     1.759263    -1.908827
H     -1.684973     2.623036    -1.580712
H     -1.372629     1.128349    -1.354219
O      1.979243     1.684440    -2.294030
H      1.547830     1.066723    -1.667111
H      2.789329     1.271431    -2.500265
O     -1.641072    -1.911453    -2.234674
H     -1.064893    -1.354365    -2.735456
H     -1.296369    -1.998155    -1.293359
O      2.931788    -1.481190    -0.142517
H      2.057624    -1.036918    -0.175552
H      2.844147    -2.259211    -0.698520
O     -1.946670    -2.468133     1.004829
H     -2.564726    -2.415913     0.241229
H     -1.269559    -1.745242     0.820587

units ang
no_reorient
no_com
symmetry c1
}

set {
basis        aug-cc-pVTZ
scf_type     df
}

energy("mp2", bsse_type="cp")
--------------------------------------------------------------------------

                               Psi4 1.9 release
    Molecular point group: c1
  Charge       = 0
  Multiplicity = 1
  Basis Set: AUG-CC-PVTZ
    Blend: AUG-CC-PVTZ
  Basis Set: (AUG-CC-PVTZ AUX)
    Blend: AUG-CC-PVTZ-JKFIT
  @DF-RHF Final Energy:  -380.28026244390946
    Total Energy =                       -380.2802624439094643
 Dipole X            :          9.2804837           -8.5559297            0.7245540
 Dipole Y            :         45.5109941          -45.4608561            0.0501380
 Dipole Z            :        105.0559866         -104.9650833            0.0909033
 Magnitude           :                                                    0.7319534
  Basis Set: (AUG-CC-PVTZ AUX)
    Blend: AUG-CC-PVTZ-RI
	 Reference Energy          =    -380.2802624439094643 [Eh]
	 Singles Energy            =      -0.0000000000000000 [Eh]
	 Same-Spin Energy          =      -0.3451831145134341 [Eh]
	 Opposite-Spin Energy      =      -1.0853939420980876 [Eh]
	 Correlation Energy        =      -1.4305770566115217 [Eh]
	 Total Energy              =    -381.7108395005209900 [Eh]
	 SCS Total Energy          =    -381.6977962125982913 [Eh]
                               Psi4 1.9 release
    Molecular point group: c1
  Multiplicity = 1
  Basis Set: AUG-CC-PVTZ
    Blend: AUG-CC-PVTZ
  Basis Set: (AUG-CC-PVTZ AUX)
    Blend: AUG-CC-PVTZ-JKFIT
  @DF-RHF Final Energy:  -459.57357587950202
    Total Energy =                       -459.5735758795019592
  Basis Set: (AUG-CC-PVTZ AUX)
	 Singles Energy            =      -0.0000000000000000 [Eh]
	 Same-Spin Energy          =      -0.0634890377355131 [Eh]
	 Opposite-Spin Energy      =      -0.1836331721919187 [Eh]
	 Correlation Energy        =      -0.2471222099274317 [Eh]
	 Total Energy              =    -459.8206980894294702 [Eh]
	 SCS Total Energy          =    -459.8150986987108126 [Eh]
                               Psi4 1.9 release
    Molecular point group: c1

    Geometry (in Bohr), charge = -1, multiplicity = 1:

       Center              X                  Y                   Z               Mass
    ------------   -----------------  -----------------  -----------------  -----------------
         CL           0.000000000000     0.000000000000     0.000000000000    34.968852682000
         O           -3.566786252209     3.324525252651    -3.607160250879    15.994914619570
         H           -3.184137498791     4.956819657216    -2.987112763225     1.007825032230
         H           -2.593892881861     2.132270583934    -2.559103023891     1.007825032230
         O            3.740227205730     3.183130274766    -4.335088423584    15.994914619570
         H            2.924974788767     2.015814321727    -3.150383210738     1.007825032230
         H            5.271067883797     2.402656377417    -4.724816091068     1.007825032230
         O           -3.101176632157    -3.612122671685    -4.222921839681    15.994914619570
         H           -2.012356122917    -2.559378923906    -5.169262668240     1.007825032230
         H           -2.449782367534    -3.775965706214    -2.444094291896     1.007825032230
         O            5.540276377904    -2.799043439767    -0.269318098222    15.994914619570
         H            3.888345829169    -1.959491034557    -0.331745200776     1.007825032230
         H            5.374658890543    -4.269290049622    -1.320011493155     1.007825032230
         O           -3.678673156645    -4.664095411205     1.898851612918    15.994914619570
         H           -4.846629726841    -4.565413912933     0.455856743518     1.007825032230
         H           -2.399118810110    -3.298029402646     1.550684692111     1.007825032230

  Charge       = -1
  Multiplicity = 1
  Basis Set: AUG-CC-PVTZ
    Blend: AUG-CC-PVTZ
  Basis Set: (AUG-CC-PVTZ AUX)
    Blend: AUG-CC-PVTZ-JKFIT

    Orbital Energies [Eh]
    ---------------------

    Doubly Occupied:

       1A   -104.600282     2A    -20.431405     3A    -20.431266
       4A    -20.430692     5A    -20.429593     6A    -20.408993
       7A    -10.325521     8A     -7.791617     9A     -7.791613
      10A     -7.791549    11A     -1.219771    12A     -1.211334
      13A     -1.209033    14A     -1.197179    15A     -1.194145
      16A     -0.844342    17A     -0.587873    18A     -0.583177
      19A     -0.578378    20A     -0.563994    21A     -0.558824
      22A     -0.453993    23A     -0.449753    24A     -0.449487
      25A     -0.438053    26A     -0.431263    27A     -0.376249
      28A     -0.375078    29A     -0.374656    30A     -0.369631
      31A     -0.355359    32A     -0.256935    33A     -0.255306
      34A     -0.251454

  @DF-RHF Final Energy:  -839.93149658708705

   => Energetics <=

    Nuclear Repulsion Energy =            303.6774335802523979
    One-Electron Energy =               -1777.1822644926110115
    Two-Electron Energy =                 633.5733343252715031
    Total Energy =                       -839.9314965870870537
 Dipole X            :          9.3164940           -8.5559297            0.7605643
 Dipole Y            :         45.8258809          -45.4608561            0.3650249
 Dipole Z            :        105.6530618         -104.9650833            0.6879785
 Magnitude           :                                                    1.0885842
  Basis Set: (AUG-CC-PVTZ AUX)
    Blend: AUG-CC-PVTZ-RI
	 Reference Energy          =    -839.9314965870870537 [Eh]
	 Singles Energy            =      -0.0000000000000000 [Eh]
	 Same-Spin Energy          =      -0.4170072247762422 [Eh]
	 Opposite-Spin Energy      =      -1.2740272005958531 [Eh]
	 Correlation Energy        =      -1.6910344253720953 [Eh]
	 Total Energy              =    -841.6225310124591488 [Eh]

	 ================> DF-SCS-MP2 Energies <==================
	-----------------------------------------------------------
	 SCS Same-Spin Scale       =       0.3333333333333333 [-]
	 SCS Opposite-Spin Scale   =       1.2000000000000000 [-]
	 SCS Same-Spin Energy      =      -0.1390024082587474 [Eh]
	 SCS Opposite-Spin Energy  =      -1.5288326407150237 [Eh]
	 SCS Correlation Energy    =      -1.6678350489737710 [Eh]
	 SCS Total Energy          =    -841.5993316360608105 [Eh]
	-----------------------------------------------------------

*** Psi4 exiting successfully. Buy a developer a beer!
