                               Psi4 1.8.2 release

  ==> Input File <==

--------------------------------------------------------------------------
MEMORY 60 GB

molecule dimer {
-1 1
Cl         0.000000     0.000000     0.000000
O         -1.652811    -1.435957     2.395903
H         -1.528767    -2.339541     2.643559
H         -1.043488    -1.261638     1.661966
O          2.190527    -2.113525     1.676719
H          3.042459    -1.604979     1.864963
H          2.252391    -2.309383     0.719254
O         -1.852063     2.109778     1.864448
H         -1.394061     2.041390     2.691589
H         -1.471182     1.475343     1.236059
O         -2.723100     0.051082    -1.912710
H         -3.515131     0.614816    -1.963275
H         -2.101677     0.471886    -1.368991
O         -0.158646     3.092762    -0.275158
H         -0.735780     3.182659    -1.002850
H         -0.140681     2.112324    -0.117622

units ang
no_reorient
no_com
symmetry c1
}

set {
basis        aug-cc-pVTZ
scf_type     df
}

energy("mp2")
--------------------------------------------------------------------------

    Molecular point group: c1

    Geometry (in Angstrom), charge = -1, multiplicity = 1:

       Center              X                  Y                   Z               Mass
    ------------   -----------------  -----------------  -----------------  -----------------
         CL           0.000000000000     0.000000000000     0.000000000000    34.968852682000
         O           -1.652811000000    -1.435957000000     2.395903000000    15.994914619570
         H           -1.528767000000    -2.339541000000     2.643559000000     1.007825032230
         H           -1.043488000000    -1.261638000000     1.661966000000     1.007825032230
         O            2.190527000000    -2.113525000000     1.676719000000    15.994914619570
         H            3.042459000000    -1.604979000000     1.864963000000     1.007825032230
         H            2.252391000000    -2.309383000000     0.719254000000     1.007825032230
         O           -1.852063000000     2.109778000000     1.864448000000    15.994914619570
         H           -1.394061000000     2.041390000000     2.691589000000     1.007825032230
         H           -1.471182000000     1.475343000000     1.236059000000     1.007825032230
         O           -2.723100000000     0.051082000000    -1.912710000000    15.994914619570
         H           -3.515131000000     0.614816000000    -1.963275000000     1.007825032230
         H           -2.101677000000     0.471886000000    -1.368991000000     1.007825032230
         O           -0.158646000000     3.092762000000    -0.275158000000    15.994914619570
         H           -0.735780000000     3.182659000000    -1.002850000000     1.007825032230
         H           -0.140681000000     2.112324000000    -0.117622000000     1.007825032230

  Charge       = -1
  Multiplicity = 1
  Basis Set: AUG-CC-PVTZ
    Blend: AUG-CC-PVTZ
  Basis Set: (AUG-CC-PVTZ AUX)
    Blend: AUG-CC-PVTZ-JKFIT

    Orbital Energies [Eh]
    ---------------------

    Doubly Occupied:

       1A   -104.571317     2A    -20.454599     3A    -20.421767
       4A    -20.402745     5A    -20.392446     6A    -20.388688
       7A    -10.296492     8A     -7.762643     9A     -7.762544
      10A     -7.762494    11A     -1.216818    12A     -1.213250
      13A     -1.191669    14A     -1.184237    15A     -1.176822
      16A     -0.815277    17A     -0.587248    18A     -0.576834
      19A     -0.562696    20A     -0.562034    21A     -0.540246
      22A     -0.461678    23A     -0.439227    24A     -0.424292
      25A     -0.419857    26A     -0.410512    27A     -0.388823
      28A     -0.368976    29A     -0.354785    30A     -0.349815
      31A     -0.323042    32A     -0.228125    33A     -0.225481
      34A     -0.222963

  @DF-RHF Final Energy:  -839.90552628549096

   => Energetics <=

    Nuclear Repulsion Energy =            303.3827797778236004
    One-Electron Energy =               -1777.6557184719658835
    Two-Electron Energy =                 634.3674124086513757
    Total Energy =                       -839.9055262854909643
 Dipole X            :         77.6622426          -75.9757983            1.6864443
 Dipole Y            :        -31.3982303           30.2658480           -1.1323823
 Dipole Z            :        -69.6339079           68.7071689           -0.9267390
 Magnitude           :                                                    2.2327627
  Basis Set: (AUG-CC-PVTZ AUX)
    Blend: AUG-CC-PVTZ-RI
	 Reference Energy          =    -839.9055262854909643 [Eh]
	 Singles Energy            =      -0.0000000000000000 [Eh]
	 Same-Spin Energy          =      -0.4159256538200264 [Eh]
	 Opposite-Spin Energy      =      -1.2721210432074677 [Eh]
	 Correlation Energy        =      -1.6880466970274941 [Eh]
	 Total Energy              =    -841.5935729825184808 [Eh]

	 ================> DF-SCS-MP2 Energies <==================
	-----------------------------------------------------------
	 SCS Same-Spin Scale       =       0.3333333333333333 [-]
	 SCS Opposite-Spin Scale   =       1.2000000000000000 [-]
	 SCS Same-Spin Energy      =      -0.1386418846066755 [Eh]
	 SCS Opposite-Spin Energy  =      -1.5265452518489611 [Eh]
	 SCS Correlation Energy    =      -1.6651871364556365 [Eh]
	 SCS Total Energy          =    -841.5707134219466070 [Eh]
	-----------------------------------------------------------

*** Psi4 exiting successfully. Buy a developer a beer!
