                               Psi4 1.8.2 release

  ==> Input File <==

--------------------------------------------------------------------------
MEMORY 60 GB

molecule dimer {
0 1
Gh(Cl)     0.000000     0.000000     0.000000
Gh(O)      2.094734     2.420118    -0.988704
Gh(H)      2.288132     3.072303    -0.322075
Gh(H)      1.277471     1.962329    -0.721292
Gh(O)      1.301190    -0.283191    -2.893486
Gh(H)      0.711077     0.041554    -3.544511
Gh(H)      0.857715    -0.109161    -2.051104
O         -1.945290     2.393035     1.309219
H         -2.923087     2.279788     1.331312
H         -1.540510     1.545688     0.980189
Gh(O)      0.845936    -3.031399    -0.329358
Gh(H)      0.345432    -2.188035    -0.437677
Gh(H)      1.647577    -2.766488    -0.821843
Gh(O)      1.967141     1.310230     2.500265
Gh(H)      1.474350     0.935107     1.769862
Gh(H)      2.839433     0.878062     2.441727

units ang
no_reorient
no_com
symmetry c1
}

set {
basis        aug-cc-pVTZ
scf_type     df
}

energy("mp2")
--------------------------------------------------------------------------

    Molecular point group: c1

    Geometry (in Angstrom), charge = 0, multiplicity = 1:

       Center              X                  Y                   Z               Mass
    ------------   -----------------  -----------------  -----------------  -----------------
      Gh(CL)          0.000000000000     0.000000000000     0.000000000000    34.968852682000
      Gh(O)           2.094734000000     2.420118000000    -0.988704000000    15.994914619570
      Gh(H)           2.288132000000     3.072303000000    -0.322075000000     1.007825032230
      Gh(H)           1.277471000000     1.962329000000    -0.721292000000     1.007825032230
      Gh(O)           1.301190000000    -0.283191000000    -2.893486000000    15.994914619570
      Gh(H)           0.711077000000     0.041554000000    -3.544511000000     1.007825032230
      Gh(H)           0.857715000000    -0.109161000000    -2.051104000000     1.007825032230
         O           -1.945290000000     2.393035000000     1.309219000000    15.994914619570
         H           -2.923087000000     2.279788000000     1.331312000000     1.007825032230
         H           -1.540510000000     1.545688000000     0.980189000000     1.007825032230
      Gh(O)           0.845936000000    -3.031399000000    -0.329358000000    15.994914619570
      Gh(H)           0.345432000000    -2.188035000000    -0.437677000000     1.007825032230
      Gh(H)           1.647577000000    -2.766488000000    -0.821843000000     1.007825032230
      Gh(O)           1.967141000000     1.310230000000     2.500265000000    15.994914619570
      Gh(H)           1.474350000000     0.935107000000     1.769862000000     1.007825032230
      Gh(H)           2.839433000000     0.878062000000     2.441727000000     1.007825032230

  Charge       = 0
  Multiplicity = 1
  Basis Set: AUG-CC-PVTZ
    Blend: AUG-CC-PVTZ
  Basis Set: (AUG-CC-PVTZ AUX)
    Blend: AUG-CC-PVTZ-JKFIT

    Orbital Energies [Eh]
    ---------------------

    Doubly Occupied:

       1A    -20.571017     2A     -1.334926     3A     -0.706984
       4A     -0.571469     5A     -0.506584

  @DF-RHF Final Energy:   -76.05618845972796

   => Energetics <=

    Nuclear Repulsion Energy =              8.8840885043813334
    One-Electron Energy =                -122.4985895004948588
    Two-Electron Energy =                  37.5583125363855643
    Total Energy =                        -76.0561884597279629
 Dipole X            :         37.4641034          -37.8434985           -0.3793951
 Dipole Y            :        -44.0398296           43.4065480           -0.6332816
 Dipole Z            :        -24.3627635           24.1606266           -0.2021369
 Magnitude           :                                                    0.7654055
  Basis Set: (AUG-CC-PVTZ AUX)
    Blend: AUG-CC-PVTZ-RI
	 Reference Energy          =     -76.0561884597279629 [Eh]
	 Singles Energy            =      -0.0000000000000000 [Eh]
	 Same-Spin Energy          =      -0.0688868803259831 [Eh]
	 Opposite-Spin Energy      =      -0.2171880908232014 [Eh]
	 Correlation Energy        =      -0.2860749711491845 [Eh]
	 Total Energy              =     -76.3422634308771535 [Eh]

	 ================> DF-SCS-MP2 Energies <==================
	-----------------------------------------------------------
	 SCS Same-Spin Scale       =       0.3333333333333333 [-]
	 SCS Opposite-Spin Scale   =       1.2000000000000000 [-]
	 SCS Same-Spin Energy      =      -0.0229622934419944 [Eh]
	 SCS Opposite-Spin Energy  =      -0.2606257089878417 [Eh]
	 SCS Correlation Energy    =      -0.2835880024298360 [Eh]
	 SCS Total Energy          =     -76.3397764621578006 [Eh]
	-----------------------------------------------------------

*** Psi4 exiting successfully. Buy a developer a beer!
