                               Psi4 1.8.2 release

  ==> Input File <==

--------------------------------------------------------------------------
MEMORY 60 GB

molecule dimer {
-1 1
Cl         0.000000     0.000000     0.000000
O          0.523611    -3.326317    -0.270829
H          1.371760    -3.541864    -0.752050
H          0.520142    -2.413760    -0.485172
O         -0.566034    -1.015128    -2.856991
H         -1.423681    -1.463563    -2.743114
H         -0.308453    -0.737514    -1.960884
O          1.763372     1.458735    -2.322450
H          1.440294     0.911291    -1.581146
H          2.304948     0.879717    -2.772692
O         -2.397826    -1.807276     1.763323
H         -1.510550    -2.113811     1.658959
H         -2.434657    -1.289060     0.981632

units ang
no_reorient
no_com
symmetry c1
}

set {
basis        aug-cc-pVTZ
scf_type     df
}

energy("mp2")
--------------------------------------------------------------------------

    Molecular point group: c1

    Geometry (in Angstrom), charge = -1, multiplicity = 1:

       Center              X                  Y                   Z               Mass
    ------------   -----------------  -----------------  -----------------  -----------------
         CL           0.000000000000     0.000000000000     0.000000000000    34.968852682000
         O            0.523611000000    -3.326317000000    -0.270829000000    15.994914619570
         H            1.371760000000    -3.541864000000    -0.752050000000     1.007825032230
         H            0.520142000000    -2.413760000000    -0.485172000000     1.007825032230
         O           -0.566034000000    -1.015128000000    -2.856991000000    15.994914619570
         H           -1.423681000000    -1.463563000000    -2.743114000000     1.007825032230
         H           -0.308453000000    -0.737514000000    -1.960884000000     1.007825032230
         O            1.763372000000     1.458735000000    -2.322450000000    15.994914619570
         H            1.440294000000     0.911291000000    -1.581146000000     1.007825032230
         H            2.304948000000     0.879717000000    -2.772692000000     1.007825032230
         O           -2.397826000000    -1.807276000000     1.763323000000    15.994914619570
         H           -1.510550000000    -2.113811000000     1.658959000000     1.007825032230
         H           -2.434657000000    -1.289060000000     0.981632000000     1.007825032230

  Charge       = -1
  Multiplicity = 1
  Basis Set: AUG-CC-PVTZ
    Blend: AUG-CC-PVTZ
  Basis Set: (AUG-CC-PVTZ AUX)
    Blend: AUG-CC-PVTZ-JKFIT

    Orbital Energies [Eh]
    ---------------------

    Doubly Occupied:

       1A   -104.576853     2A    -20.435539     3A    -20.418786
       4A    -20.405806     5A    -20.404372     6A    -10.301903
       7A     -7.768021     8A     -7.767961     9A     -7.767904
      10A     -1.220582    11A     -1.219832    12A     -1.207285
      13A     -1.185470    14A     -0.819135    15A     -0.566177
      16A     -0.565299    17A     -0.561394    18A     -0.552119
      19A     -0.468531    20A     -0.460037    21A     -0.439155
      22A     -0.427955    23A     -0.378871    24A     -0.368613
      25A     -0.357330    26A     -0.348533    27A     -0.232359
      28A     -0.231168    29A     -0.227241

  @DF-RHF Final Energy:  -763.85813685523465

   => Energetics <=

    Nuclear Repulsion Energy =            223.0978609531335621
    One-Electron Energy =               -1510.5435317611550090
    Two-Electron Energy =                 523.5875339527868846
    Total Energy =                       -763.8581368552346476
 Dipole X            :         11.1042471          -10.3088585            0.7953885
 Dipole Y            :         89.5847650          -89.3622232            0.2225418
 Dipole Z            :         70.6190831          -70.2034068            0.4156763
 Magnitude           :                                                    0.9246376
  Basis Set: (AUG-CC-PVTZ AUX)
    Blend: AUG-CC-PVTZ-RI
	 Reference Energy          =    -763.8581368552346476 [Eh]
	 Singles Energy            =      -0.0000000000000000 [Eh]
	 Same-Spin Energy          =      -0.3451890548215192 [Eh]
	 Opposite-Spin Energy      =      -1.0526556886536969 [Eh]
	 Correlation Energy        =      -1.3978447434752161 [Eh]
	 Total Energy              =    -765.2559815987098091 [Eh]

	 ================> DF-SCS-MP2 Energies <==================
	-----------------------------------------------------------
	 SCS Same-Spin Scale       =       0.3333333333333333 [-]
	 SCS Opposite-Spin Scale   =       1.2000000000000000 [-]
	 SCS Same-Spin Energy      =      -0.1150630182738397 [Eh]
	 SCS Opposite-Spin Energy  =      -1.2631868263844361 [Eh]
	 SCS Correlation Energy    =      -1.3782498446582758 [Eh]
	 SCS Total Energy          =    -765.2363866998929325 [Eh]
	-----------------------------------------------------------

*** Psi4 exiting successfully. Buy a developer a beer!
