                               Psi4 1.8.2 release

  ==> Input File <==

--------------------------------------------------------------------------
MEMORY 60 GB

molecule dimer {
0 1
Gh(Cl)     0.000000     0.000000     0.000000
Gh(O)      1.572535     2.984313     0.080535
Gh(H)      2.483152     2.774963     0.044021
Gh(H)      1.091164     2.083829     0.086158
O         -2.519770     0.473353     1.764939
H         -1.730664     0.352182     1.242951
H         -2.351355     1.328225     2.177357
Gh(O)      1.097544    -1.383699     2.955254
Gh(H)      0.572761    -1.058492     3.732723
Gh(H)      0.582499    -1.021529     2.224847
Gh(O)     -2.152007     2.124199    -0.978722
Gh(H)     -1.802804     1.460648    -0.427201
Gh(H)     -1.664805     1.959459    -1.761428
Gh(O)      2.011060     0.105217    -2.783367
Gh(H)      1.274497     0.182662    -2.166724
Gh(H)      2.754003    -0.550445    -2.510663

units ang
no_reorient
no_com
symmetry c1
}

set {
basis        aug-cc-pVTZ
scf_type     df
}

energy("mp2")
--------------------------------------------------------------------------

    Molecular point group: c1

    Geometry (in Angstrom), charge = 0, multiplicity = 1:

       Center              X                  Y                   Z               Mass
    ------------   -----------------  -----------------  -----------------  -----------------
      Gh(CL)          0.000000000000     0.000000000000     0.000000000000    34.968852682000
      Gh(O)           1.572535000000     2.984313000000     0.080535000000    15.994914619570
      Gh(H)           2.483152000000     2.774963000000     0.044021000000     1.007825032230
      Gh(H)           1.091164000000     2.083829000000     0.086158000000     1.007825032230
         O           -2.519770000000     0.473353000000     1.764939000000    15.994914619570
         H           -1.730664000000     0.352182000000     1.242951000000     1.007825032230
         H           -2.351355000000     1.328225000000     2.177357000000     1.007825032230
      Gh(O)           1.097544000000    -1.383699000000     2.955254000000    15.994914619570
      Gh(H)           0.572761000000    -1.058492000000     3.732723000000     1.007825032230
      Gh(H)           0.582499000000    -1.021529000000     2.224847000000     1.007825032230
      Gh(O)          -2.152007000000     2.124199000000    -0.978722000000    15.994914619570
      Gh(H)          -1.802804000000     1.460648000000    -0.427201000000     1.007825032230
      Gh(H)          -1.664805000000     1.959459000000    -1.761428000000     1.007825032230
      Gh(O)           2.011060000000     0.105217000000    -2.783367000000    15.994914619570
      Gh(H)           1.274497000000     0.182662000000    -2.166724000000     1.007825032230
      Gh(H)           2.754003000000    -0.550445000000    -2.510663000000     1.007825032230

  Charge       = 0
  Multiplicity = 1
  Basis Set: AUG-CC-PVTZ
    Blend: AUG-CC-PVTZ
  Basis Set: (AUG-CC-PVTZ AUX)
    Blend: AUG-CC-PVTZ-JKFIT

    Orbital Energies [Eh]
    ---------------------

    Doubly Occupied:

       1A    -20.568605     2A     -1.354753     3A     -0.711226
       4A     -0.590133     5A     -0.511020

  @DF-RHF Final Energy:   -76.06014982111461

   => Energetics <=

    Nuclear Repulsion Energy =              9.1856935984577923
    One-Electron Energy =                -123.0202089048929395
    Two-Electron Energy =                  37.7743654853205442
    Total Energy =                        -76.0601498211146065
 Dipole X            :         46.4393840          -45.8072995            0.6320845
 Dipole Y            :         -9.8495952           10.3315693            0.4819740
 Dipole Z            :        -33.2190962           33.1454561           -0.0736401
 Magnitude           :                                                    0.7982810
  Basis Set: (AUG-CC-PVTZ AUX)
    Blend: AUG-CC-PVTZ-RI
	 Reference Energy          =     -76.0601498211146065 [Eh]
	 Singles Energy            =      -0.0000000000000000 [Eh]
	 Same-Spin Energy          =      -0.0685091108301268 [Eh]
	 Opposite-Spin Energy      =      -0.2164423321241203 [Eh]
	 Correlation Energy        =      -0.2849514429542471 [Eh]
	 Total Energy              =     -76.3451012640688589 [Eh]

	 ================> DF-SCS-MP2 Energies <==================
	-----------------------------------------------------------
	 SCS Same-Spin Scale       =       0.3333333333333333 [-]
	 SCS Opposite-Spin Scale   =       1.2000000000000000 [-]
	 SCS Same-Spin Energy      =      -0.0228363702767089 [Eh]
	 SCS Opposite-Spin Energy  =      -0.2597307985489444 [Eh]
	 SCS Correlation Energy    =      -0.2825671688256533 [Eh]
	 SCS Total Energy          =     -76.3427169899402571 [Eh]
	-----------------------------------------------------------

*** Psi4 exiting successfully. Buy a developer a beer!
