                               Psi4 1.8.2 release

  ==> Input File <==

--------------------------------------------------------------------------
MEMORY 60 GB

molecule dimer {
-1 1
Cl         0.000000     0.000000     0.000000
O         -3.370024     0.123556    -0.210045
H         -3.712136    -0.753568    -0.410247
H         -2.509058    -0.095905     0.154564
O          2.269159     0.583446     2.589957
H          2.144119     1.147020     3.342242
H          1.407737     0.721846     2.187714
O         -1.122723    -2.623202     2.011204
H         -0.197973    -2.402084     2.039071
H         -1.372546    -2.635123     1.061311
O          2.630297    -1.501053    -0.382371
H          1.890837    -0.976617    -0.284482
H          3.323921    -0.843864    -0.700421
O         -1.415811     1.063094    -2.492588
H         -1.911670     1.851984    -2.471353
H         -0.800053     1.148544    -1.739880
O          1.833537     2.448442    -1.561515
H          1.282768     2.936430    -2.175940
H          1.341122     1.773778    -0.981948

units ang
no_reorient
no_com
symmetry c1
}

set {
basis        aug-cc-pVTZ
scf_type     df
}

energy("mp2")
--------------------------------------------------------------------------

    Molecular point group: c1

    Geometry (in Angstrom), charge = -1, multiplicity = 1:

       Center              X                  Y                   Z               Mass
    ------------   -----------------  -----------------  -----------------  -----------------
         CL           0.000000000000     0.000000000000     0.000000000000    34.968852682000
         O           -3.370024000000     0.123556000000    -0.210045000000    15.994914619570
         H           -3.712136000000    -0.753568000000    -0.410247000000     1.007825032230
         H           -2.509058000000    -0.095905000000     0.154564000000     1.007825032230
         O            2.269159000000     0.583446000000     2.589957000000    15.994914619570
         H            2.144119000000     1.147020000000     3.342242000000     1.007825032230
         H            1.407737000000     0.721846000000     2.187714000000     1.007825032230
         O           -1.122723000000    -2.623202000000     2.011204000000    15.994914619570
         H           -0.197973000000    -2.402084000000     2.039071000000     1.007825032230
         H           -1.372546000000    -2.635123000000     1.061311000000     1.007825032230
         O            2.630297000000    -1.501053000000    -0.382371000000    15.994914619570
         H            1.890837000000    -0.976617000000    -0.284482000000     1.007825032230
         H            3.323921000000    -0.843864000000    -0.700421000000     1.007825032230
         O           -1.415811000000     1.063094000000    -2.492588000000    15.994914619570
         H           -1.911670000000     1.851984000000    -2.471353000000     1.007825032230
         H           -0.800053000000     1.148544000000    -1.739880000000     1.007825032230
         O            1.833537000000     2.448442000000    -1.561515000000    15.994914619570
         H            1.282768000000     2.936430000000    -2.175940000000     1.007825032230
         H            1.341122000000     1.773778000000    -0.981948000000     1.007825032230

  Charge       = -1
  Multiplicity = 1
  Basis Set: AUG-CC-PVTZ
    Blend: AUG-CC-PVTZ
  Basis Set: (AUG-CC-PVTZ AUX)
    Blend: AUG-CC-PVTZ-JKFIT

    Orbital Energies [Eh]
    ---------------------

    Doubly Occupied:

       1A   -104.591825     2A    -20.440056     3A    -20.437678
       4A    -20.428965     5A    -20.426210     6A    -20.408596
       7A    -20.402199     8A    -10.317481     9A     -7.783580
      10A     -7.783567    11A     -7.783487    12A     -1.231962
      13A     -1.218354    14A     -1.213356    15A     -1.202674
      16A     -1.197720    17A     -1.193883    18A     -0.838578
      19A     -0.587464    20A     -0.585659    21A     -0.576298
      22A     -0.569302    23A     -0.566616    24A     -0.554168
      25A     -0.472292    26A     -0.455127    27A     -0.453219
      28A     -0.438347    29A     -0.431085    30A     -0.426151
      31A     -0.384676    32A     -0.381714    33A     -0.378197
      34A     -0.370292    35A     -0.350371    36A     -0.349973
      37A     -0.250422    38A     -0.248330    39A     -0.245191

  @DF-RHF Final Energy:  -915.97707721331892

   => Energetics <=

    Nuclear Repulsion Energy =            391.1039158095928201
    One-Electron Energy =               -2058.2118590179902640
    Two-Electron Energy =                 751.1308659950785795
    Total Energy =                       -915.9770772133189212
 Dipole X            :        -14.8205063           14.1399664           -0.6805398
 Dipole Y            :         -4.0874757            4.9637531            0.8762774
 Dipole Z            :          0.8941166           -0.6467266            0.2473900
 Magnitude           :                                                    1.1367490
  Basis Set: (AUG-CC-PVTZ AUX)
    Blend: AUG-CC-PVTZ-RI
	 Reference Energy          =    -915.9770772133189212 [Eh]
	 Singles Energy            =      -0.0000000000000000 [Eh]
	 Same-Spin Energy          =      -0.4860806996654788 [Eh]
	 Opposite-Spin Energy      =      -1.4899255261891939 [Eh]
	 Correlation Energy        =      -1.9760062258546727 [Eh]
	 Total Energy              =    -917.9530834391736107 [Eh]

	 ================> DF-SCS-MP2 Energies <==================
	-----------------------------------------------------------
	 SCS Same-Spin Scale       =       0.3333333333333333 [-]
	 SCS Opposite-Spin Scale   =       1.2000000000000000 [-]
	 SCS Same-Spin Energy      =      -0.1620268998884929 [Eh]
	 SCS Opposite-Spin Energy  =      -1.7879106314270328 [Eh]
	 SCS Correlation Energy    =      -1.9499375313155256 [Eh]
	 SCS Total Energy          =    -917.9270147446344481 [Eh]
	-----------------------------------------------------------

*** Psi4 exiting successfully. Buy a developer a beer!
