                               Psi4 1.8.2 release

  ==> Input File <==

--------------------------------------------------------------------------
MEMORY 60 GB

molecule dimer {
-1 1
Cl         0.000000     0.000000     0.000000
O          1.176272    -2.652134     1.006030
H          1.873466    -2.542158     1.713725
H          0.639279    -1.844121     1.017799
O          3.155492     0.183050    -0.179212
H          2.426842    -0.396814    -0.177652
H          2.953359     0.962596     0.365673
O         -1.682274    -0.690400    -2.903171
H         -1.247480    -0.704847    -2.001267
H         -2.042989    -1.552534    -3.117626
O         -0.502562     2.885382     1.669906
H         -0.735193     3.424883     0.886029
H         -0.882051     2.032142     1.378365
O          1.380074     2.285806    -1.974688
H          0.729598     1.850939    -2.552618
H          2.093496     1.644184    -1.762183
O         -1.374052    -0.773625     2.691235
H         -1.053332    -0.518274     1.803823
H         -2.083565    -1.408779     2.593044

units ang
no_reorient
no_com
symmetry c1
}

set {
basis        aug-cc-pVTZ
scf_type     df
}

energy("mp2")
--------------------------------------------------------------------------

    Molecular point group: c1

    Geometry (in Angstrom), charge = -1, multiplicity = 1:

       Center              X                  Y                   Z               Mass
    ------------   -----------------  -----------------  -----------------  -----------------
         CL           0.000000000000     0.000000000000     0.000000000000    34.968852682000
         O            1.176272000000    -2.652134000000     1.006030000000    15.994914619570
         H            1.873466000000    -2.542158000000     1.713725000000     1.007825032230
         H            0.639279000000    -1.844121000000     1.017799000000     1.007825032230
         O            3.155492000000     0.183050000000    -0.179212000000    15.994914619570
         H            2.426842000000    -0.396814000000    -0.177652000000     1.007825032230
         H            2.953359000000     0.962596000000     0.365673000000     1.007825032230
         O           -1.682274000000    -0.690400000000    -2.903171000000    15.994914619570
         H           -1.247480000000    -0.704847000000    -2.001267000000     1.007825032230
         H           -2.042989000000    -1.552534000000    -3.117626000000     1.007825032230
         O           -0.502562000000     2.885382000000     1.669906000000    15.994914619570
         H           -0.735193000000     3.424883000000     0.886029000000     1.007825032230
         H           -0.882051000000     2.032142000000     1.378365000000     1.007825032230
         O            1.380074000000     2.285806000000    -1.974688000000    15.994914619570
         H            0.729598000000     1.850939000000    -2.552618000000     1.007825032230
         H            2.093496000000     1.644184000000    -1.762183000000     1.007825032230
         O           -1.374052000000    -0.773625000000     2.691235000000    15.994914619570
         H           -1.053332000000    -0.518274000000     1.803823000000     1.007825032230
         H           -2.083565000000    -1.408779000000     2.593044000000     1.007825032230

  Charge       = -1
  Multiplicity = 1
  Basis Set: AUG-CC-PVTZ
    Blend: AUG-CC-PVTZ
  Basis Set: (AUG-CC-PVTZ AUX)
    Blend: AUG-CC-PVTZ-JKFIT

    Orbital Energies [Eh]
    ---------------------

    Doubly Occupied:

       1A   -104.590106     2A    -20.435901     3A    -20.426323
       4A    -20.424397     5A    -20.423531     6A    -20.418301
       7A    -20.415545     8A    -10.315961     9A     -7.782046
      10A     -7.782012    11A     -7.781958    12A     -1.216238
      13A     -1.208884    14A     -1.201533    15A     -1.199606
      16A     -1.198022    17A     -1.190459    18A     -0.838633
      19A     -0.594151    20A     -0.587023    21A     -0.576852
      22A     -0.573330    23A     -0.560793    24A     -0.549780
      25A     -0.450662    26A     -0.445214    27A     -0.442213
      28A     -0.435454    29A     -0.433258    30A     -0.431104
      31A     -0.377659    32A     -0.376471    33A     -0.367795
      34A     -0.366068    35A     -0.363880    36A     -0.357510
      37A     -0.249176    38A     -0.246721    39A     -0.243374

  @DF-RHF Final Energy:  -915.98443674225268

   => Energetics <=

    Nuclear Repulsion Energy =            396.7551419172377791
    One-Electron Energy =               -2069.7232617899321667
    Two-Electron Energy =                 756.9836831304417046
    Total Energy =                       -915.9844367422526830
 Dipole X            :        -38.6085640           37.5961580           -1.0124060
 Dipole Y            :        -21.3306141           20.5070226           -0.8235915
 Dipole Z            :         -5.4389270            4.9660340           -0.4728931
 Magnitude           :                                                    1.3881271
  Basis Set: (AUG-CC-PVTZ AUX)
    Blend: AUG-CC-PVTZ-RI
	 Reference Energy          =    -915.9844367422526830 [Eh]
	 Singles Energy            =      -0.0000000000000000 [Eh]
	 Same-Spin Energy          =      -0.4879106590472100 [Eh]
	 Opposite-Spin Energy      =      -1.4930114816916176 [Eh]
	 Correlation Energy        =      -1.9809221407388276 [Eh]
	 Total Energy              =    -917.9653588829914952 [Eh]

	 ================> DF-SCS-MP2 Energies <==================
	-----------------------------------------------------------
	 SCS Same-Spin Scale       =       0.3333333333333333 [-]
	 SCS Opposite-Spin Scale   =       1.2000000000000000 [-]
	 SCS Same-Spin Energy      =      -0.1626368863490700 [Eh]
	 SCS Opposite-Spin Energy  =      -1.7916137780299410 [Eh]
	 SCS Correlation Energy    =      -1.9542506643790110 [Eh]
	 SCS Total Energy          =    -917.9386874066317432 [Eh]
	-----------------------------------------------------------

*** Psi4 exiting successfully. Buy a developer a beer!
