                               Psi4 1.8.2 release

  ==> Input File <==

--------------------------------------------------------------------------
MEMORY 60 GB

molecule dimer {
0 1
Gh(Cl)     0.000000     0.000000     0.000000
O          3.121084    -0.404087    -0.885356
H          3.116609    -0.372361    -1.845845
H          2.192719    -0.330448    -0.616616
Gh(O)     -2.819140     1.570254    -0.734010
Gh(H)     -2.611282     1.796412    -1.725910
Gh(H)     -2.014272     1.104724    -0.433930
Gh(O)      0.369494     3.158235     0.273032
Gh(H)      0.266849     2.267125    -0.149408
Gh(H)      0.062383     2.931659     1.171278
Gh(O)      1.432734     1.306996     2.864927
Gh(H)      1.572932     0.422647     3.152455
Gh(H)      1.365478     1.291318     1.910667
Gh(O)     -1.816873    -2.925684    -0.245655
Gh(H)     -1.793579    -2.165113     0.358356
Gh(H)     -2.001121    -3.664882     0.343775
Gh(O)      0.586581     0.286046    -3.368714
Gh(H)      0.417037     1.203796    -3.600248
Gh(H)      0.414413     0.201701    -2.417327

units ang
no_reorient
no_com
symmetry c1
}

set {
basis        aug-cc-pVTZ
scf_type     df
}

energy("mp2")
--------------------------------------------------------------------------

    Molecular point group: c1

    Geometry (in Angstrom), charge = 0, multiplicity = 1:

       Center              X                  Y                   Z               Mass
    ------------   -----------------  -----------------  -----------------  -----------------
      Gh(CL)          0.000000000000     0.000000000000     0.000000000000    34.968852682000
         O            3.121084000000    -0.404087000000    -0.885356000000    15.994914619570
         H            3.116609000000    -0.372361000000    -1.845845000000     1.007825032230
         H            2.192719000000    -0.330448000000    -0.616616000000     1.007825032230
      Gh(O)          -2.819140000000     1.570254000000    -0.734010000000    15.994914619570
      Gh(H)          -2.611282000000     1.796412000000    -1.725910000000     1.007825032230
      Gh(H)          -2.014272000000     1.104724000000    -0.433930000000     1.007825032230
      Gh(O)           0.369494000000     3.158235000000     0.273032000000    15.994914619570
      Gh(H)           0.266849000000     2.267125000000    -0.149408000000     1.007825032230
      Gh(H)           0.062383000000     2.931659000000     1.171278000000     1.007825032230
      Gh(O)           1.432734000000     1.306996000000     2.864927000000    15.994914619570
      Gh(H)           1.572932000000     0.422647000000     3.152455000000     1.007825032230
      Gh(H)           1.365478000000     1.291318000000     1.910667000000     1.007825032230
      Gh(O)          -1.816873000000    -2.925684000000    -0.245655000000    15.994914619570
      Gh(H)          -1.793579000000    -2.165113000000     0.358356000000     1.007825032230
      Gh(H)          -2.001121000000    -3.664882000000     0.343775000000     1.007825032230
      Gh(O)           0.586581000000     0.286046000000    -3.368714000000    15.994914619570
      Gh(H)           0.417037000000     1.203796000000    -3.600248000000     1.007825032230
      Gh(H)           0.414413000000     0.201701000000    -2.417327000000     1.007825032230

  Charge       = 0
  Multiplicity = 1
  Basis Set: AUG-CC-PVTZ
    Blend: AUG-CC-PVTZ
  Basis Set: (AUG-CC-PVTZ AUX)
    Blend: AUG-CC-PVTZ-JKFIT

    Orbital Energies [Eh]
    ---------------------

    Doubly Occupied:

       1A    -20.568016     2A     -1.348685     3A     -0.715667
       4A     -0.581109     5A     -0.509343

  @DF-RHF Final Energy:   -76.06003037732481

   => Energetics <=

    Nuclear Repulsion Energy =              9.1167044890759605
    One-Electron Energy =                -122.9078277588113224
    Two-Electron Energy =                  37.7310928924105582
    Total Energy =                        -76.0600303773248072
 Dipole X            :        -57.8363831           57.2171276           -0.6192555
 Dipole Y            :          7.5068807           -7.4370266            0.0698541
 Dipole Z            :         17.5773973          -18.0380198           -0.4606225
 Magnitude           :                                                    0.7749387
  Basis Set: (AUG-CC-PVTZ AUX)
    Blend: AUG-CC-PVTZ-RI
	 Reference Energy          =     -76.0600303773248072 [Eh]
	 Singles Energy            =      -0.0000000000000000 [Eh]
	 Same-Spin Energy          =      -0.0685100707165375 [Eh]
	 Opposite-Spin Energy      =      -0.2162739742445808 [Eh]
	 Correlation Energy        =      -0.2847840449611183 [Eh]
	 Total Energy              =     -76.3448144222859213 [Eh]

	 ================> DF-SCS-MP2 Energies <==================
	-----------------------------------------------------------
	 SCS Same-Spin Scale       =       0.3333333333333333 [-]
	 SCS Opposite-Spin Scale   =       1.2000000000000000 [-]
	 SCS Same-Spin Energy      =      -0.0228366902388458 [Eh]
	 SCS Opposite-Spin Energy  =      -0.2595287690934969 [Eh]
	 SCS Correlation Energy    =      -0.2823654593323427 [Eh]
	 SCS Total Energy          =     -76.3423958366571469 [Eh]
	-----------------------------------------------------------

*** Psi4 exiting successfully. Buy a developer a beer!
