                               Psi4 1.8.2 release

  ==> Input File <==

--------------------------------------------------------------------------
MEMORY 60 GB

molecule dimer {
0 1
Gh(Cl)     0.000000     0.000000     0.000000
Gh(O)      1.179099    -2.702793    -1.094667
Gh(H)      0.929403    -2.029129    -0.462359
Gh(H)      1.092980    -3.573515    -0.633220
Gh(O)      0.081134    -0.715370     3.048829
Gh(H)      0.119206    -0.799922     2.117339
Gh(H)      0.247800     0.236344     3.210993
O          3.112573     0.441417     0.245605
H          3.060093     0.433467     1.176247
H          2.153407     0.499648    -0.068952
Gh(O)      1.136783     3.068748     0.881171
Gh(H)      0.679395     2.461157     0.268662
Gh(H)      1.062669     3.915090     0.427493

units ang
no_reorient
no_com
symmetry c1
}

set {
basis        aug-cc-pVTZ
scf_type     df
}

energy("mp2")
--------------------------------------------------------------------------

    Molecular point group: c1

    Geometry (in Angstrom), charge = 0, multiplicity = 1:

       Center              X                  Y                   Z               Mass
    ------------   -----------------  -----------------  -----------------  -----------------
      Gh(CL)          0.000000000000     0.000000000000     0.000000000000    34.968852682000
      Gh(O)           1.179099000000    -2.702793000000    -1.094667000000    15.994914619570
      Gh(H)           0.929403000000    -2.029129000000    -0.462359000000     1.007825032230
      Gh(H)           1.092980000000    -3.573515000000    -0.633220000000     1.007825032230
      Gh(O)           0.081134000000    -0.715370000000     3.048829000000    15.994914619570
      Gh(H)           0.119206000000    -0.799922000000     2.117339000000     1.007825032230
      Gh(H)           0.247800000000     0.236344000000     3.210993000000     1.007825032230
         O            3.112573000000     0.441417000000     0.245605000000    15.994914619570
         H            3.060093000000     0.433467000000     1.176247000000     1.007825032230
         H            2.153407000000     0.499648000000    -0.068952000000     1.007825032230
      Gh(O)           1.136783000000     3.068748000000     0.881171000000    15.994914619570
      Gh(H)           0.679395000000     2.461157000000     0.268662000000     1.007825032230
      Gh(H)           1.062669000000     3.915090000000     0.427493000000     1.007825032230

  Charge       = 0
  Multiplicity = 1
  Basis Set: AUG-CC-PVTZ
    Blend: AUG-CC-PVTZ
  Basis Set: (AUG-CC-PVTZ AUX)
    Blend: AUG-CC-PVTZ-JKFIT

    Orbital Energies [Eh]
    ---------------------

    Doubly Occupied:

       1A    -20.569110     2A     -1.347389     3A     -0.711290
       4A     -0.580762     5A     -0.509164

  @DF-RHF Final Energy:   -76.05650548477514

   => Energetics <=

    Nuclear Repulsion Energy =              9.0716892684158896
    One-Electron Energy =                -122.8209553280896245
    Two-Electron Energy =                  37.6927605748985783
    Total Energy =                        -76.0565054847751583
 Dipole X            :        -57.5679602           56.9073713           -0.6605889
 Dipole Y            :         -8.4038423            8.4365897            0.0327474
 Dipole Z            :         -5.3879139            5.8054938            0.4175798
 Magnitude           :                                                    0.7821912
  Basis Set: (AUG-CC-PVTZ AUX)
    Blend: AUG-CC-PVTZ-RI
	 Reference Energy          =     -76.0565054847751441 [Eh]
	 Singles Energy            =      -0.0000000000000000 [Eh]
	 Same-Spin Energy          =      -0.0686081869006478 [Eh]
	 Opposite-Spin Energy      =      -0.2165812934847019 [Eh]
	 Correlation Energy        =      -0.2851894803853497 [Eh]
	 Total Energy              =     -76.3416949651604995 [Eh]

	 ================> DF-SCS-MP2 Energies <==================
	-----------------------------------------------------------
	 SCS Same-Spin Scale       =       0.3333333333333333 [-]
	 SCS Opposite-Spin Scale   =       1.2000000000000000 [-]
	 SCS Same-Spin Energy      =      -0.0228693956335493 [Eh]
	 SCS Opposite-Spin Energy  =      -0.2598975521816423 [Eh]
	 SCS Correlation Energy    =      -0.2827669478151916 [Eh]
	 SCS Total Energy          =     -76.3392724325903345 [Eh]
	-----------------------------------------------------------

*** Psi4 exiting successfully. Buy a developer a beer!
