                               Psi4 1.8.2 release

  ==> Input File <==

--------------------------------------------------------------------------
MEMORY 60 GB

molecule dimer {
-1 1
Cl         0.000000     0.000000     0.000000
O         -1.887462     1.759263    -1.908827
H         -1.684973     2.623036    -1.580712
H         -1.372629     1.128349    -1.354219
O          1.979243     1.684440    -2.294030
H          1.547830     1.066723    -1.667111
H          2.789329     1.271431    -2.500265
O         -1.641072    -1.911453    -2.234674
H         -1.064893    -1.354365    -2.735456
H         -1.296369    -1.998155    -1.293359
O          2.931788    -1.481190    -0.142517
H          2.057624    -1.036918    -0.175552
H          2.844147    -2.259211    -0.698520
O         -1.946670    -2.468133     1.004829
H         -2.564726    -2.415913     0.241229
H         -1.269559    -1.745242     0.820587

units ang
no_reorient
no_com
symmetry c1
}

set {
basis        aug-cc-pVTZ
scf_type     df
}

energy("mp2")
--------------------------------------------------------------------------

    Molecular point group: c1

    Geometry (in Angstrom), charge = -1, multiplicity = 1:

       Center              X                  Y                   Z               Mass
    ------------   -----------------  -----------------  -----------------  -----------------
         CL           0.000000000000     0.000000000000     0.000000000000    34.968852682000
         O           -1.887462000000     1.759263000000    -1.908827000000    15.994914619570
         H           -1.684973000000     2.623036000000    -1.580712000000     1.007825032230
         H           -1.372629000000     1.128349000000    -1.354219000000     1.007825032230
         O            1.979243000000     1.684440000000    -2.294030000000    15.994914619570
         H            1.547830000000     1.066723000000    -1.667111000000     1.007825032230
         H            2.789329000000     1.271431000000    -2.500265000000     1.007825032230
         O           -1.641072000000    -1.911453000000    -2.234674000000    15.994914619570
         H           -1.064893000000    -1.354365000000    -2.735456000000     1.007825032230
         H           -1.296369000000    -1.998155000000    -1.293359000000     1.007825032230
         O            2.931788000000    -1.481190000000    -0.142517000000    15.994914619570
         H            2.057624000000    -1.036918000000    -0.175552000000     1.007825032230
         H            2.844147000000    -2.259211000000    -0.698520000000     1.007825032230
         O           -1.946670000000    -2.468133000000     1.004829000000    15.994914619570
         H           -2.564726000000    -2.415913000000     0.241229000000     1.007825032230
         H           -1.269559000000    -1.745242000000     0.820587000000     1.007825032230

  Charge       = -1
  Multiplicity = 1
  Basis Set: AUG-CC-PVTZ
    Blend: AUG-CC-PVTZ
  Basis Set: (AUG-CC-PVTZ AUX)
    Blend: AUG-CC-PVTZ-JKFIT

    Orbital Energies [Eh]
    ---------------------

    Doubly Occupied:

       1A   -104.600282     2A    -20.431405     3A    -20.431266
       4A    -20.430692     5A    -20.429593     6A    -20.408993
       7A    -10.325521     8A     -7.791617     9A     -7.791613
      10A     -7.791549    11A     -1.219771    12A     -1.211334
      13A     -1.209033    14A     -1.197179    15A     -1.194145
      16A     -0.844342    17A     -0.587873    18A     -0.583177
      19A     -0.578378    20A     -0.563994    21A     -0.558824
      22A     -0.453993    23A     -0.449753    24A     -0.449487
      25A     -0.438053    26A     -0.431263    27A     -0.376249
      28A     -0.375078    29A     -0.374656    30A     -0.369631
      31A     -0.355359    32A     -0.256935    33A     -0.255306
      34A     -0.251454

  @DF-RHF Final Energy:  -839.93149658725065

   => Energetics <=

    Nuclear Repulsion Energy =            303.6774335802523979
    One-Electron Energy =               -1777.1822644926962766
    Two-Electron Energy =                 633.5733343251931728
    Total Energy =                       -839.9314965872506491
 Dipole X            :          9.3164940           -8.5559297            0.7605643
 Dipole Y            :         45.8258809          -45.4608561            0.3650249
 Dipole Z            :        105.6530618         -104.9650833            0.6879785
 Magnitude           :                                                    1.0885842
  Basis Set: (AUG-CC-PVTZ AUX)
    Blend: AUG-CC-PVTZ-RI
	 Reference Energy          =    -839.9314965872506491 [Eh]
	 Singles Energy            =      -0.0000000000000000 [Eh]
	 Same-Spin Energy          =      -0.4170072247765156 [Eh]
	 Opposite-Spin Energy      =      -1.2740272005971531 [Eh]
	 Correlation Energy        =      -1.6910344253736689 [Eh]
	 Total Energy              =    -841.6225310126243357 [Eh]

	 ================> DF-SCS-MP2 Energies <==================
	-----------------------------------------------------------
	 SCS Same-Spin Scale       =       0.3333333333333333 [-]
	 SCS Opposite-Spin Scale   =       1.2000000000000000 [-]
	 SCS Same-Spin Energy      =      -0.1390024082588385 [Eh]
	 SCS Opposite-Spin Energy  =      -1.5288326407165838 [Eh]
	 SCS Correlation Energy    =      -1.6678350489754223 [Eh]
	 SCS Total Energy          =    -841.5993316362261112 [Eh]
	-----------------------------------------------------------

*** Psi4 exiting successfully. Buy a developer a beer!
