                               Psi4 1.8.2 release

  ==> Input File <==

--------------------------------------------------------------------------
MEMORY 60 GB

molecule dimer {
-1 1
Cl         0.000000     0.000000     0.000000
O          0.601726    -2.589847     1.985255
H          0.625102    -1.734398     1.410853
H          0.202443    -2.311978     2.805266
O          1.654373     2.108704     2.134861
H          1.639621     3.020507     1.745273
H          1.118820     1.502198     1.596433
O         -1.660561     0.569143     2.400854
H         -1.309075     0.235507     1.599810
H         -1.163770     0.257029     3.177412
O         -1.490632    -2.685195    -0.853034
H         -1.987793    -3.157702    -0.165193
H         -0.816107    -2.123214    -0.480627
O          3.208264     0.379661    -0.437533
H          3.780426     0.542681     0.324217
H          2.259776     0.321939    -0.255342

units ang
no_reorient
no_com
symmetry c1
}

set {
basis        aug-cc-pVTZ
scf_type     df
}

energy("mp2")
--------------------------------------------------------------------------

    Molecular point group: c1

    Geometry (in Angstrom), charge = -1, multiplicity = 1:

       Center              X                  Y                   Z               Mass
    ------------   -----------------  -----------------  -----------------  -----------------
         CL           0.000000000000     0.000000000000     0.000000000000    34.968852682000
         O            0.601726000000    -2.589847000000     1.985255000000    15.994914619570
         H            0.625102000000    -1.734398000000     1.410853000000     1.007825032230
         H            0.202443000000    -2.311978000000     2.805266000000     1.007825032230
         O            1.654373000000     2.108704000000     2.134861000000    15.994914619570
         H            1.639621000000     3.020507000000     1.745273000000     1.007825032230
         H            1.118820000000     1.502198000000     1.596433000000     1.007825032230
         O           -1.660561000000     0.569143000000     2.400854000000    15.994914619570
         H           -1.309075000000     0.235507000000     1.599810000000     1.007825032230
         H           -1.163770000000     0.257029000000     3.177412000000     1.007825032230
         O           -1.490632000000    -2.685195000000    -0.853034000000    15.994914619570
         H           -1.987793000000    -3.157702000000    -0.165193000000     1.007825032230
         H           -0.816107000000    -2.123214000000    -0.480627000000     1.007825032230
         O            3.208264000000     0.379661000000    -0.437533000000    15.994914619570
         H            3.780426000000     0.542681000000     0.324217000000     1.007825032230
         H            2.259776000000     0.321939000000    -0.255342000000     1.007825032230

  Charge       = -1
  Multiplicity = 1
  Basis Set: AUG-CC-PVTZ
    Blend: AUG-CC-PVTZ
  Basis Set: (AUG-CC-PVTZ AUX)
    Blend: AUG-CC-PVTZ-JKFIT

    Orbital Energies [Eh]
    ---------------------

    Doubly Occupied:

       1A   -104.597592     2A    -20.432571     3A    -20.431135
       4A    -20.410380     5A    -20.409142     6A    -20.408718
       7A    -10.323451     8A     -7.789520     9A     -7.789479
      10A     -7.789476    11A     -1.204305    12A     -1.201570
      13A     -1.200260    14A     -1.192855    15A     -1.190915
      16A     -0.846731    17A     -0.588148    18A     -0.584403
      19A     -0.581479    20A     -0.576779    21A     -0.563176
      22A     -0.446951    23A     -0.439892    24A     -0.426559
      25A     -0.421638    26A     -0.416184    27A     -0.375316
      28A     -0.370761    29A     -0.359607    30A     -0.356105
      31A     -0.355289    32A     -0.255648    33A     -0.253738
      34A     -0.252405

  @DF-RHF Final Energy:  -839.92023148675946

   => Energetics <=

    Nuclear Repulsion Energy =            310.8672629058829102
    One-Electron Energy =               -1791.8906297570886181
    Two-Electron Energy =                 641.1031353644463024
    Total Energy =                       -839.9202314867594623
 Dipole X            :        -43.6165180           43.1893183           -0.4271997
 Dipole Y            :         40.9608532          -40.0389559            0.9218973
 Dipole Z            :       -101.1180728          101.2918261            0.1737533
 Magnitude           :                                                    1.0308173
  Basis Set: (AUG-CC-PVTZ AUX)
    Blend: AUG-CC-PVTZ-RI
	 Reference Energy          =    -839.9202314867594623 [Eh]
	 Singles Energy            =      -0.0000000000000000 [Eh]
	 Same-Spin Energy          =      -0.4181629029897871 [Eh]
	 Opposite-Spin Energy      =      -1.2753949549333843 [Eh]
	 Correlation Energy        =      -1.6935578579231714 [Eh]
	 Total Energy              =    -841.6137893446826865 [Eh]

	 ================> DF-SCS-MP2 Energies <==================
	-----------------------------------------------------------
	 SCS Same-Spin Scale       =       0.3333333333333333 [-]
	 SCS Opposite-Spin Scale   =       1.2000000000000000 [-]
	 SCS Same-Spin Energy      =      -0.1393876343299290 [Eh]
	 SCS Opposite-Spin Energy  =      -1.5304739459200611 [Eh]
	 SCS Correlation Energy    =      -1.6698615802499901 [Eh]
	 SCS Total Energy          =    -841.5900930670094340 [Eh]
	-----------------------------------------------------------

*** Psi4 exiting successfully. Buy a developer a beer!
