                               Psi4 1.8.2 release

  ==> Input File <==

--------------------------------------------------------------------------
MEMORY 60 GB

molecule dimer {
-1 1
Cl         0.000000     0.000000     0.000000
Gh(O)     -2.814531    -1.586422    -0.841082
Gh(H)     -2.108229    -0.943243    -0.828051
Gh(H)     -3.303767    -1.610933     0.003772
Gh(O)      2.643403    -0.729932     2.153137
Gh(H)      2.361492     0.103266     2.473781
Gh(H)      3.569043    -0.852540     2.415988
Gh(O)      0.360111    -1.589716    -3.056327
Gh(H)      0.594650    -0.827780    -3.630698
Gh(H)      0.428642    -1.160485    -2.205151
Gh(O)     -1.121098     1.837686    -2.537137
Gh(H)     -0.260127     2.147674    -2.890256
Gh(H)     -0.883283     1.263543    -1.784354
Gh(O)      2.631503     1.421712    -1.348374
Gh(H)      1.781393     1.299793    -0.855764
Gh(H)      3.087746     0.624659    -1.064809
Gh(O)     -0.810626     0.796305     2.988929
Gh(H)     -1.124595     0.478072     2.104225
Gh(H)     -1.310898     0.268521     3.682673

units ang
no_reorient
no_com
symmetry c1
}

set {
basis        aug-cc-pVTZ
scf_type     df
}

energy("mp2")
--------------------------------------------------------------------------

    Molecular point group: c1

    Geometry (in Angstrom), charge = -1, multiplicity = 1:

       Center              X                  Y                   Z               Mass
    ------------   -----------------  -----------------  -----------------  -----------------
         CL           0.000000000000     0.000000000000     0.000000000000    34.968852682000
      Gh(O)          -2.814531000000    -1.586422000000    -0.841082000000    15.994914619570
      Gh(H)          -2.108229000000    -0.943243000000    -0.828051000000     1.007825032230
      Gh(H)          -3.303767000000    -1.610933000000     0.003772000000     1.007825032230
      Gh(O)           2.643403000000    -0.729932000000     2.153137000000    15.994914619570
      Gh(H)           2.361492000000     0.103266000000     2.473781000000     1.007825032230
      Gh(H)           3.569043000000    -0.852540000000     2.415988000000     1.007825032230
      Gh(O)           0.360111000000    -1.589716000000    -3.056327000000    15.994914619570
      Gh(H)           0.594650000000    -0.827780000000    -3.630698000000     1.007825032230
      Gh(H)           0.428642000000    -1.160485000000    -2.205151000000     1.007825032230
      Gh(O)          -1.121098000000     1.837686000000    -2.537137000000    15.994914619570
      Gh(H)          -0.260127000000     2.147674000000    -2.890256000000     1.007825032230
      Gh(H)          -0.883283000000     1.263543000000    -1.784354000000     1.007825032230
      Gh(O)           2.631503000000     1.421712000000    -1.348374000000    15.994914619570
      Gh(H)           1.781393000000     1.299793000000    -0.855764000000     1.007825032230
      Gh(H)           3.087746000000     0.624659000000    -1.064809000000     1.007825032230
      Gh(O)          -0.810626000000     0.796305000000     2.988929000000    15.994914619570
      Gh(H)          -1.124595000000     0.478072000000     2.104225000000     1.007825032230
      Gh(H)          -1.310898000000     0.268521000000     3.682673000000     1.007825032230

  Charge       = -1
  Multiplicity = 1
  Basis Set: AUG-CC-PVTZ
    Blend: AUG-CC-PVTZ
  Basis Set: (AUG-CC-PVTZ AUX)
    Blend: AUG-CC-PVTZ-JKFIT

    Orbital Energies [Eh]
    ---------------------

    Doubly Occupied:

       1A   -104.507159     2A    -10.230028     3A     -7.696104
       4A     -7.696080     5A     -7.696071     6A     -0.733461
       7A     -0.150306     8A     -0.150305     9A     -0.150295

  @DF-RHF Final Energy:  -459.57357834867628

   => Energetics <=

    Nuclear Repulsion Energy =              0.0000000000000000
    One-Electron Energy =                -641.1275529427753099
    Two-Electron Energy =                 181.5539745940990315
    Total Energy =                       -459.5735783486762784
 Dipole X            :         -0.0000708            0.0000000           -0.0000708
 Dipole Y            :          0.0000965            0.0000000            0.0000965
 Dipole Z            :         -0.0001179            0.0000000           -0.0001179
 Magnitude           :                                                    0.0001680
  Basis Set: (AUG-CC-PVTZ AUX)
    Blend: AUG-CC-PVTZ-RI
	 Reference Energy          =    -459.5735783486762784 [Eh]
	 Singles Energy            =      -0.0000000000000000 [Eh]
	 Same-Spin Energy          =      -0.0634595631527613 [Eh]
	 Opposite-Spin Energy      =      -0.1834546821473572 [Eh]
	 Correlation Energy        =      -0.2469142453001186 [Eh]
	 Total Energy              =    -459.8204925939763825 [Eh]

	 ================> DF-SCS-MP2 Energies <==================
	-----------------------------------------------------------
	 SCS Same-Spin Scale       =       0.3333333333333333 [-]
	 SCS Opposite-Spin Scale   =       1.2000000000000000 [-]
	 SCS Same-Spin Energy      =      -0.0211531877175871 [Eh]
	 SCS Opposite-Spin Energy  =      -0.2201456185768287 [Eh]
	 SCS Correlation Energy    =      -0.2412988062944158 [Eh]
	 SCS Total Energy          =    -459.8148771549707021 [Eh]
	-----------------------------------------------------------

*** Psi4 exiting successfully. Buy a developer a beer!
