                               Psi4 1.8.2 release

  ==> Input File <==

--------------------------------------------------------------------------
MEMORY 60 GB

molecule dimer {
0 1
Gh(Cl)     0.000000     0.000000     0.000000
O         -1.550121    -2.503736     1.521143
H         -1.089309    -1.869996     0.932707
H         -1.319323    -2.335642     2.424472
Gh(O)      0.184732    -2.287568    -2.409063
Gh(H)      1.112085    -2.569768    -2.573994
Gh(H)      0.198435    -2.075550    -1.478929
Gh(O)     -1.452646     2.875747     0.283089
Gh(H)     -1.016356     3.736085    -0.020414
Gh(H)     -0.912142     2.095615    -0.030166
Gh(O)      0.817085     2.063335     2.435791
Gh(H)      0.226373     1.845365     3.163772
Gh(H)      0.605925     1.633571     1.595503
Gh(O)     -2.797363     0.160881    -1.865404
Gh(H)     -2.079019    -0.043372    -1.312063
Gh(H)     -2.486557     0.239144    -2.809480

units ang
no_reorient
no_com
symmetry c1
}

set {
basis        aug-cc-pVTZ
scf_type     df
}

energy("mp2")
--------------------------------------------------------------------------

    Molecular point group: c1

    Geometry (in Angstrom), charge = 0, multiplicity = 1:

       Center              X                  Y                   Z               Mass
    ------------   -----------------  -----------------  -----------------  -----------------
      Gh(CL)          0.000000000000     0.000000000000     0.000000000000    34.968852682000
         O           -1.550121000000    -2.503736000000     1.521143000000    15.994914619570
         H           -1.089309000000    -1.869996000000     0.932707000000     1.007825032230
         H           -1.319323000000    -2.335642000000     2.424472000000     1.007825032230
      Gh(O)           0.184732000000    -2.287568000000    -2.409063000000    15.994914619570
      Gh(H)           1.112085000000    -2.569768000000    -2.573994000000     1.007825032230
      Gh(H)           0.198435000000    -2.075550000000    -1.478929000000     1.007825032230
      Gh(O)          -1.452646000000     2.875747000000     0.283089000000    15.994914619570
      Gh(H)          -1.016356000000     3.736085000000    -0.020414000000     1.007825032230
      Gh(H)          -0.912142000000     2.095615000000    -0.030166000000     1.007825032230
      Gh(O)           0.817085000000     2.063335000000     2.435791000000    15.994914619570
      Gh(H)           0.226373000000     1.845365000000     3.163772000000     1.007825032230
      Gh(H)           0.605925000000     1.633571000000     1.595503000000     1.007825032230
      Gh(O)          -2.797363000000     0.160881000000    -1.865404000000    15.994914619570
      Gh(H)          -2.079019000000    -0.043372000000    -1.312063000000     1.007825032230
      Gh(H)          -2.486557000000     0.239144000000    -2.809480000000     1.007825032230

  Charge       = 0
  Multiplicity = 1
  Basis Set: AUG-CC-PVTZ
    Blend: AUG-CC-PVTZ
  Basis Set: (AUG-CC-PVTZ AUX)
    Blend: AUG-CC-PVTZ-JKFIT

    Orbital Energies [Eh]
    ---------------------

    Doubly Occupied:

       1A    -20.565671     2A     -1.346664     3A     -0.724630
       4A     -0.572827     5A     -0.508145

  @DF-RHF Final Energy:   -76.05914704712411

   => Energetics <=

    Nuclear Repulsion Energy =              9.1237624889600664
    One-Electron Energy =                -122.9299443185812493
    Two-Electron Energy =                  37.7470347824970602
    Total Energy =                        -76.0591470471241280
 Dipole X            :         28.4521632          -27.9860880            0.4660752
 Dipole Y            :         46.3381818          -45.7985066            0.5396752
 Dipole Z            :        -29.1238527           29.3404982            0.2166455
 Magnitude           :                                                    0.7452588
  Basis Set: (AUG-CC-PVTZ AUX)
    Blend: AUG-CC-PVTZ-RI
	 Reference Energy          =     -76.0591470471241138 [Eh]
	 Singles Energy            =      -0.0000000000000000 [Eh]
	 Same-Spin Energy          =      -0.0684206988833508 [Eh]
	 Opposite-Spin Energy      =      -0.2158774399478430 [Eh]
	 Correlation Energy        =      -0.2842981388311937 [Eh]
	 Total Energy              =     -76.3434451859553036 [Eh]

	 ================> DF-SCS-MP2 Energies <==================
	-----------------------------------------------------------
	 SCS Same-Spin Scale       =       0.3333333333333333 [-]
	 SCS Opposite-Spin Scale   =       1.2000000000000000 [-]
	 SCS Same-Spin Energy      =      -0.0228068996277836 [Eh]
	 SCS Opposite-Spin Energy  =      -0.2590529279374116 [Eh]
	 SCS Correlation Energy    =      -0.2818598275651952 [Eh]
	 SCS Total Energy          =     -76.3410068746893131 [Eh]
	-----------------------------------------------------------

*** Psi4 exiting successfully. Buy a developer a beer!
