                               Psi4 1.8.2 release

  ==> Input File <==

--------------------------------------------------------------------------
MEMORY 60 GB

molecule dimer {
0 1
Gh(Cl)     0.000000     0.000000     0.000000
Gh(O)      2.741234     0.738472    -1.525475
Gh(H)      2.030876     0.591915    -0.837522
Gh(H)      3.603201     0.343611    -1.225902
Gh(O)     -1.282461     2.745085     1.157741
Gh(H)     -1.948791     2.416369     1.805657
Gh(H)     -0.745954     1.941353     0.995102
O         -2.297413    -1.049486     2.333506
H         -2.862620    -0.996762     1.560954
H         -1.356740    -0.962436     2.174113
Gh(O)     -1.160282     1.516406    -2.408583
Gh(H)     -0.693222     0.915110    -1.786235
Gh(H)     -0.649383     2.316099    -2.294649
Gh(O)      1.852777    -0.587624     2.593331
Gh(H)      2.415237    -1.388943     2.530648
Gh(H)      1.630884    -0.133154     1.758059

units ang
no_reorient
no_com
symmetry c1
}

set {
basis        aug-cc-pVTZ
scf_type     df
}

energy("mp2")
--------------------------------------------------------------------------

    Molecular point group: c1

    Geometry (in Angstrom), charge = 0, multiplicity = 1:

       Center              X                  Y                   Z               Mass
    ------------   -----------------  -----------------  -----------------  -----------------
      Gh(CL)          0.000000000000     0.000000000000     0.000000000000    34.968852682000
      Gh(O)           2.741234000000     0.738472000000    -1.525475000000    15.994914619570
      Gh(H)           2.030876000000     0.591915000000    -0.837522000000     1.007825032230
      Gh(H)           3.603201000000     0.343611000000    -1.225902000000     1.007825032230
      Gh(O)          -1.282461000000     2.745085000000     1.157741000000    15.994914619570
      Gh(H)          -1.948791000000     2.416369000000     1.805657000000     1.007825032230
      Gh(H)          -0.745954000000     1.941353000000     0.995102000000     1.007825032230
         O           -2.297413000000    -1.049486000000     2.333506000000    15.994914619570
         H           -2.862620000000    -0.996762000000     1.560954000000     1.007825032230
         H           -1.356740000000    -0.962436000000     2.174113000000     1.007825032230
      Gh(O)          -1.160282000000     1.516406000000    -2.408583000000    15.994914619570
      Gh(H)          -0.693222000000     0.915110000000    -1.786235000000     1.007825032230
      Gh(H)          -0.649383000000     2.316099000000    -2.294649000000     1.007825032230
      Gh(O)           1.852777000000    -0.587624000000     2.593331000000    15.994914619570
      Gh(H)           2.415237000000    -1.388943000000     2.530648000000     1.007825032230
      Gh(H)           1.630884000000    -0.133154000000     1.758059000000     1.007825032230

  Charge       = 0
  Multiplicity = 1
  Basis Set: AUG-CC-PVTZ
    Blend: AUG-CC-PVTZ
  Basis Set: (AUG-CC-PVTZ AUX)
    Blend: AUG-CC-PVTZ-JKFIT

    Orbital Energies [Eh]
    ---------------------

    Doubly Occupied:

       1A    -20.561890     2A     -1.345093     3A     -0.737841
       4A     -0.562488     5A     -0.506683

  @DF-RHF Final Energy:   -76.05794552873004

   => Energetics <=

    Nuclear Repulsion Energy =              9.1600624913887234
    One-Electron Energy =                -123.0080210898913009
    Two-Electron Energy =                  37.7900130697725274
    Total Energy =                        -76.0579455287300448
 Dipole X            :         42.9647455          -42.7052858            0.2594597
 Dipole Y            :         19.6647455          -19.5682765            0.0964689
 Dipole Z            :        -42.9790191           42.3357517           -0.6432674
 Magnitude           :                                                    0.7002989
  Basis Set: (AUG-CC-PVTZ AUX)
    Blend: AUG-CC-PVTZ-RI
	 Reference Energy          =     -76.0579455287300448 [Eh]
	 Singles Energy            =      -0.0000000000000000 [Eh]
	 Same-Spin Energy          =      -0.0683197912435786 [Eh]
	 Opposite-Spin Energy      =      -0.2151538688878062 [Eh]
	 Correlation Energy        =      -0.2834736601313848 [Eh]
	 Total Energy              =     -76.3414191888614226 [Eh]

	 ================> DF-SCS-MP2 Energies <==================
	-----------------------------------------------------------
	 SCS Same-Spin Scale       =       0.3333333333333333 [-]
	 SCS Opposite-Spin Scale   =       1.2000000000000000 [-]
	 SCS Same-Spin Energy      =      -0.0227732637478595 [Eh]
	 SCS Opposite-Spin Energy  =      -0.2581846426653674 [Eh]
	 SCS Correlation Energy    =      -0.2809579064132269 [Eh]
	 SCS Total Energy          =     -76.3389034351432656 [Eh]
	-----------------------------------------------------------

*** Psi4 exiting successfully. Buy a developer a beer!
