                               Psi4 1.8.2 release

  ==> Input File <==

--------------------------------------------------------------------------
MEMORY 60 GB

molecule dimer {
0 1
Gh(Br)     0.000000     0.000000     0.000000
Gh(O)     -2.938072     0.464389    -1.439165
Gh(H)     -3.102087    -0.253086    -2.073190
Gh(H)     -2.195405     0.228367    -0.888619
Gh(O)      0.951332    -1.540440     3.027413
Gh(H)      0.711603    -1.098178     2.200969
Gh(H)      1.717176    -1.031261     3.320463
Gh(O)     -1.884440    -1.671342     2.485385
Gh(H)     -1.607087    -1.301256     1.617131
Gh(H)     -1.710697    -2.626941     2.322726
O         -0.392709    -1.832615    -2.914916
H         -0.373963    -1.332135    -2.100379
H         -0.385090    -1.142787    -3.601259
Gh(O)      2.389714    -2.096131    -1.711884
Gh(H)      1.528994    -2.124078    -1.386041
Gh(H)      2.910463    -1.647935    -1.049521

units ang
no_reorient
no_com
symmetry c1
}

set {
basis        aug-cc-pVTZ
scf_type     df
}

energy("mp2")
--------------------------------------------------------------------------

    Molecular point group: c1

    Geometry (in Angstrom), charge = 0, multiplicity = 1:

       Center              X                  Y                   Z               Mass
    ------------   -----------------  -----------------  -----------------  -----------------
      Gh(BR)          0.000000000000     0.000000000000     0.000000000000    78.918337600000
      Gh(O)          -2.938072000000     0.464389000000    -1.439165000000    15.994914619570
      Gh(H)          -3.102087000000    -0.253086000000    -2.073190000000     1.007825032230
      Gh(H)          -2.195405000000     0.228367000000    -0.888619000000     1.007825032230
      Gh(O)           0.951332000000    -1.540440000000     3.027413000000    15.994914619570
      Gh(H)           0.711603000000    -1.098178000000     2.200969000000     1.007825032230
      Gh(H)           1.717176000000    -1.031261000000     3.320463000000     1.007825032230
      Gh(O)          -1.884440000000    -1.671342000000     2.485385000000    15.994914619570
      Gh(H)          -1.607087000000    -1.301256000000     1.617131000000     1.007825032230
      Gh(H)          -1.710697000000    -2.626941000000     2.322726000000     1.007825032230
         O           -0.392709000000    -1.832615000000    -2.914916000000    15.994914619570
         H           -0.373963000000    -1.332135000000    -2.100379000000     1.007825032230
         H           -0.385090000000    -1.142787000000    -3.601259000000     1.007825032230
      Gh(O)           2.389714000000    -2.096131000000    -1.711884000000    15.994914619570
      Gh(H)           1.528994000000    -2.124078000000    -1.386041000000     1.007825032230
      Gh(H)           2.910463000000    -1.647935000000    -1.049521000000     1.007825032230

  Charge       = 0
  Multiplicity = 1
  Basis Set: AUG-CC-PVTZ
    Blend: AUG-CC-PVTZ
  Basis Set: (AUG-CC-PVTZ AUX)
    Blend: AUG-CC-PVTZ-JKFIT

    Orbital Energies [Eh]
    ---------------------

    Doubly Occupied:

       1A    -20.568916     2A     -1.350657     3A     -0.711333
       4A     -0.585836     5A     -0.510093

  @DF-RHF Final Energy:   -76.05987804511268

   => Energetics <=

    Nuclear Repulsion Energy =              9.1274681661407353
    One-Electron Energy =                -122.9210175531583218
    Two-Electron Energy =                  37.7336713419049161
    Total Energy =                        -76.0598780451126686
 Dipole X            :          7.3885669           -7.3713019            0.0172649
 Dipole Y            :         33.1668939          -32.3820483            0.7848456
 Dipole Z            :         54.9295077          -54.8416776            0.0878300
 Magnitude           :                                                    0.7899334
  Basis Set: (AUG-CC-PVTZ AUX)
    Blend: AUG-CC-PVTZ-RI
	 Reference Energy          =     -76.0598780451126828 [Eh]
	 Singles Energy            =      -0.0000000000000000 [Eh]
	 Same-Spin Energy          =      -0.0685666362936560 [Eh]
	 Opposite-Spin Energy      =      -0.2165143291215711 [Eh]
	 Correlation Energy        =      -0.2850809654152271 [Eh]
	 Total Energy              =     -76.3449590105279157 [Eh]

	 ================> DF-SCS-MP2 Energies <==================
	-----------------------------------------------------------
	 SCS Same-Spin Scale       =       0.3333333333333333 [-]
	 SCS Opposite-Spin Scale   =       1.2000000000000000 [-]
	 SCS Same-Spin Energy      =      -0.0228555454312187 [Eh]
	 SCS Opposite-Spin Energy  =      -0.2598171949458853 [Eh]
	 SCS Correlation Energy    =      -0.2826727403771039 [Eh]
	 SCS Total Energy          =     -76.3425507854897916 [Eh]
	-----------------------------------------------------------

*** Psi4 exiting successfully. Buy a developer a beer!
