                               Psi4 1.9 release

  ==> Input File <==

--------------------------------------------------------------------------
MEMORY 60 GB

molecule dimer {
-1 1
Br     0.000000     0.000000     0.000000
--
0 1
O      3.157564    -0.938804     1.002837
H      2.741539    -1.572686     1.601074
H      2.435256    -0.515105     0.528841
O     -1.178261     3.348443    -0.543747
H     -0.877405     4.142222    -0.123462
H     -0.618048     2.578310    -0.290120
O     -0.155000     1.255906    -3.193252
H     -0.202310     0.622118    -3.920435
H     -0.213318     0.808213    -2.353788
O      0.562600     1.647077     2.887295
H      0.576374     0.972541     2.201725
H     -0.160115     1.355841     3.512740
O      1.977093     2.382932     0.020064
H      1.569982     3.008419     0.619026
H      1.465597     1.557824     0.009689

units ang
no_reorient
no_com
symmetry c1
}

set {
basis        aug-cc-pVTZ
scf_type     df
}

energy("mp2", bsse_type="cp")
--------------------------------------------------------------------------

                               Psi4 1.9 release
    Molecular point group: c1
  Charge       = 0
  Multiplicity = 1
  Basis Set: AUG-CC-PVTZ
    Blend: AUG-CC-PVTZ
  Basis Set: (AUG-CC-PVTZ AUX)
    Blend: AUG-CC-PVTZ-JKFIT
  @DF-RHF Final Energy:  -380.28028879188935
    Total Energy =                       -380.2802887918893475
 Dipole X            :        -79.8708543           78.6683915           -1.2024627
 Dipole Y            :       -142.2971906          140.8264141           -1.4707765
 Dipole Z            :         -5.0058812            5.9920683            0.9861871
 Magnitude           :                                                    2.1404825
  Basis Set: (AUG-CC-PVTZ AUX)
    Blend: AUG-CC-PVTZ-RI
	 Reference Energy          =    -380.2802887918893475 [Eh]
	 Singles Energy            =      -0.0000000000000000 [Eh]
	 Same-Spin Energy          =      -0.3449201638852316 [Eh]
	 Opposite-Spin Energy      =      -1.0841409063229979 [Eh]
	 Correlation Energy        =      -1.4290610702082294 [Eh]
	 Total Energy              =    -381.7093498620975538 [Eh]
	 SCS Total Energy          =    -381.6962312674386908 [Eh]
                               Psi4 1.9 release
    Molecular point group: c1
  Multiplicity = 1
  Basis Set: AUG-CC-PVTZ
    Blend: AUG-CC-PVTZ
  Basis Set: (AUG-CC-PVTZ AUX)
    Blend: AUG-CC-PVTZ-JKFIT
  @DF-RHF Final Energy: -2572.53373293005097
    Total Energy =                      -2572.5337329300509737
  Basis Set: (AUG-CC-PVTZ AUX)
	 Singles Energy            =      -0.0000000000000000 [Eh]
	 Same-Spin Energy          =      -0.0916372979064676 [Eh]
	 Opposite-Spin Energy      =      -0.2134319610627766 [Eh]
	 Correlation Energy        =      -0.3050692589692442 [Eh]
	 Total Energy              =   -2572.8388021890200434 [Eh]
	 SCS Total Energy          =   -2572.8203970492950248 [Eh]
                               Psi4 1.9 release
    Molecular point group: c1

    Geometry (in Bohr), charge = -1, multiplicity = 1:

       Center              X                  Y                   Z               Mass
    ------------   -----------------  -----------------  -----------------  -----------------
         BR           0.000000000000     0.000000000000     0.000000000000    78.918337600000
         O            5.966931183605    -1.774082445484     1.895087278476    15.994914619570
         H            5.180757872262    -2.971945821342     3.025591366591     1.007825032230
         H            4.601966885378    -0.973407375854     0.999364653913     1.007825032230
         O           -2.226590594308     6.327640216706    -1.027532911539    15.994914619570
         H           -1.658055151107     7.827665130846    -0.233309366901     1.007825032230
         H           -1.167941452387     4.872299766529    -0.548247343518     1.007825032230
         O           -0.292907549446     2.373318379319    -6.034371729570    15.994914619570
         H           -0.382310492441     1.175632637718    -7.408548442659     1.007825032230
         H           -0.403112597630     1.527301221035    -4.448014677389     1.007825032230
         O            1.063159918183     3.112524437541     5.456196793404    15.994914619570
         H            1.089189005835     1.837836135779     4.160657253574     1.007825032230
         H           -0.302573498578     2.562168159667     6.638116549941     1.007825032230
         O            3.736164294560     4.503088855589     0.037915464981    15.994914619570
         H            2.966836001899     5.685087980624     1.169789604538     1.007825032230
         H            2.769576940293     2.943860711665     0.018309556430     1.007825032230

  Charge       = -1
  Multiplicity = 1
  Basis Set: AUG-CC-PVTZ
    Blend: AUG-CC-PVTZ
  Basis Set: (AUG-CC-PVTZ AUX)
    Blend: AUG-CC-PVTZ-JKFIT

    Orbital Energies [Eh]
    ---------------------

    Doubly Occupied:

       1A   -489.799125     2A    -64.939783     3A    -58.294266
       4A    -58.294250     5A    -58.294234     6A    -20.434905
       7A    -20.420435     8A    -20.417600     9A    -20.413966
      10A    -20.394265    11A     -9.612298    12A     -7.219959
      13A     -7.219817    14A     -7.219640    15A     -2.961540
      16A     -2.961536    17A     -2.961343    18A     -2.961185
      19A     -2.961160    20A     -1.209112    21A     -1.204502
      22A     -1.199996    23A     -1.198859    24A     -1.183177
      25A     -0.782984    26A     -0.582746    27A     -0.577649
      28A     -0.574187    29A     -0.573549    30A     -0.562290
      31A     -0.451374    32A     -0.441117    33A     -0.431678
      34A     -0.426051    35A     -0.412263    36A     -0.376348
      37A     -0.365832    38A     -0.362607    39A     -0.359790
      40A     -0.341995    41A     -0.229449    42A     -0.226107
      43A     -0.224713

  @DF-RHF Final Energy: -2952.86996921269701

   => Energetics <=

    Nuclear Repulsion Energy =            454.8123267414453039
    One-Electron Energy =               -5031.2052185472348356
    Two-Electron Energy =                1623.5229225930931989
    Total Energy =                      -2952.8699692126965601
 Dipole X            :        -80.4431088           78.6683915           -1.7747173
 Dipole Y            :       -143.0631571          140.8264141           -2.2367430
 Dipole Z            :         -5.1499578            5.9920683            0.8421106
 Magnitude           :                                                    2.9768760
  Basis Set: (AUG-CC-PVTZ AUX)
    Blend: AUG-CC-PVTZ-RI
	 Reference Energy          =   -2952.8699692126970149 [Eh]
	 Singles Energy            =      -0.0000000000000000 [Eh]
	 Same-Spin Energy          =      -0.4468224771267355 [Eh]
	 Opposite-Spin Energy      =      -1.3053209665403751 [Eh]
	 Correlation Energy        =      -1.7521434436671106 [Eh]
	 Total Energy              =   -2954.6221126563641519 [Eh]

	 ================> DF-SCS-MP2 Energies <==================
	-----------------------------------------------------------
	 SCS Same-Spin Scale       =       0.3333333333333333 [-]
	 SCS Opposite-Spin Scale   =       1.2000000000000000 [-]
	 SCS Same-Spin Energy      =      -0.1489408257089118 [Eh]
	 SCS Opposite-Spin Energy  =      -1.5663851598484502 [Eh]
	 SCS Correlation Energy    =      -1.7153259855573619 [Eh]
	 SCS Total Energy          =   -2954.5852951982542436 [Eh]
	-----------------------------------------------------------

*** Psi4 exiting successfully. Buy a developer a beer!
