                               Psi4 1.9 release

  ==> Input File <==

--------------------------------------------------------------------------
MEMORY 60 GB

molecule dimer {
-1 1
Br     0.000000     0.000000     0.000000
--
0 1
O     -2.693192    -1.679912     0.355723
H     -1.875366    -1.176432     0.015423
H     -3.226162    -1.909403    -0.424515
O     -1.448803     2.589056    -1.473057
H     -1.905026     2.601791    -0.617480
H     -1.862488     3.210439    -2.073139
O     -2.142334     0.188851    -2.736695
H     -1.900358     0.972141    -2.236676
H     -2.330046     0.458810    -3.593644
O      0.593152     0.691607    -3.130397
H      0.790973     0.153655    -3.929734
H      0.103934     0.137581    -2.474532
O      1.279965    -2.599480    -1.667778
H      0.899924    -2.394763    -2.551512
H      1.123623    -1.790753    -1.235832
O      0.507220    -0.594639     3.390560
H      1.000701     0.236302     3.548363
H      0.075494    -0.431779     2.468449
O     -2.141177     1.800887     1.874188
H     -1.623828     1.273723     1.198477
H     -1.535113     2.232496     2.500517

units ang
no_reorient
no_com
symmetry c1
}

set {
basis        aug-cc-pVTZ
scf_type     df
}

energy("mp2", bsse_type="cp")
--------------------------------------------------------------------------

                               Psi4 1.9 release
    Molecular point group: c1
  Charge       = 0
  Multiplicity = 1
  Basis Set: AUG-CC-PVTZ
    Blend: AUG-CC-PVTZ
  Basis Set: (AUG-CC-PVTZ AUX)
    Blend: AUG-CC-PVTZ-JKFIT
  @DF-RHF Final Energy:  -532.39415404835040
    Total Energy =                       -532.3941540483504014
 Dipole X            :        114.3408945         -114.5648164           -0.2239219
 Dipole Y            :        -10.6809266           12.7457643            2.0648377
 Dipole Z            :         67.4263818          -68.9853649           -1.5589831
 Magnitude           :                                                    2.5969451
  Basis Set: (AUG-CC-PVTZ AUX)
    Blend: AUG-CC-PVTZ-RI
	 Reference Energy          =    -532.3941540483504014 [Eh]
	 Singles Energy            =      -0.0000000000000000 [Eh]
	 Same-Spin Energy          =      -0.4864012437213270 [Eh]
	 Opposite-Spin Energy      =      -1.5235103245360082 [Eh]
	 Correlation Energy        =      -2.0099115682573352 [Eh]
	 Total Energy              =    -534.4040656166076815 [Eh]
	 SCS Total Energy          =    -534.3845001857007446 [Eh]
                               Psi4 1.9 release
    Molecular point group: c1
  Multiplicity = 1
  Basis Set: AUG-CC-PVTZ
    Blend: AUG-CC-PVTZ
  Basis Set: (AUG-CC-PVTZ AUX)
    Blend: AUG-CC-PVTZ-JKFIT
  @DF-RHF Final Energy: -2572.53374397462312
    Total Energy =                      -2572.5337439746231212
  Basis Set: (AUG-CC-PVTZ AUX)
	 Singles Energy            =      -0.0000000000000000 [Eh]
	 Same-Spin Energy          =      -0.0923987589507665 [Eh]
	 Opposite-Spin Energy      =      -0.2152148966281367 [Eh]
	 Correlation Energy        =      -0.3076136555789032 [Eh]
	 Total Energy              =   -2572.8413576302018555 [Eh]
	 SCS Total Energy          =   -2572.8228014368937693 [Eh]
                               Psi4 1.9 release
    Molecular point group: c1

    Geometry (in Bohr), charge = -1, multiplicity = 1:

       Center              X                  Y                   Z               Mass
    ------------   -----------------  -----------------  -----------------  -----------------
         BR           0.000000000000     0.000000000000     0.000000000000    78.918337600000
         O           -5.089395283274    -3.174573594870     0.672219046526    15.994914619570
         H           -3.543928124995    -2.223134285225     0.029145246033     1.007825032230
         H           -6.096562616359    -3.608248733128    -0.802217086149     1.007825032230
         O           -2.737840879742     4.892606763473    -2.783674297189    15.994914619570
         H           -3.599977401876     4.916672425681    -1.166868087948     1.007825032230
         H           -3.519592231952     6.066850452489    -3.917664930006     1.007825032230
         O           -4.048424529257     0.356876668519    -5.171604038910    15.994914619570
         H           -3.591156160323     1.837080245329    -4.226705071385     1.007825032230
         H           -4.403148799719     0.867025243621    -6.791002952395     1.007825032230
         O            1.120894830768     1.306947816450    -5.915592993955    15.994914619570
         H            1.494722342632     0.290365867807    -7.426121005900     1.007825032230
         H            0.196406795123     0.259990410067    -4.676187768681     1.007825032230
         O            2.418783300172    -4.912305268605    -3.151643658064    15.994914619570
         H            1.700609893727    -4.525446205380    -4.821658885819     1.007825032230
         H            2.123339738265    -3.384032728342    -2.335384017077     1.007825032230
         O            0.958506885355    -1.123704853516     6.407229811932    15.994914619570
         H            1.891050823472     0.446546062898     6.705434263708     1.007825032230
         H            0.142662984115    -0.815944056724     4.664692564660     1.007825032230
         O           -4.046238116129     3.403183212897     3.541702027620    15.994914619570
         H           -3.068590194850     2.406987629697     2.264793297660     1.007825032230
         H           -2.900943141630     4.218806016180     4.725292302051     1.007825032230

  Charge       = -1
  Multiplicity = 1
  Basis Set: AUG-CC-PVTZ
    Blend: AUG-CC-PVTZ
  Basis Set: (AUG-CC-PVTZ AUX)
    Blend: AUG-CC-PVTZ-JKFIT

    Orbital Energies [Eh]
    ---------------------

    Doubly Occupied:

       1A   -489.790894     2A    -64.931687     3A    -58.286190
       4A    -58.286160     5A    -58.286098     6A    -20.466429
       7A    -20.431211     8A    -20.423943     9A    -20.423773
      10A    -20.422087    11A    -20.420907    12A    -20.397597
      13A     -9.604250    14A     -7.212113    15A     -7.211805
      16A     -7.211444    17A     -2.953784    18A     -2.953724
      19A     -2.953270    20A     -2.952922    21A     -2.952836
      22A     -1.253986    23A     -1.227877    24A     -1.212474
      25A     -1.201606    26A     -1.194161    27A     -1.183686
      28A     -1.164908    29A     -0.777434    30A     -0.627635
      31A     -0.608137    32A     -0.579276    33A     -0.569901
      34A     -0.564745    35A     -0.542025    36A     -0.535685
      37A     -0.483031    38A     -0.456414    39A     -0.454277
      40A     -0.440456    41A     -0.433298    42A     -0.430576
      43A     -0.409424    44A     -0.402981    45A     -0.389576
      46A     -0.373305    47A     -0.367372    48A     -0.358836
      49A     -0.351902    50A     -0.337563    51A     -0.225524
      52A     -0.219394    53A     -0.215465

  @DF-RHF Final Energy: -3104.96987609190728

   => Energetics <=

    Nuclear Repulsion Energy =            712.1353846165538926
    One-Electron Energy =               -5757.8784023130292553
    Two-Electron Energy =                1940.7731416045680817
    Total Energy =                      -3104.9698760919072811
 Dipole X            :        114.9720159         -114.5648164            0.4071995
 Dipole Y            :        -10.5724348           12.7457643            2.1733295
 Dipole Z            :         67.3705089          -68.9853649           -1.6148560
 Magnitude           :                                                    2.7380527
  Basis Set: (AUG-CC-PVTZ AUX)
    Blend: AUG-CC-PVTZ-RI
	 Reference Energy          =   -3104.9698760919072811 [Eh]
	 Singles Energy            =      -0.0000000000000000 [Eh]
	 Same-Spin Energy          =      -0.5926510184480024 [Eh]
	 Opposite-Spin Energy      =      -1.7504336826229976 [Eh]
	 Correlation Energy        =      -2.3430847010710001 [Eh]
	 Total Energy              =   -3107.3129607929781741 [Eh]

	 ================> DF-SCS-MP2 Energies <==================
	-----------------------------------------------------------
	 SCS Same-Spin Scale       =       0.3333333333333333 [-]
	 SCS Opposite-Spin Scale   =       1.2000000000000000 [-]
	 SCS Same-Spin Energy      =      -0.1975503394826675 [Eh]
	 SCS Opposite-Spin Energy  =      -2.1005204191475970 [Eh]
	 SCS Correlation Energy    =      -2.2980707586302644 [Eh]
	 SCS Total Energy          =   -3107.2679468505375553 [Eh]
	-----------------------------------------------------------

*** Psi4 exiting successfully. Buy a developer a beer!
