                               Psi4 1.8.2 release

  ==> Input File <==

--------------------------------------------------------------------------
MEMORY 60 GB

molecule dimer {
0 1
Gh(Br)     0.000000     0.000000     0.000000
Gh(O)     -3.203691    -0.706166     0.782016
Gh(H)     -2.295960    -0.464817     0.667408
Gh(H)     -3.558639    -0.246998     1.530606
Gh(O)     -1.688294    -2.239204    -1.689504
Gh(H)     -1.640223    -2.974459    -1.039912
Gh(H)     -1.367206    -1.475108    -1.153456
Gh(O)      1.718343    -2.981602     0.227705
Gh(H)      1.215621    -3.617408     0.840091
Gh(H)      1.172353    -2.184568     0.147489
O         -1.023386     2.101542     2.512944
H         -0.754621     1.462034     1.797374
H         -0.259077     2.082588     3.154971

units ang
no_reorient
no_com
symmetry c1
}

set {
basis        aug-cc-pVTZ
scf_type     df
}

energy("mp2")
--------------------------------------------------------------------------

    Molecular point group: c1

    Geometry (in Angstrom), charge = 0, multiplicity = 1:

       Center              X                  Y                   Z               Mass
    ------------   -----------------  -----------------  -----------------  -----------------
      Gh(BR)          0.000000000000     0.000000000000     0.000000000000    78.918337600000
      Gh(O)          -3.203691000000    -0.706166000000     0.782016000000    15.994914619570
      Gh(H)          -2.295960000000    -0.464817000000     0.667408000000     1.007825032230
      Gh(H)          -3.558639000000    -0.246998000000     1.530606000000     1.007825032230
      Gh(O)          -1.688294000000    -2.239204000000    -1.689504000000    15.994914619570
      Gh(H)          -1.640223000000    -2.974459000000    -1.039912000000     1.007825032230
      Gh(H)          -1.367206000000    -1.475108000000    -1.153456000000     1.007825032230
      Gh(O)           1.718343000000    -2.981602000000     0.227705000000    15.994914619570
      Gh(H)           1.215621000000    -3.617408000000     0.840091000000     1.007825032230
      Gh(H)           1.172353000000    -2.184568000000     0.147489000000     1.007825032230
         O           -1.023386000000     2.101542000000     2.512944000000    15.994914619570
         H           -0.754621000000     1.462034000000     1.797374000000     1.007825032230
         H           -0.259077000000     2.082588000000     3.154971000000     1.007825032230

  Charge       = 0
  Multiplicity = 1
  Basis Set: AUG-CC-PVTZ
    Blend: AUG-CC-PVTZ
  Basis Set: (AUG-CC-PVTZ AUX)
    Blend: AUG-CC-PVTZ-JKFIT

    Orbital Energies [Eh]
    ---------------------

    Doubly Occupied:

       1A    -20.574310     2A     -1.334058     3A     -0.695516
       4A     -0.578023     5A     -0.507344

  @DF-RHF Final Energy:   -76.05509311729587

   => Energetics <=

    Nuclear Repulsion Energy =              8.8246063351634056
    One-Electron Energy =                -122.3808927129139050
    Two-Electron Energy =                  37.5011932604546274
    Total Energy =                        -76.0550931172958684
 Dipole X            :         18.0568925          -17.3869657            0.6699268
 Dipole Y            :        -38.8962218           38.4690754           -0.4271464
 Dipole Z            :        -47.3969532           47.3487832           -0.0481701
 Magnitude           :                                                    0.7959751
  Basis Set: (AUG-CC-PVTZ AUX)
    Blend: AUG-CC-PVTZ-RI
	 Reference Energy          =     -76.0550931172958684 [Eh]
	 Singles Energy            =      -0.0000000000000000 [Eh]
	 Same-Spin Energy          =      -0.0690927876098049 [Eh]
	 Opposite-Spin Energy      =      -0.2179596855613947 [Eh]
	 Correlation Energy        =      -0.2870524731711996 [Eh]
	 Total Energy              =     -76.3421455904670694 [Eh]

	 ================> DF-SCS-MP2 Energies <==================
	-----------------------------------------------------------
	 SCS Same-Spin Scale       =       0.3333333333333333 [-]
	 SCS Opposite-Spin Scale   =       1.2000000000000000 [-]
	 SCS Same-Spin Energy      =      -0.0230309292032683 [Eh]
	 SCS Opposite-Spin Energy  =      -0.2615516226736736 [Eh]
	 SCS Correlation Energy    =      -0.2845825518769419 [Eh]
	 SCS Total Energy          =     -76.3396756691728058 [Eh]
	-----------------------------------------------------------

*** Psi4 exiting successfully. Buy a developer a beer!
