                               Psi4 1.9 release

  ==> Input File <==

--------------------------------------------------------------------------
MEMORY 60 GB

molecule dimer {
-1 1
Br     0.000000     0.000000     0.000000
--
0 1
O     -2.305583    -2.407606     0.494450
H     -1.867709    -1.598552     0.196248
H     -2.635182    -2.303553     1.364687
O     -2.542743     1.435325     1.136668
H     -2.316989     2.197870     1.699100
H     -1.797245     0.909355     0.922860
O     -0.667402     0.006100     3.273615
H     -1.303297     0.663052     3.442756
H     -0.519269    -0.098645     2.327999
O      2.326692     2.113075     1.613902
H      1.497957     1.639342     1.313777
H      2.985432     1.613206     1.112036

units ang
no_reorient
no_com
symmetry c1
}

set {
basis        aug-cc-pVTZ
scf_type     df
}

energy("mp2", bsse_type="cp")
--------------------------------------------------------------------------

                               Psi4 1.9 release
    Molecular point group: c1
  Charge       = 0
  Multiplicity = 1
  Basis Set: AUG-CC-PVTZ
    Blend: AUG-CC-PVTZ
  Basis Set: (AUG-CC-PVTZ AUX)
    Blend: AUG-CC-PVTZ-JKFIT
  @DF-RHF Final Energy:  -304.22551324178818
    Total Energy =                       -304.2255132417881782
 Dipole X            :         59.6999673          -59.4670167            0.2329507
 Dipole Y            :        -22.5036292           23.0494185            0.5457893
 Dipole Z            :       -122.2768313          121.9412735           -0.3355578
 Magnitude           :                                                    0.6817265
  Basis Set: (AUG-CC-PVTZ AUX)
    Blend: AUG-CC-PVTZ-RI
	 Reference Energy          =    -304.2255132417881782 [Eh]
	 Singles Energy            =      -0.0000000000000000 [Eh]
	 Same-Spin Energy          =      -0.2750686250960140 [Eh]
	 Opposite-Spin Energy      =      -0.8653173802860585 [Eh]
	 Correlation Energy        =      -1.1403860053820725 [Eh]
	 Total Energy              =    -305.3658992471702618 [Eh]
	 SCS Total Energy          =    -305.3555836398301153 [Eh]
                               Psi4 1.9 release
    Molecular point group: c1
  Multiplicity = 1
  Basis Set: AUG-CC-PVTZ
    Blend: AUG-CC-PVTZ
  Basis Set: (AUG-CC-PVTZ AUX)
    Blend: AUG-CC-PVTZ-JKFIT
  @DF-RHF Final Energy: -2572.53372164462462
    Total Energy =                      -2572.5337216446246202
  Basis Set: (AUG-CC-PVTZ AUX)
	 Singles Energy            =      -0.0000000000000000 [Eh]
	 Same-Spin Energy          =      -0.0907889606562484 [Eh]
	 Opposite-Spin Energy      =      -0.2114388227209953 [Eh]
	 Correlation Energy        =      -0.3022277833772438 [Eh]
	 Total Energy              =   -2572.8359494280016406 [Eh]
	 SCS Total Energy          =   -2572.8177112187754574 [Eh]
                               Psi4 1.9 release
    Molecular point group: c1

    Geometry (in Bohr), charge = -1, multiplicity = 1:

       Center              X                  Y                   Z               Mass
    ------------   -----------------  -----------------  -----------------  -----------------
         BR           0.000000000000     0.000000000000     0.000000000000    78.918337600000
         O           -4.356920429511    -4.549715958009     0.934375082733    15.994914619570
         H           -3.529458492053    -3.020825477303     0.370854972669     1.007825032230
         H           -4.979772270736    -4.353084285477     2.578884676973     1.007825032230
         O           -4.805087877425     2.712371151023     2.147991215572    15.994914619570
         H           -4.378474645698     4.153372359360     3.210833659765     1.007825032230
         H           -3.396300830348     1.718431900816     1.743952652140     1.007825032230
         O           -1.261206995583     0.011527329365     6.186235790191    15.994914619570
         H           -2.462874390131     1.252986686937     6.505865956777     1.007825032230
         H           -0.981276195440    -0.186412033646     4.399280530340     1.007825032230
         O            4.396810658294     3.993133032552     3.049832773329    15.994914619570
         H            2.830728477712     3.097907405960     2.482678719926     1.007825032230
         H            5.641648846178     3.048517523945     2.101443481650     1.007825032230

  Charge       = -1
  Multiplicity = 1
  Basis Set: AUG-CC-PVTZ
    Blend: AUG-CC-PVTZ
  Basis Set: (AUG-CC-PVTZ AUX)
    Blend: AUG-CC-PVTZ-JKFIT

    Orbital Energies [Eh]
    ---------------------

    Doubly Occupied:

       1A   -489.788899     2A    -64.929486     3A    -58.283974
       4A    -58.283973     5A    -58.283919     6A    -20.426520
       7A    -20.414914     8A    -20.411324     9A    -20.409022
      10A     -9.601998    11A     -7.209708    12A     -7.209570
      13A     -7.209194    14A     -2.951413    15A     -2.951396
      16A     -2.950939    17A     -2.950817    18A     -2.950694
      19A     -1.211042    20A     -1.204328    21A     -1.201163
      22A     -1.199741    23A     -0.771194    24A     -0.595404
      25A     -0.588504    26A     -0.581960    27A     -0.550804
      28A     -0.450330    29A     -0.442589    30A     -0.427758
      31A     -0.422259    32A     -0.368039    33A     -0.365927
      34A     -0.360739    35A     -0.358125    36A     -0.219878
      37A     -0.217522    38A     -0.211402

  @DF-RHF Final Energy: -2876.81019646436880

   => Energetics <=

    Nuclear Repulsion Energy =            342.6963521890399420
    One-Electron Energy =               -4701.0801520455934224
    Two-Electron Energy =                1481.5736033921848502
    Total Energy =                      -2876.8101964643683459
 Dipole X            :         60.1515765          -59.4670167            0.6845598
 Dipole Y            :        -22.7296966           23.0494185            0.3197219
 Dipole Z            :       -123.1307566          121.9412735           -1.1894830
 Magnitude           :                                                    1.4091537
  Basis Set: (AUG-CC-PVTZ AUX)
    Blend: AUG-CC-PVTZ-RI
	 Reference Energy          =   -2876.8101964643688007 [Eh]
	 Singles Energy            =      -0.0000000000000000 [Eh]
	 Same-Spin Energy          =      -0.3747934498299469 [Eh]
	 Opposite-Spin Energy      =      -1.0834125274929001 [Eh]
	 Correlation Energy        =      -1.4582059773228471 [Eh]
	 Total Energy              =   -2878.2684024416917055 [Eh]

	 ================> DF-SCS-MP2 Energies <==================
	-----------------------------------------------------------
	 SCS Same-Spin Scale       =       0.3333333333333333 [-]
	 SCS Opposite-Spin Scale   =       1.2000000000000000 [-]
	 SCS Same-Spin Energy      =      -0.1249311499433156 [Eh]
	 SCS Opposite-Spin Energy  =      -1.3000950329914800 [Eh]
	 SCS Correlation Energy    =      -1.4250261829347957 [Eh]
	 SCS Total Energy          =   -2878.2352226473035444 [Eh]
	-----------------------------------------------------------

*** Psi4 exiting successfully. Buy a developer a beer!
