                               Psi4 1.8.2 release

  ==> Input File <==

--------------------------------------------------------------------------
MEMORY 60 GB

molecule dimer {
-1 1
Br         0.000000     0.000000     0.000000
Gh(O)      0.735787    -1.007456    -3.069810
Gh(H)      0.644497    -0.834554    -2.122033
Gh(H)      0.006923    -0.466036    -3.438270
Gh(O)     -1.018718    -3.113955    -0.290668
Gh(H)     -0.721929    -2.218123    -0.066292
Gh(H)     -1.485195    -3.443926     0.484674
Gh(O)      0.210699    -0.756624     3.212958
Gh(H)     -0.457413    -0.410318     3.755700
Gh(H)     -0.069501    -0.614574     2.311108
Gh(O)     -2.962023    -1.017792    -1.096322
Gh(H)     -3.354668    -1.449903    -0.277945
Gh(H)     -2.162494    -0.558488    -0.874702
Gh(O)      2.892807    -1.828066    -0.264556
Gh(H)      2.681291    -1.012210     0.216583
Gh(H)      2.150125    -2.389570    -0.124064

units ang
no_reorient
no_com
symmetry c1
}

set {
basis        aug-cc-pVTZ
scf_type     df
}

energy("mp2")
--------------------------------------------------------------------------

    Molecular point group: c1

    Geometry (in Angstrom), charge = -1, multiplicity = 1:

       Center              X                  Y                   Z               Mass
    ------------   -----------------  -----------------  -----------------  -----------------
         BR           0.000000000000     0.000000000000     0.000000000000    78.918337600000
      Gh(O)           0.735787000000    -1.007456000000    -3.069810000000    15.994914619570
      Gh(H)           0.644497000000    -0.834554000000    -2.122033000000     1.007825032230
      Gh(H)           0.006923000000    -0.466036000000    -3.438270000000     1.007825032230
      Gh(O)          -1.018718000000    -3.113955000000    -0.290668000000    15.994914619570
      Gh(H)          -0.721929000000    -2.218123000000    -0.066292000000     1.007825032230
      Gh(H)          -1.485195000000    -3.443926000000     0.484674000000     1.007825032230
      Gh(O)           0.210699000000    -0.756624000000     3.212958000000    15.994914619570
      Gh(H)          -0.457413000000    -0.410318000000     3.755700000000     1.007825032230
      Gh(H)          -0.069501000000    -0.614574000000     2.311108000000     1.007825032230
      Gh(O)          -2.962023000000    -1.017792000000    -1.096322000000    15.994914619570
      Gh(H)          -3.354668000000    -1.449903000000    -0.277945000000     1.007825032230
      Gh(H)          -2.162494000000    -0.558488000000    -0.874702000000     1.007825032230
      Gh(O)           2.892807000000    -1.828066000000    -0.264556000000    15.994914619570
      Gh(H)           2.681291000000    -1.012210000000     0.216583000000     1.007825032230
      Gh(H)           2.150125000000    -2.389570000000    -0.124064000000     1.007825032230

  Charge       = -1
  Multiplicity = 1
  Basis Set: AUG-CC-PVTZ
    Blend: AUG-CC-PVTZ
  Basis Set: (AUG-CC-PVTZ AUX)
    Blend: AUG-CC-PVTZ-JKFIT

    Orbital Energies [Eh]
    ---------------------

    Doubly Occupied:

       1A   -489.722338     2A    -64.861881     3A    -58.216421
       4A    -58.216420     5A    -58.216420     6A     -9.533318
       7A     -7.140648     8A     -7.140642     9A     -7.140634
      10A     -2.882366    11A     -2.882359    12A     -2.882355
      13A     -2.882335    14A     -2.882315    15A     -0.685991
      16A     -0.139336    17A     -0.139334    18A     -0.139332

  @DF-RHF Final Energy: -2572.53373202633429

   => Energetics <=

    Nuclear Repulsion Energy =              0.0000000000000000
    One-Electron Energy =               -3593.6585759887839231
    Two-Electron Energy =                1021.1248439624500861
    Total Energy =                      -2572.5337320263338370
 Dipole X            :          0.0000360            0.0000000            0.0000360
 Dipole Y            :         -0.0002515            0.0000000           -0.0002515
 Dipole Z            :         -0.0000876            0.0000000           -0.0000876
 Magnitude           :                                                    0.0002688
  Basis Set: (AUG-CC-PVTZ AUX)
    Blend: AUG-CC-PVTZ-RI
	 Reference Energy          =   -2572.5337320263342917 [Eh]
	 Singles Energy            =      -0.0000000000000000 [Eh]
	 Same-Spin Energy          =      -0.0916703966313748 [Eh]
	 Opposite-Spin Energy      =      -0.2134659005914778 [Eh]
	 Correlation Energy        =      -0.3051362972228526 [Eh]
	 Total Energy              =   -2572.8388683235571079 [Eh]

	 ================> DF-SCS-MP2 Energies <==================
	-----------------------------------------------------------
	 SCS Same-Spin Scale       =       0.3333333333333333 [-]
	 SCS Opposite-Spin Scale   =       1.2000000000000000 [-]
	 SCS Same-Spin Energy      =      -0.0305567988771249 [Eh]
	 SCS Opposite-Spin Energy  =      -0.2561590807097733 [Eh]
	 SCS Correlation Energy    =      -0.2867158795868983 [Eh]
	 SCS Total Energy          =   -2572.8204479059213554 [Eh]
	-----------------------------------------------------------

*** Psi4 exiting successfully. Buy a developer a beer!
