                               Psi4 1.9 release

  ==> Input File <==

--------------------------------------------------------------------------
MEMORY 60 GB

molecule dimer {
-1 1
Br     0.000000     0.000000     0.000000
--
0 1
O     -2.018814     1.297243     2.271203
H     -1.624924     1.929481     2.858206
H     -1.319651     1.058009     1.655548
O      2.992256     0.142962     1.185442
H      2.076229    -0.027513     0.900949
H      3.011154     0.890364     1.822388
O      1.638357    -0.919045    -3.055647
H      2.042760    -0.288329    -3.647520
H      1.415696    -0.537243    -2.199502

units ang
no_reorient
no_com
symmetry c1
}

set {
basis        aug-cc-pVTZ
scf_type     df
}

energy("mp2", bsse_type="cp")
--------------------------------------------------------------------------

                               Psi4 1.9 release
    Molecular point group: c1
  Charge       = 0
  Multiplicity = 1
  Basis Set: AUG-CC-PVTZ
    Blend: AUG-CC-PVTZ
  Basis Set: (AUG-CC-PVTZ AUX)
    Blend: AUG-CC-PVTZ-JKFIT
  @DF-RHF Final Energy:  -228.17539150272378
    Total Energy =                       -228.1753915027237838
 Dipole X            :        -49.7956194           50.0695334            0.2739140
 Dipole Y            :        -12.2644793           13.5947823            1.3303030
 Dipole Z            :         -8.2816086            8.6890609            0.4074523
 Magnitude           :                                                    1.4180100
  Basis Set: (AUG-CC-PVTZ AUX)
    Blend: AUG-CC-PVTZ-RI
	 Reference Energy          =    -228.1753915027237838 [Eh]
	 Singles Energy            =      -0.0000000000000000 [Eh]
	 Same-Spin Energy          =      -0.2054635733478165 [Eh]
	 Opposite-Spin Energy      =      -0.6476648491250566 [Eh]
	 Correlation Energy        =      -0.8531284224728731 [Eh]
	 Total Energy              =    -229.0285199251966617 [Eh]
	 SCS Total Energy          =    -229.0210771794564550 [Eh]
                               Psi4 1.9 release
    Molecular point group: c1
  Multiplicity = 1
  Basis Set: AUG-CC-PVTZ
    Blend: AUG-CC-PVTZ
  Basis Set: (AUG-CC-PVTZ AUX)
    Blend: AUG-CC-PVTZ-JKFIT
  @DF-RHF Final Energy: -2572.53370943136633
    Total Energy =                      -2572.5337094313663329
  Basis Set: (AUG-CC-PVTZ AUX)
	 Singles Energy            =      -0.0000000000000000 [Eh]
	 Same-Spin Energy          =      -0.0898607902534213 [Eh]
	 Opposite-Spin Energy      =      -0.2090329722746157 [Eh]
	 Correlation Energy        =      -0.2988937625280370 [Eh]
	 Total Energy              =   -2572.8326031938945562 [Eh]
	 SCS Total Energy          =   -2572.8145025948469993 [Eh]
                               Psi4 1.9 release
    Molecular point group: c1

    Geometry (in Bohr), charge = -1, multiplicity = 1:

       Center              X                  Y                   Z               Mass
    ------------   -----------------  -----------------  -----------------  -----------------
         BR           0.000000000000     0.000000000000     0.000000000000    78.918337600000
         O           -3.815005558240     2.451433988167     4.291951645318    15.994914619570
         H           -3.070661334683     3.646190654274     5.401226550140     1.007825032230
         H           -2.493778971187     1.999347248270     3.128532307549     1.007825032230
         O            5.654544337258     0.270159026348     2.240160717615    15.994914619570
         H            3.923504183733    -0.051992034890     1.702546863005     1.007825032230
         H            5.690256381577     1.682544111967     3.443814214321     1.007825032230
         O            3.096046025727    -1.736743346971    -5.774335966077    15.994914619570
         H            3.860256940040    -0.544862844027    -6.892813837130     1.007825032230
         H            2.675277716906    -1.015242132819    -4.156456392397     1.007825032230

  Charge       = -1
  Multiplicity = 1
  Basis Set: AUG-CC-PVTZ
    Blend: AUG-CC-PVTZ
  Basis Set: (AUG-CC-PVTZ AUX)
    Blend: AUG-CC-PVTZ-JKFIT

    Orbital Energies [Eh]
    ---------------------

    Doubly Occupied:

       1A   -489.768973     2A    -64.909401     3A    -58.263896
       4A    -58.263881     5A    -58.263868     6A    -20.417915
       7A    -20.409993     8A    -20.403032     9A     -9.581826
      10A     -7.189452    11A     -7.189315    12A     -7.189119
      13A     -2.931109    14A     -2.931064    15A     -2.930868
      16A     -2.930699    17A     -2.930670    18A     -1.202629
      19A     -1.201218    20A     -1.178974    21A     -0.746636
      22A     -0.587270    23A     -0.567638    24A     -0.556730
      25A     -0.435059    26A     -0.426995    27A     -0.415601
      28A     -0.364196    29A     -0.357939    30A     -0.347308
      31A     -0.199191    32A     -0.194587    33A     -0.190317

  @DF-RHF Final Energy: -2800.74546724057518

   => Energetics <=

    Nuclear Repulsion Energy =            226.8676427582175279
    One-Electron Energy =               -4364.2714794788444124
    Two-Electron Energy =                1336.6583694800513058
    Total Energy =                      -2800.7454672405756355
 Dipole X            :        -50.2195655           50.0695334           -0.1500321
 Dipole Y            :        -12.4908039           13.5947823            1.1039784
 Dipole Z            :         -8.5397753            8.6890609            0.1492856
 Magnitude           :                                                    1.1240837
  Basis Set: (AUG-CC-PVTZ AUX)
    Blend: AUG-CC-PVTZ-RI
	 Reference Energy          =   -2800.7454672405751808 [Eh]
	 Singles Energy            =      -0.0000000000000000 [Eh]
	 Same-Spin Energy          =      -0.3020715540165413 [Eh]
	 Opposite-Spin Energy      =      -0.8620063560645079 [Eh]
	 Correlation Energy        =      -1.1640779100810492 [Eh]
	 Total Energy              =   -2801.9095451506564132 [Eh]

	 ================> DF-SCS-MP2 Energies <==================
	-----------------------------------------------------------
	 SCS Same-Spin Scale       =       0.3333333333333333 [-]
	 SCS Opposite-Spin Scale   =       1.2000000000000000 [-]
	 SCS Same-Spin Energy      =      -0.1006905180055138 [Eh]
	 SCS Opposite-Spin Energy  =      -1.0344076272774094 [Eh]
	 SCS Correlation Energy    =      -1.1350981452829232 [Eh]
	 SCS Total Energy          =   -2801.8805653858580627 [Eh]
	-----------------------------------------------------------

*** Psi4 exiting successfully. Buy a developer a beer!
