                               Psi4 1.8.2 release

  ==> Input File <==

--------------------------------------------------------------------------
MEMORY 60 GB

molecule dimer {
-1 1
Br         0.000000     0.000000     0.000000
O         -0.379237     2.882694    -2.014268
H          0.562370     3.245775    -1.893921
H         -0.429436     2.146345    -1.405238
O          0.265547    -2.152641    -2.556446
H          0.109230    -1.512354    -1.853273
H         -0.395724    -2.804868    -2.310221
O          2.476012     1.824756     1.189733
H          1.692344     1.651069     0.621015
H          2.748789     2.618981     0.811553
O          2.562109    -2.156767    -0.903197
H          2.064666    -2.905687    -1.220072
H          1.839878    -1.556832    -0.648916

units ang
no_reorient
no_com
symmetry c1
}

set {
basis        aug-cc-pVTZ
scf_type     df
}

energy("mp2")
--------------------------------------------------------------------------

    Molecular point group: c1

    Geometry (in Angstrom), charge = -1, multiplicity = 1:

       Center              X                  Y                   Z               Mass
    ------------   -----------------  -----------------  -----------------  -----------------
         BR           0.000000000000     0.000000000000     0.000000000000    78.918337600000
         O           -0.379237000000     2.882694000000    -2.014268000000    15.994914619570
         H            0.562370000000     3.245775000000    -1.893921000000     1.007825032230
         H           -0.429436000000     2.146345000000    -1.405238000000     1.007825032230
         O            0.265547000000    -2.152641000000    -2.556446000000    15.994914619570
         H            0.109230000000    -1.512354000000    -1.853273000000     1.007825032230
         H           -0.395724000000    -2.804868000000    -2.310221000000     1.007825032230
         O            2.476012000000     1.824756000000     1.189733000000    15.994914619570
         H            1.692344000000     1.651069000000     0.621015000000     1.007825032230
         H            2.748789000000     2.618981000000     0.811553000000     1.007825032230
         O            2.562109000000    -2.156767000000    -0.903197000000    15.994914619570
         H            2.064666000000    -2.905687000000    -1.220072000000     1.007825032230
         H            1.839878000000    -1.556832000000    -0.648916000000     1.007825032230

  Charge       = -1
  Multiplicity = 1
  Basis Set: AUG-CC-PVTZ
    Blend: AUG-CC-PVTZ
  Basis Set: (AUG-CC-PVTZ AUX)
    Blend: AUG-CC-PVTZ-JKFIT

    Orbital Energies [Eh]
    ---------------------

    Doubly Occupied:

       1A   -489.785542     2A    -64.925936     3A    -58.280461
       4A    -58.280415     5A    -58.280394     6A    -20.434178
       7A    -20.424220     8A    -20.420966     9A    -20.398535
      10A     -9.598260    11A     -7.206010    12A     -7.205641
      13A     -7.205545    14A     -2.947667    15A     -2.947562
      16A     -2.947414    17A     -2.946978    18A     -2.946972
      19A     -1.217372    20A     -1.216089    21A     -1.203735
      22A     -1.186121    23A     -0.763600    24A     -0.567554
      25A     -0.566612    26A     -0.563377    27A     -0.541306
      28A     -0.458506    29A     -0.455485    30A     -0.446734
      31A     -0.435941    32A     -0.373243    33A     -0.370826
      34A     -0.368062    35A     -0.340602    36A     -0.216089
      37A     -0.209707    38A     -0.209185

  @DF-RHF Final Energy: -2876.80543985317627

   => Energetics <=

    Nuclear Repulsion Energy =            331.8911030400835216
    One-Electron Energy =               -4679.6074018058279762
    Two-Electron Energy =                1470.9108589125685285
    Total Energy =                      -2876.8054398531762672
 Dipole X            :        -91.4553435           89.9274648           -1.5278787
 Dipole Y            :         -7.6573446            7.6850721            0.0277275
 Dipole Z            :         80.5648435          -79.6944694            0.8703742
 Magnitude           :                                                    1.7586169
  Basis Set: (AUG-CC-PVTZ AUX)
    Blend: AUG-CC-PVTZ-RI
	 Reference Energy          =   -2876.8054398531762672 [Eh]
	 Singles Energy            =      -0.0000000000000000 [Eh]
	 Same-Spin Energy          =      -0.3746063195009080 [Eh]
	 Opposite-Spin Energy      =      -1.0845078843713072 [Eh]
	 Correlation Energy        =      -1.4591142038722151 [Eh]
	 Total Energy              =   -2878.2645540570483718 [Eh]

	 ================> DF-SCS-MP2 Energies <==================
	-----------------------------------------------------------
	 SCS Same-Spin Scale       =       0.3333333333333333 [-]
	 SCS Opposite-Spin Scale   =       1.2000000000000000 [-]
	 SCS Same-Spin Energy      =      -0.1248687731669693 [Eh]
	 SCS Opposite-Spin Energy  =      -1.3014094612455687 [Eh]
	 SCS Correlation Energy    =      -1.4262782344125380 [Eh]
	 SCS Total Energy          =   -2878.2317180875888880 [Eh]
	-----------------------------------------------------------

*** Psi4 exiting successfully. Buy a developer a beer!
