                               Psi4 1.8.2 release

  ==> Input File <==

--------------------------------------------------------------------------
MEMORY 60 GB

molecule dimer {
0 1
Gh(Br)     0.000000     0.000000     0.000000
Gh(O)     -0.389734    -0.598419    -3.176388
Gh(H)     -0.465508     0.292966    -3.519841
Gh(H)      0.113003    -0.512129    -2.347686
O          1.397414     3.038515     0.513452
H          0.940691     3.150955     1.319867
H          1.055355     2.289705     0.200989
Gh(O)      1.276458    -2.240841     2.084055
Gh(H)      2.053789    -2.628877     1.781351
Gh(H)      0.942450    -1.517205     1.560668
Gh(O)      2.870105    -1.015920    -1.248286
Gh(H)      3.514743    -0.967933    -0.518971
Gh(H)      2.050698    -0.852438    -0.717526
Gh(O)     -1.016719     3.064452    -1.085676
Gh(H)     -1.384642     2.386952    -1.618609
Gh(H)     -0.007287     3.049352    -1.229396

units ang
no_reorient
no_com
symmetry c1
}

set {
basis        aug-cc-pVTZ
scf_type     df
}

energy("mp2")
--------------------------------------------------------------------------

    Molecular point group: c1

    Geometry (in Angstrom), charge = 0, multiplicity = 1:

       Center              X                  Y                   Z               Mass
    ------------   -----------------  -----------------  -----------------  -----------------
      Gh(BR)          0.000000000000     0.000000000000     0.000000000000    78.918337600000
      Gh(O)          -0.389734000000    -0.598419000000    -3.176388000000    15.994914619570
      Gh(H)          -0.465508000000     0.292966000000    -3.519841000000     1.007825032230
      Gh(H)           0.113003000000    -0.512129000000    -2.347686000000     1.007825032230
         O            1.397414000000     3.038515000000     0.513452000000    15.994914619570
         H            0.940691000000     3.150955000000     1.319867000000     1.007825032230
         H            1.055355000000     2.289705000000     0.200989000000     1.007825032230
      Gh(O)           1.276458000000    -2.240841000000     2.084055000000    15.994914619570
      Gh(H)           2.053789000000    -2.628877000000     1.781351000000     1.007825032230
      Gh(H)           0.942450000000    -1.517205000000     1.560668000000     1.007825032230
      Gh(O)           2.870105000000    -1.015920000000    -1.248286000000    15.994914619570
      Gh(H)           3.514743000000    -0.967933000000    -0.518971000000     1.007825032230
      Gh(H)           2.050698000000    -0.852438000000    -0.717526000000     1.007825032230
      Gh(O)          -1.016719000000     3.064452000000    -1.085676000000    15.994914619570
      Gh(H)          -1.384642000000     2.386952000000    -1.618609000000     1.007825032230
      Gh(H)          -0.007287000000     3.049352000000    -1.229396000000     1.007825032230

  Charge       = 0
  Multiplicity = 1
  Basis Set: AUG-CC-PVTZ
    Blend: AUG-CC-PVTZ
  Basis Set: (AUG-CC-PVTZ AUX)
    Blend: AUG-CC-PVTZ-JKFIT

    Orbital Energies [Eh]
    ---------------------

    Doubly Occupied:

       1A    -20.558358     2A     -1.383528     3A     -0.742418
       4A     -0.598002     5A     -0.515379

  @DF-RHF Final Energy:   -76.05594185206309

   => Energetics <=

    Nuclear Repulsion Energy =              9.7159718058297404
    One-Electron Energy =                -123.9484559123689280
    Two-Electron Energy =                  38.1765422544760966
    Total Energy =                        -76.0559418520630857
 Dipole X            :        -25.4427004           24.8978182           -0.5448822
 Dipole Y            :        -56.6581629           56.2170468           -0.4411162
 Dipole Z            :        -10.3067045           10.6362706            0.3295661
 Magnitude           :                                                    0.7746572
  Basis Set: (AUG-CC-PVTZ AUX)
    Blend: AUG-CC-PVTZ-RI
	 Reference Energy          =     -76.0559418520630857 [Eh]
	 Singles Energy            =      -0.0000000000000000 [Eh]
	 Same-Spin Energy          =      -0.0675765507314670 [Eh]
	 Opposite-Spin Energy      =      -0.2136977331120208 [Eh]
	 Correlation Energy        =      -0.2812742838434877 [Eh]
	 Total Energy              =     -76.3372161359065728 [Eh]

	 ================> DF-SCS-MP2 Energies <==================
	-----------------------------------------------------------
	 SCS Same-Spin Scale       =       0.3333333333333333 [-]
	 SCS Opposite-Spin Scale   =       1.2000000000000000 [-]
	 SCS Same-Spin Energy      =      -0.0225255169104890 [Eh]
	 SCS Opposite-Spin Energy  =      -0.2564372797344249 [Eh]
	 SCS Correlation Energy    =      -0.2789627966449139 [Eh]
	 SCS Total Energy          =     -76.3349046487080045 [Eh]
	-----------------------------------------------------------

*** Psi4 exiting successfully. Buy a developer a beer!
