                               Psi4 1.8.2 release

  ==> Input File <==

--------------------------------------------------------------------------
MEMORY 60 GB

molecule dimer {
-1 1
Br         0.000000     0.000000     0.000000
O          1.877253    -0.925629    -2.503878
H          1.568959    -0.369866    -1.756608
H          1.769866    -1.829815    -2.152507
O          0.170065     2.901916    -1.500734
H         -0.216467     2.541833    -2.272789
H          0.178509     2.130837    -0.924963
O          0.283163    -1.282719     3.211734
H          0.144151    -0.907789     2.345728
H         -0.490220    -1.053040     3.745017
O          3.272579    -0.761567     0.566827
H          2.477722    -0.224904     0.466952
H          2.968580    -1.638178     0.298848
O          0.955461     2.446042     2.162195
H          0.814632     1.637742     1.624264
H          0.875880     2.278959     3.123204
O         -1.258581    -1.316716    -3.035756
H         -2.002288    -0.752139    -3.089390
H         -0.819194    -1.250416    -2.138434

units ang
no_reorient
no_com
symmetry c1
}

set {
basis        aug-cc-pVTZ
scf_type     df
}

energy("mp2")
--------------------------------------------------------------------------

    Molecular point group: c1

    Geometry (in Angstrom), charge = -1, multiplicity = 1:

       Center              X                  Y                   Z               Mass
    ------------   -----------------  -----------------  -----------------  -----------------
         BR           0.000000000000     0.000000000000     0.000000000000    78.918337600000
         O            1.877253000000    -0.925629000000    -2.503878000000    15.994914619570
         H            1.568959000000    -0.369866000000    -1.756608000000     1.007825032230
         H            1.769866000000    -1.829815000000    -2.152507000000     1.007825032230
         O            0.170065000000     2.901916000000    -1.500734000000    15.994914619570
         H           -0.216467000000     2.541833000000    -2.272789000000     1.007825032230
         H            0.178509000000     2.130837000000    -0.924963000000     1.007825032230
         O            0.283163000000    -1.282719000000     3.211734000000    15.994914619570
         H            0.144151000000    -0.907789000000     2.345728000000     1.007825032230
         H           -0.490220000000    -1.053040000000     3.745017000000     1.007825032230
         O            3.272579000000    -0.761567000000     0.566827000000    15.994914619570
         H            2.477722000000    -0.224904000000     0.466952000000     1.007825032230
         H            2.968580000000    -1.638178000000     0.298848000000     1.007825032230
         O            0.955461000000     2.446042000000     2.162195000000    15.994914619570
         H            0.814632000000     1.637742000000     1.624264000000     1.007825032230
         H            0.875880000000     2.278959000000     3.123204000000     1.007825032230
         O           -1.258581000000    -1.316716000000    -3.035756000000    15.994914619570
         H           -2.002288000000    -0.752139000000    -3.089390000000     1.007825032230
         H           -0.819194000000    -1.250416000000    -2.138434000000     1.007825032230

  Charge       = -1
  Multiplicity = 1
  Basis Set: AUG-CC-PVTZ
    Blend: AUG-CC-PVTZ
  Basis Set: (AUG-CC-PVTZ AUX)
    Blend: AUG-CC-PVTZ-JKFIT

    Orbital Energies [Eh]
    ---------------------

    Doubly Occupied:

       1A   -489.822532     2A    -64.963279     3A    -58.317767
       4A    -58.317739     5A    -58.317723     6A    -20.442991
       7A    -20.433665     8A    -20.429047     9A    -20.427397
      10A    -20.424450    11A    -20.415833    12A     -9.635803
      13A     -7.243449    14A     -7.243360    15A     -7.243178
      16A     -2.985055    17A     -2.985043    18A     -2.984827
      19A     -2.984709    20A     -2.984652    21A     -1.228866
      22A     -1.215566    23A     -1.213760    24A     -1.212651
      25A     -1.201946    26A     -1.201624    27A     -0.807095
      28A     -0.600365    29A     -0.596022    30A     -0.586653
      31A     -0.573204    32A     -0.569311    33A     -0.561533
      34A     -0.461480    35A     -0.457885    36A     -0.451688
      37A     -0.446493    38A     -0.442056    39A     -0.432505
      40A     -0.388404    41A     -0.383507    42A     -0.374377
      43A     -0.371033    44A     -0.365262    45A     -0.359754
      46A     -0.253168    47A     -0.251216    48A     -0.248000

  @DF-RHF Final Energy: -3028.94012597036044

   => Energetics <=

    Nuclear Repulsion Energy =            566.5289124399415641
    One-Electron Energy =               -5359.2222318989388441
    Two-Electron Energy =                1763.7531934886369527
    Total Energy =                      -3028.9401259703604410
 Dipole X            :        -96.4574368           93.8620352           -2.5954015
 Dipole Y            :        -18.1875866           17.1092780           -1.0783087
 Dipole Z            :         18.9991837          -18.0045055            0.9946782
 Magnitude           :                                                    2.9813157
  Basis Set: (AUG-CC-PVTZ AUX)
    Blend: AUG-CC-PVTZ-RI
	 Reference Energy          =   -3028.9401259703604410 [Eh]
	 Singles Energy            =      -0.0000000000000000 [Eh]
	 Same-Spin Energy          =      -0.5174892291666940 [Eh]
	 Opposite-Spin Energy      =      -1.5242767406261113 [Eh]
	 Correlation Energy        =      -2.0417659697928054 [Eh]
	 Total Energy              =   -3030.9818919401532185 [Eh]

	 ================> DF-SCS-MP2 Energies <==================
	-----------------------------------------------------------
	 SCS Same-Spin Scale       =       0.3333333333333333 [-]
	 SCS Opposite-Spin Scale   =       1.2000000000000000 [-]
	 SCS Same-Spin Energy      =      -0.1724964097222313 [Eh]
	 SCS Opposite-Spin Energy  =      -1.8291320887513334 [Eh]
	 SCS Correlation Energy    =      -2.0016284984735648 [Eh]
	 SCS Total Energy          =   -3030.9417544688340058 [Eh]
	-----------------------------------------------------------

*** Psi4 exiting successfully. Buy a developer a beer!
