                               Psi4 1.8.2 release

  ==> Input File <==

--------------------------------------------------------------------------
MEMORY 60 GB

molecule dimer {
-1 1
Br         0.000000     0.000000     0.000000
O         -2.114396    -0.823968    -2.451740
H         -1.344934    -0.815549    -1.892709
H         -2.578301    -1.686826    -2.349784
O         -2.840106    -0.818403     1.694288
H         -2.923211    -1.709126     1.352216
H         -1.976154    -0.530056     1.405183
O          0.359761    -1.678973     2.757291
H          0.155656    -1.071042     3.436648
H          0.309349    -1.206416     1.893897
O         -0.002582    -3.436636     0.122679
H         -0.128662    -2.474547     0.122748
H          0.840782    -3.640659    -0.311875
O          3.119434    -1.374833    -0.676470
H          2.298457    -1.110581    -0.190519
H          3.320939    -2.236567    -0.244513

units ang
no_reorient
no_com
symmetry c1
}

set {
basis        aug-cc-pVTZ
scf_type     df
}

energy("mp2")
--------------------------------------------------------------------------

    Molecular point group: c1

    Geometry (in Angstrom), charge = -1, multiplicity = 1:

       Center              X                  Y                   Z               Mass
    ------------   -----------------  -----------------  -----------------  -----------------
         BR           0.000000000000     0.000000000000     0.000000000000    78.918337600000
         O           -2.114396000000    -0.823968000000    -2.451740000000    15.994914619570
         H           -1.344934000000    -0.815549000000    -1.892709000000     1.007825032230
         H           -2.578301000000    -1.686826000000    -2.349784000000     1.007825032230
         O           -2.840106000000    -0.818403000000     1.694288000000    15.994914619570
         H           -2.923211000000    -1.709126000000     1.352216000000     1.007825032230
         H           -1.976154000000    -0.530056000000     1.405183000000     1.007825032230
         O            0.359761000000    -1.678973000000     2.757291000000    15.994914619570
         H            0.155656000000    -1.071042000000     3.436648000000     1.007825032230
         H            0.309349000000    -1.206416000000     1.893897000000     1.007825032230
         O           -0.002582000000    -3.436636000000     0.122679000000    15.994914619570
         H           -0.128662000000    -2.474547000000     0.122748000000     1.007825032230
         H            0.840782000000    -3.640659000000    -0.311875000000     1.007825032230
         O            3.119434000000    -1.374833000000    -0.676470000000    15.994914619570
         H            2.298457000000    -1.110581000000    -0.190519000000     1.007825032230
         H            3.320939000000    -2.236567000000    -0.244513000000     1.007825032230

  Charge       = -1
  Multiplicity = 1
  Basis Set: AUG-CC-PVTZ
    Blend: AUG-CC-PVTZ
  Basis Set: (AUG-CC-PVTZ AUX)
    Blend: AUG-CC-PVTZ-JKFIT

    Orbital Energies [Eh]
    ---------------------

    Doubly Occupied:

       1A   -489.801825     2A    -64.942397     3A    -58.296893
       4A    -58.296864     5A    -58.296846     6A    -20.441672
       7A    -20.428978     8A    -20.422676     9A    -20.417072
      10A    -20.410804    11A     -9.614823    12A     -7.222469
      13A     -7.222283    14A     -7.222184    15A     -2.964078
      16A     -2.964026    17A     -2.963899    18A     -2.963688
      19A     -2.963666    20A     -1.211600    21A     -1.209440
      22A     -1.207182    23A     -1.203332    24A     -1.200912
      25A     -0.784445    26A     -0.588742    27A     -0.580310
      28A     -0.574417    29A     -0.572238    30A     -0.565189
      31A     -0.460356    32A     -0.443863    33A     -0.442860
      34A     -0.435685    35A     -0.432247    36A     -0.379757
      37A     -0.373616    38A     -0.369361    39A     -0.366089
      40A     -0.355462    41A     -0.230992    42A     -0.228825
      43A     -0.228137

  @DF-RHF Final Energy: -2952.87622980718970

   => Energetics <=

    Nuclear Repulsion Energy =            452.3145097743356473
    One-Electron Energy =               -5025.7770695395129223
    Two-Electron Energy =                1620.5863299579882550
    Total Energy =                      -2952.8762298071892474
 Dipole X            :         26.8828781          -26.1711780            0.7117001
 Dipole Y            :        154.9195490         -154.0955872            0.8239618
 Dipole Z            :        -28.0043573           27.9484371           -0.0559202
 Magnitude           :                                                    1.0902096
  Basis Set: (AUG-CC-PVTZ AUX)
    Blend: AUG-CC-PVTZ-RI
	 Reference Energy          =   -2952.8762298071897021 [Eh]
	 Singles Energy            =      -0.0000000000000000 [Eh]
	 Same-Spin Energy          =      -0.4468195519617502 [Eh]
	 Opposite-Spin Energy      =      -1.3057631090421637 [Eh]
	 Correlation Energy        =      -1.7525826610039139 [Eh]
	 Total Energy              =   -2954.6288124681937006 [Eh]

	 ================> DF-SCS-MP2 Energies <==================
	-----------------------------------------------------------
	 SCS Same-Spin Scale       =       0.3333333333333333 [-]
	 SCS Opposite-Spin Scale   =       1.2000000000000000 [-]
	 SCS Same-Spin Energy      =      -0.1489398506539167 [Eh]
	 SCS Opposite-Spin Energy  =      -1.5669157308505965 [Eh]
	 SCS Correlation Energy    =      -1.7158555815045133 [Eh]
	 SCS Total Energy          =   -2954.5920853886941586 [Eh]
	-----------------------------------------------------------

*** Psi4 exiting successfully. Buy a developer a beer!
