                               Psi4 1.8.2 release

  ==> Input File <==

--------------------------------------------------------------------------
MEMORY 60 GB

molecule dimer {
0 1
Gh(Br)     0.000000     0.000000     0.000000
O         -0.134210     2.411128    -2.072805
H          0.609473     1.830673    -2.287997
H         -0.403434     2.300933    -1.141755
Gh(O)     -1.310303    -2.052809     2.019950
Gh(H)     -0.550126    -2.646822     1.949115
Gh(H)     -1.196439    -1.381497     1.375027
Gh(O)     -3.132579     0.001629    -1.095278
Gh(H)     -2.256450    -0.233826    -0.636847
Gh(H)     -2.985203    -0.177030    -2.038425

units ang
no_reorient
no_com
symmetry c1
}

set {
basis        aug-cc-pVTZ
scf_type     df
}

energy("mp2")
--------------------------------------------------------------------------

    Molecular point group: c1

    Geometry (in Angstrom), charge = 0, multiplicity = 1:

       Center              X                  Y                   Z               Mass
    ------------   -----------------  -----------------  -----------------  -----------------
      Gh(BR)          0.000000000000     0.000000000000     0.000000000000    78.918337600000
         O           -0.134210000000     2.411128000000    -2.072805000000    15.994914619570
         H            0.609473000000     1.830673000000    -2.287997000000     1.007825032230
         H           -0.403434000000     2.300933000000    -1.141755000000     1.007825032230
      Gh(O)          -1.310303000000    -2.052809000000     2.019950000000    15.994914619570
      Gh(H)          -0.550126000000    -2.646822000000     1.949115000000     1.007825032230
      Gh(H)          -1.196439000000    -1.381497000000     1.375027000000     1.007825032230
      Gh(O)          -3.132579000000     0.001629000000    -1.095278000000    15.994914619570
      Gh(H)          -2.256450000000    -0.233826000000    -0.636847000000     1.007825032230
      Gh(H)          -2.985203000000    -0.177030000000    -2.038425000000     1.007825032230

  Charge       = 0
  Multiplicity = 1
  Basis Set: AUG-CC-PVTZ
    Blend: AUG-CC-PVTZ
  Basis Set: (AUG-CC-PVTZ AUX)
    Blend: AUG-CC-PVTZ-JKFIT

    Orbital Energies [Eh]
    ---------------------

    Doubly Occupied:

       1A    -20.566664     2A     -1.341981     3A     -0.721555
       4A     -0.569894     5A     -0.507205

  @DF-RHF Final Energy:   -76.05849439265667

   => Energetics <=

    Nuclear Repulsion Energy =              9.0457461079562069
    One-Electron Energy =                -122.7938786162925453
    Two-Electron Energy =                  37.6896381156796636
    Total Energy =                        -76.0584943926566837
 Dipole X            :          1.9593187           -1.6396039            0.3197149
 Dipole Y            :        -44.7232470           44.2585764           -0.4646707
 Dipole Z            :         38.2984402          -37.8175621            0.4808781
 Magnitude           :                                                    0.7412019
  Basis Set: (AUG-CC-PVTZ AUX)
    Blend: AUG-CC-PVTZ-RI
	 Reference Energy          =     -76.0584943926566694 [Eh]
	 Singles Energy            =      -0.0000000000000000 [Eh]
	 Same-Spin Energy          =      -0.0685304671238354 [Eh]
	 Opposite-Spin Energy      =      -0.2158758021959591 [Eh]
	 Correlation Energy        =      -0.2844062693197945 [Eh]
	 Total Energy              =     -76.3429006619764579 [Eh]

	 ================> DF-SCS-MP2 Energies <==================
	-----------------------------------------------------------
	 SCS Same-Spin Scale       =       0.3333333333333333 [-]
	 SCS Opposite-Spin Scale   =       1.2000000000000000 [-]
	 SCS Same-Spin Energy      =      -0.0228434890412785 [Eh]
	 SCS Opposite-Spin Energy  =      -0.2590509626351509 [Eh]
	 SCS Correlation Energy    =      -0.2818944516764293 [Eh]
	 SCS Total Energy          =     -76.3403888443331056 [Eh]
	-----------------------------------------------------------

*** Psi4 exiting successfully. Buy a developer a beer!
