                               Psi4 1.8.2 release

  ==> Input File <==

--------------------------------------------------------------------------
MEMORY 60 GB

molecule dimer {
0 1
Gh(Br)     0.000000     0.000000     0.000000
O          2.375991     1.403050     1.759821
H          1.608804     1.035722     1.188101
H          3.062120     1.668836     1.129100
Gh(O)      2.883715    -1.624042    -0.731104
Gh(H)      3.463684    -1.974029    -0.037743
Gh(H)      2.061357    -1.406903    -0.251967

units ang
no_reorient
no_com
symmetry c1
}

set {
basis        aug-cc-pVTZ
scf_type     df
}

energy("mp2")
--------------------------------------------------------------------------

    Molecular point group: c1

    Geometry (in Angstrom), charge = 0, multiplicity = 1:

       Center              X                  Y                   Z               Mass
    ------------   -----------------  -----------------  -----------------  -----------------
      Gh(BR)          0.000000000000     0.000000000000     0.000000000000    78.918337600000
         O            2.375991000000     1.403050000000     1.759821000000    15.994914619570
         H            1.608804000000     1.035722000000     1.188101000000     1.007825032230
         H            3.062120000000     1.668836000000     1.129100000000     1.007825032230
      Gh(O)           2.883715000000    -1.624042000000    -0.731104000000    15.994914619570
      Gh(H)           3.463684000000    -1.974029000000    -0.037743000000     1.007825032230
      Gh(H)           2.061357000000    -1.406903000000    -0.251967000000     1.007825032230

  Charge       = 0
  Multiplicity = 1
  Basis Set: AUG-CC-PVTZ
    Blend: AUG-CC-PVTZ
  Basis Set: (AUG-CC-PVTZ AUX)
    Blend: AUG-CC-PVTZ-JKFIT

    Orbital Energies [Eh]
    ---------------------

    Doubly Occupied:

       1A    -20.573430     2A     -1.334095     3A     -0.698418
       4A     -0.575316     5A     -0.507027

  @DF-RHF Final Energy:   -76.05397538507177

   => Energetics <=

    Nuclear Repulsion Energy =              8.8324917222316497
    One-Electron Energy =                -122.3963632716610022
    Two-Electron Energy =                  37.5098961643575848
    Total Energy =                        -76.0539753850717659
 Dipole X            :        -44.7910575           44.7465452           -0.0445122
 Dipole Y            :        -26.3841691           26.3219158           -0.0622533
 Dipole Z            :        -31.7668204           30.9835130           -0.7833074
 Magnitude           :                                                    0.7870370
  Basis Set: (AUG-CC-PVTZ AUX)
    Blend: AUG-CC-PVTZ-RI
	 Reference Energy          =     -76.0539753850717659 [Eh]
	 Singles Energy            =      -0.0000000000000000 [Eh]
	 Same-Spin Energy          =      -0.0690411175530264 [Eh]
	 Opposite-Spin Energy      =      -0.2178127863851991 [Eh]
	 Correlation Energy        =      -0.2868539039382255 [Eh]
	 Total Energy              =     -76.3408292890099887 [Eh]

	 ================> DF-SCS-MP2 Energies <==================
	-----------------------------------------------------------
	 SCS Same-Spin Scale       =       0.3333333333333333 [-]
	 SCS Opposite-Spin Scale   =       1.2000000000000000 [-]
	 SCS Same-Spin Energy      =      -0.0230137058510088 [Eh]
	 SCS Opposite-Spin Energy  =      -0.2613753436622389 [Eh]
	 SCS Correlation Energy    =      -0.2843890495132477 [Eh]
	 SCS Total Energy          =     -76.3383644345850172 [Eh]
	-----------------------------------------------------------

*** Psi4 exiting successfully. Buy a developer a beer!
