                               Psi4 1.8.2 release

  ==> Input File <==

--------------------------------------------------------------------------
MEMORY 60 GB

molecule dimer {
0 1
Gh(Br)     0.000000     0.000000     0.000000
Gh(O)     -1.911432     2.433986     1.070897
Gh(H)     -1.555279     3.089706     1.640643
Gh(H)     -1.224968     1.718194     1.109894
O         -1.401665     2.429875    -1.811153
H         -1.959056     2.676358    -1.041095
H         -0.686385     1.866479    -1.500724
Gh(O)     -1.794280    -2.241072     2.073482
Gh(H)     -1.722283    -2.617890     2.966158
Gh(H)     -1.034366    -1.621705     2.007902
Gh(O)      2.505713    -0.505921     1.723979
Gh(H)      1.700403    -0.507406     1.113190
Gh(H)      2.107247    -0.320223     2.595222
Gh(O)      2.946339    -0.264625    -1.581763
Gh(H)      3.334716     0.559035    -1.244785
Gh(H)      2.261634    -0.356773    -0.924585

units ang
no_reorient
no_com
symmetry c1
}

set {
basis        aug-cc-pVTZ
scf_type     df
}

energy("mp2")
--------------------------------------------------------------------------

    Molecular point group: c1

    Geometry (in Angstrom), charge = 0, multiplicity = 1:

       Center              X                  Y                   Z               Mass
    ------------   -----------------  -----------------  -----------------  -----------------
      Gh(BR)          0.000000000000     0.000000000000     0.000000000000    78.918337600000
      Gh(O)          -1.911432000000     2.433986000000     1.070897000000    15.994914619570
      Gh(H)          -1.555279000000     3.089706000000     1.640643000000     1.007825032230
      Gh(H)          -1.224968000000     1.718194000000     1.109894000000     1.007825032230
         O           -1.401665000000     2.429875000000    -1.811153000000    15.994914619570
         H           -1.959056000000     2.676358000000    -1.041095000000     1.007825032230
         H           -0.686385000000     1.866479000000    -1.500724000000     1.007825032230
      Gh(O)          -1.794280000000    -2.241072000000     2.073482000000    15.994914619570
      Gh(H)          -1.722283000000    -2.617890000000     2.966158000000     1.007825032230
      Gh(H)          -1.034366000000    -1.621705000000     2.007902000000     1.007825032230
      Gh(O)           2.505713000000    -0.505921000000     1.723979000000    15.994914619570
      Gh(H)           1.700403000000    -0.507406000000     1.113190000000     1.007825032230
      Gh(H)           2.107247000000    -0.320223000000     2.595222000000     1.007825032230
      Gh(O)           2.946339000000    -0.264625000000    -1.581763000000    15.994914619570
      Gh(H)           3.334716000000     0.559035000000    -1.244785000000     1.007825032230
      Gh(H)           2.261634000000    -0.356773000000    -0.924585000000     1.007825032230

  Charge       = 0
  Multiplicity = 1
  Basis Set: AUG-CC-PVTZ
    Blend: AUG-CC-PVTZ
  Basis Set: (AUG-CC-PVTZ AUX)
    Blend: AUG-CC-PVTZ-JKFIT

    Orbital Energies [Eh]
    ---------------------

    Doubly Occupied:

       1A    -20.567897     2A     -1.343441     3A     -0.716945
       4A     -0.574480     5A     -0.507936

  @DF-RHF Final Energy:   -76.05886320683811

   => Energetics <=

    Nuclear Repulsion Energy =              9.0470789516405432
    One-Electron Energy =                -122.7904842741231448
    Two-Electron Energy =                  37.6845421156444900
    Total Energy =                        -76.0588632068381116
 Dipole X            :         26.2972575          -26.1892627            0.1079947
 Dipole Y            :        -45.5322114           45.3191039           -0.2131075
 Dipole Z            :         32.9038691          -32.1840069            0.7198622
 Magnitude           :                                                    0.7584717
  Basis Set: (AUG-CC-PVTZ AUX)
    Blend: AUG-CC-PVTZ-RI
	 Reference Energy          =     -76.0588632068381116 [Eh]
	 Singles Energy            =      -0.0000000000000000 [Eh]
	 Same-Spin Energy          =      -0.0685887154262928 [Eh]
	 Opposite-Spin Energy      =      -0.2164600108302377 [Eh]
	 Correlation Energy        =      -0.2850487262565305 [Eh]
	 Total Energy              =     -76.3439119330946454 [Eh]

	 ================> DF-SCS-MP2 Energies <==================
	-----------------------------------------------------------
	 SCS Same-Spin Scale       =       0.3333333333333333 [-]
	 SCS Opposite-Spin Scale   =       1.2000000000000000 [-]
	 SCS Same-Spin Energy      =      -0.0228629051420976 [Eh]
	 SCS Opposite-Spin Energy  =      -0.2597520129962853 [Eh]
	 SCS Correlation Energy    =      -0.2826149181383829 [Eh]
	 SCS Total Energy          =     -76.3414781249764900 [Eh]
	-----------------------------------------------------------

*** Psi4 exiting successfully. Buy a developer a beer!
