                               Psi4 1.8.2 release

  ==> Input File <==

--------------------------------------------------------------------------
MEMORY 60 GB

molecule dimer {
-1 1
Br         0.000000     0.000000     0.000000
O         -0.871621     3.438375     0.383857
H         -0.516984     2.572586     0.549013
H         -0.363617     4.028043     0.929764
O          1.138510     0.841363    -2.887618
H          0.694724     0.580199    -2.053917
H          2.017329     1.105167    -2.581160
O         -3.253094     1.026650    -0.425546
H         -3.390640     1.760968    -1.019761
H         -2.319946     0.849586    -0.372891
O         -0.964777    -1.798146    -2.591474
H         -0.682415    -1.413219    -1.710488
H         -1.809853    -2.198752    -2.407912
O          0.991667     1.473530     2.961882
H          1.085614     0.936924     2.131226
H          0.113098     1.201158     3.227799

units ang
no_reorient
no_com
symmetry c1
}

set {
basis        aug-cc-pVTZ
scf_type     df
}

energy("mp2")
--------------------------------------------------------------------------

    Molecular point group: c1

    Geometry (in Angstrom), charge = -1, multiplicity = 1:

       Center              X                  Y                   Z               Mass
    ------------   -----------------  -----------------  -----------------  -----------------
         BR           0.000000000000     0.000000000000     0.000000000000    78.918337600000
         O           -0.871621000000     3.438375000000     0.383857000000    15.994914619570
         H           -0.516984000000     2.572586000000     0.549013000000     1.007825032230
         H           -0.363617000000     4.028043000000     0.929764000000     1.007825032230
         O            1.138510000000     0.841363000000    -2.887618000000    15.994914619570
         H            0.694724000000     0.580199000000    -2.053917000000     1.007825032230
         H            2.017329000000     1.105167000000    -2.581160000000     1.007825032230
         O           -3.253094000000     1.026650000000    -0.425546000000    15.994914619570
         H           -3.390640000000     1.760968000000    -1.019761000000     1.007825032230
         H           -2.319946000000     0.849586000000    -0.372891000000     1.007825032230
         O           -0.964777000000    -1.798146000000    -2.591474000000    15.994914619570
         H           -0.682415000000    -1.413219000000    -1.710488000000     1.007825032230
         H           -1.809853000000    -2.198752000000    -2.407912000000     1.007825032230
         O            0.991667000000     1.473530000000     2.961882000000    15.994914619570
         H            1.085614000000     0.936924000000     2.131226000000     1.007825032230
         H            0.113098000000     1.201158000000     3.227799000000     1.007825032230

  Charge       = -1
  Multiplicity = 1
  Basis Set: AUG-CC-PVTZ
    Blend: AUG-CC-PVTZ
  Basis Set: (AUG-CC-PVTZ AUX)
    Blend: AUG-CC-PVTZ-JKFIT

    Orbital Energies [Eh]
    ---------------------

    Doubly Occupied:

       1A   -489.803812     2A    -64.944447     3A    -58.298940
       4A    -58.298917     5A    -58.298905     6A    -20.440263
       7A    -20.430459     8A    -20.415346     9A    -20.412430
      10A    -20.404795    11A     -9.616923    12A     -7.224651
      13A     -7.224338    14A     -7.224322    15A     -2.966220
      16A     -2.966110    17A     -2.966074    18A     -2.965764
      19A     -2.965752    20A     -1.223279    21A     -1.219419
      22A     -1.206104    23A     -1.190798    24A     -1.185714
      25A     -0.786424    26A     -0.591193    27A     -0.582136
      28A     -0.570763    29A     -0.556399    30A     -0.544368
      31A     -0.467430    32A     -0.454701    33A     -0.434703
      34A     -0.432719    35A     -0.429738    36A     -0.383435
      37A     -0.378072    38A     -0.363457    39A     -0.354949
      40A     -0.348649    41A     -0.234663    42A     -0.230827
      43A     -0.228587

  @DF-RHF Final Energy: -2952.88244114224608

   => Energetics <=

    Nuclear Repulsion Energy =            443.2377328994526806
    One-Electron Energy =               -5007.7063515116124108
    Two-Electron Energy =                1611.5861774699137641
    Total Energy =                      -2952.8824411422460798
 Dipole X            :         55.2126966          -54.5133264            0.6993702
 Dipole Y            :        -93.8122020           93.1197244           -0.6924776
 Dipole Z            :         46.4200361          -44.9367783            1.4832578
 Magnitude           :                                                    1.7800837
  Basis Set: (AUG-CC-PVTZ AUX)
    Blend: AUG-CC-PVTZ-RI
	 Reference Energy          =   -2952.8824411422460798 [Eh]
	 Singles Energy            =      -0.0000000000000000 [Eh]
	 Same-Spin Energy          =      -0.4458398511985091 [Eh]
	 Opposite-Spin Energy      =      -1.3036138453595412 [Eh]
	 Correlation Energy        =      -1.7494536965580503 [Eh]
	 Total Energy              =   -2954.6318948388043282 [Eh]

	 ================> DF-SCS-MP2 Energies <==================
	-----------------------------------------------------------
	 SCS Same-Spin Scale       =       0.3333333333333333 [-]
	 SCS Opposite-Spin Scale   =       1.2000000000000000 [-]
	 SCS Same-Spin Energy      =      -0.1486132837328364 [Eh]
	 SCS Opposite-Spin Energy  =      -1.5643366144314494 [Eh]
	 SCS Correlation Energy    =      -1.7129498981642859 [Eh]
	 SCS Total Energy          =   -2954.5953910404105045 [Eh]
	-----------------------------------------------------------

*** Psi4 exiting successfully. Buy a developer a beer!
