                               Psi4 1.8.2 release

  ==> Input File <==

--------------------------------------------------------------------------
MEMORY 60 GB

molecule dimer {
0 1
Gh(Br)     0.000000     0.000000     0.000000
Gh(O)     -1.840831    -1.774050     1.834568
Gh(H)     -1.901929    -2.503854     1.228639
Gh(H)     -1.270653    -1.166530     1.322161
Gh(O)      1.154957    -1.856330     2.510722
Gh(H)      0.297931    -2.172747     2.763830
Gh(H)      1.068259    -1.392424     1.661516
Gh(O)      3.348506    -0.225290    -1.030075
Gh(H)      2.446439    -0.034057    -0.715322
Gh(H)      3.503325    -1.124527    -0.914376
O         -1.970296     2.489958    -0.789570
H         -2.695508     3.100915    -1.071316
H         -1.197742     2.647194    -1.321328
Gh(O)      0.086673    -3.010722    -1.445107
Gh(H)      0.037079    -2.054659    -1.152701
Gh(H)      0.257774    -2.926956    -2.402717

units ang
no_reorient
no_com
symmetry c1
}

set {
basis        aug-cc-pVTZ
scf_type     df
}

energy("mp2")
--------------------------------------------------------------------------

    Molecular point group: c1

    Geometry (in Angstrom), charge = 0, multiplicity = 1:

       Center              X                  Y                   Z               Mass
    ------------   -----------------  -----------------  -----------------  -----------------
      Gh(BR)          0.000000000000     0.000000000000     0.000000000000    78.918337600000
      Gh(O)          -1.840831000000    -1.774050000000     1.834568000000    15.994914619570
      Gh(H)          -1.901929000000    -2.503854000000     1.228639000000     1.007825032230
      Gh(H)          -1.270653000000    -1.166530000000     1.322161000000     1.007825032230
      Gh(O)           1.154957000000    -1.856330000000     2.510722000000    15.994914619570
      Gh(H)           0.297931000000    -2.172747000000     2.763830000000     1.007825032230
      Gh(H)           1.068259000000    -1.392424000000     1.661516000000     1.007825032230
      Gh(O)           3.348506000000    -0.225290000000    -1.030075000000    15.994914619570
      Gh(H)           2.446439000000    -0.034057000000    -0.715322000000     1.007825032230
      Gh(H)           3.503325000000    -1.124527000000    -0.914376000000     1.007825032230
         O           -1.970296000000     2.489958000000    -0.789570000000    15.994914619570
         H           -2.695508000000     3.100915000000    -1.071316000000     1.007825032230
         H           -1.197742000000     2.647194000000    -1.321328000000     1.007825032230
      Gh(O)           0.086673000000    -3.010722000000    -1.445107000000    15.994914619570
      Gh(H)           0.037079000000    -2.054659000000    -1.152701000000     1.007825032230
      Gh(H)           0.257774000000    -2.926956000000    -2.402717000000     1.007825032230

  Charge       = 0
  Multiplicity = 1
  Basis Set: AUG-CC-PVTZ
    Blend: AUG-CC-PVTZ
  Basis Set: (AUG-CC-PVTZ AUX)
    Blend: AUG-CC-PVTZ-JKFIT

    Orbital Energies [Eh]
    ---------------------

    Doubly Occupied:

       1A    -20.567037     2A     -1.343954     3A     -0.720100
       4A     -0.572701     5A     -0.507785

  @DF-RHF Final Energy:   -76.05835362867454

   => Energetics <=

    Nuclear Repulsion Energy =              9.0651175007034936
    One-Electron Energy =                -122.8237868029393525
    Two-Electron Energy =                  37.7003156735613274
    Total Energy =                        -76.0583536286745243
 Dipole X            :         37.1808970          -37.1437348            0.0371621
 Dipole Y            :        -47.9914380           48.5050612            0.5136233
 Dipole Z            :         15.9115709          -16.4580103           -0.5464395
 Magnitude           :                                                    0.7508568
  Basis Set: (AUG-CC-PVTZ AUX)
    Blend: AUG-CC-PVTZ-RI
	 Reference Energy          =     -76.0583536286745385 [Eh]
	 Singles Energy            =      -0.0000000000000000 [Eh]
	 Same-Spin Energy          =      -0.0685053760530884 [Eh]
	 Opposite-Spin Energy      =      -0.2157652716774565 [Eh]
	 Correlation Energy        =      -0.2842706477305448 [Eh]
	 Total Energy              =     -76.3426242764050897 [Eh]

	 ================> DF-SCS-MP2 Energies <==================
	-----------------------------------------------------------
	 SCS Same-Spin Scale       =       0.3333333333333333 [-]
	 SCS Opposite-Spin Scale   =       1.2000000000000000 [-]
	 SCS Same-Spin Energy      =      -0.0228351253510295 [Eh]
	 SCS Opposite-Spin Energy  =      -0.2589183260129478 [Eh]
	 SCS Correlation Energy    =      -0.2817534513639772 [Eh]
	 SCS Total Energy          =     -76.3401070800385213 [Eh]
	-----------------------------------------------------------

*** Psi4 exiting successfully. Buy a developer a beer!
