                               Psi4 1.8.2 release

  ==> Input File <==

--------------------------------------------------------------------------
MEMORY 60 GB

molecule dimer {
0 1
Gh(Br)     0.000000     0.000000     0.000000
Gh(O)      2.375991     1.403050     1.759821
Gh(H)      1.608804     1.035722     1.188101
Gh(H)      3.062120     1.668836     1.129100
O          2.883715    -1.624042    -0.731104
H          3.463684    -1.974029    -0.037743
H          2.061357    -1.406903    -0.251967

units ang
no_reorient
no_com
symmetry c1
}

set {
basis        aug-cc-pVTZ
scf_type     df
}

energy("mp2")
--------------------------------------------------------------------------

    Molecular point group: c1

    Geometry (in Angstrom), charge = 0, multiplicity = 1:

       Center              X                  Y                   Z               Mass
    ------------   -----------------  -----------------  -----------------  -----------------
      Gh(BR)          0.000000000000     0.000000000000     0.000000000000    78.918337600000
      Gh(O)           2.375991000000     1.403050000000     1.759821000000    15.994914619570
      Gh(H)           1.608804000000     1.035722000000     1.188101000000     1.007825032230
      Gh(H)           3.062120000000     1.668836000000     1.129100000000     1.007825032230
         O            2.883715000000    -1.624042000000    -0.731104000000    15.994914619570
         H            3.463684000000    -1.974029000000    -0.037743000000     1.007825032230
         H            2.061357000000    -1.406903000000    -0.251967000000     1.007825032230

  Charge       = 0
  Multiplicity = 1
  Basis Set: AUG-CC-PVTZ
    Blend: AUG-CC-PVTZ
  Basis Set: (AUG-CC-PVTZ AUX)
    Blend: AUG-CC-PVTZ-JKFIT

    Orbital Energies [Eh]
    ---------------------

    Doubly Occupied:

       1A    -20.570339     2A     -1.346412     3A     -0.707432
       4A     -0.583915     5A     -0.509403

  @DF-RHF Final Energy:   -76.05908976366965

   => Energetics <=

    Nuclear Repulsion Energy =              9.0502971011895870
    One-Electron Energy =                -122.7837686963796671
    Two-Electron Energy =                  37.6743818315204351
    Total Energy =                        -76.0590897636696468
 Dipole X            :        -54.1948112           54.0362669           -0.1585443
 Dipole Y            :         30.8528272          -30.9409923           -0.0881651
 Dipole Z            :         12.3709079          -11.6001632            0.7707447
 Magnitude           :                                                    0.7918060
  Basis Set: (AUG-CC-PVTZ AUX)
    Blend: AUG-CC-PVTZ-RI
	 Reference Energy          =     -76.0590897636696468 [Eh]
	 Singles Energy            =      -0.0000000000000000 [Eh]
	 Same-Spin Energy          =      -0.0686598443803477 [Eh]
	 Opposite-Spin Energy      =      -0.2163680170620579 [Eh]
	 Correlation Energy        =      -0.2850278614424056 [Eh]
	 Total Energy              =     -76.3441176251120481 [Eh]

	 ================> DF-SCS-MP2 Energies <==================
	-----------------------------------------------------------
	 SCS Same-Spin Scale       =       0.3333333333333333 [-]
	 SCS Opposite-Spin Scale   =       1.2000000000000000 [-]
	 SCS Same-Spin Energy      =      -0.0228866147934492 [Eh]
	 SCS Opposite-Spin Energy  =      -0.2596416204744694 [Eh]
	 SCS Correlation Energy    =      -0.2825282352679186 [Eh]
	 SCS Total Energy          =     -76.3416179989375649 [Eh]
	-----------------------------------------------------------

*** Psi4 exiting successfully. Buy a developer a beer!
