                               Psi4 1.8.2 release

  ==> Input File <==

--------------------------------------------------------------------------
MEMORY 60 GB

molecule dimer {
0 1
Gh(Br)     0.000000     0.000000     0.000000
Gh(O)     -2.276881    -1.899460     1.400580
Gh(H)     -2.198589    -1.582245     2.312148
Gh(H)     -1.483800    -1.556681     0.911434
O          0.558217    -1.514625     3.077996
H          0.481697    -2.382991     2.719831
H          0.514443    -0.980773     2.257969
Gh(O)     -3.207653     0.544694    -0.640069
Gh(H)     -2.307200     0.537132    -0.484230
Gh(H)     -3.309605     1.334027    -1.206248
Gh(O)     -1.719668     1.404403     2.550898
Gh(H)     -0.978194     1.949422     2.833464
Gh(H)     -1.447545     0.991534     1.688828

units ang
no_reorient
no_com
symmetry c1
}

set {
basis        aug-cc-pVTZ
scf_type     df
}

energy("mp2")
--------------------------------------------------------------------------

    Molecular point group: c1

    Geometry (in Angstrom), charge = 0, multiplicity = 1:

       Center              X                  Y                   Z               Mass
    ------------   -----------------  -----------------  -----------------  -----------------
      Gh(BR)          0.000000000000     0.000000000000     0.000000000000    78.918337600000
      Gh(O)          -2.276881000000    -1.899460000000     1.400580000000    15.994914619570
      Gh(H)          -2.198589000000    -1.582245000000     2.312148000000     1.007825032230
      Gh(H)          -1.483800000000    -1.556681000000     0.911434000000     1.007825032230
         O            0.558217000000    -1.514625000000     3.077996000000    15.994914619570
         H            0.481697000000    -2.382991000000     2.719831000000     1.007825032230
         H            0.514443000000    -0.980773000000     2.257969000000     1.007825032230
      Gh(O)          -3.207653000000     0.544694000000    -0.640069000000    15.994914619570
      Gh(H)          -2.307200000000     0.537132000000    -0.484230000000     1.007825032230
      Gh(H)          -3.309605000000     1.334027000000    -1.206248000000     1.007825032230
      Gh(O)          -1.719668000000     1.404403000000     2.550898000000    15.994914619570
      Gh(H)          -0.978194000000     1.949422000000     2.833464000000     1.007825032230
      Gh(H)          -1.447545000000     0.991534000000     1.688828000000     1.007825032230

  Charge       = 0
  Multiplicity = 1
  Basis Set: AUG-CC-PVTZ
    Blend: AUG-CC-PVTZ
  Basis Set: (AUG-CC-PVTZ AUX)
    Blend: AUG-CC-PVTZ-JKFIT

    Orbital Energies [Eh]
    ---------------------

    Doubly Occupied:

       1A    -20.569446     2A     -1.354960     3A     -0.707695
       4A     -0.592127     5A     -0.511257

  @DF-RHF Final Energy:   -76.05904782607475

   => Energetics <=

    Nuclear Repulsion Energy =              9.1724788898737941
    One-Electron Energy =                -122.9920766927463376
    Two-Electron Energy =                  37.7605499767978046
    Total Energy =                        -76.0590478260747460
 Dipole X            :        -10.4003207           10.3214498           -0.0788710
 Dipole Y            :         29.0283569          -29.2544042           -0.2260472
 Dipole Z            :        -56.7101267           55.9392343           -0.7708924
 Magnitude           :                                                    0.8072131
  Basis Set: (AUG-CC-PVTZ AUX)
    Blend: AUG-CC-PVTZ-RI
	 Reference Energy          =     -76.0590478260747460 [Eh]
	 Singles Energy            =      -0.0000000000000000 [Eh]
	 Same-Spin Energy          =      -0.0685521592969456 [Eh]
	 Opposite-Spin Energy      =      -0.2163024986445981 [Eh]
	 Correlation Energy        =      -0.2848546579415436 [Eh]
	 Total Energy              =     -76.3439024840162830 [Eh]

	 ================> DF-SCS-MP2 Energies <==================
	-----------------------------------------------------------
	 SCS Same-Spin Scale       =       0.3333333333333333 [-]
	 SCS Opposite-Spin Scale   =       1.2000000000000000 [-]
	 SCS Same-Spin Energy      =      -0.0228507197656485 [Eh]
	 SCS Opposite-Spin Energy  =      -0.2595629983735177 [Eh]
	 SCS Correlation Energy    =      -0.2824137181391662 [Eh]
	 SCS Total Energy          =     -76.3414615442139137 [Eh]
	-----------------------------------------------------------

*** Psi4 exiting successfully. Buy a developer a beer!
