                               Psi4 1.8.2 release

  ==> Input File <==

--------------------------------------------------------------------------
MEMORY 60 GB

molecule dimer {
-1 1
Br         0.000000     0.000000     0.000000
O         -2.781246     1.510084     1.569551
H         -2.072540     1.009944     1.041255
H         -3.635131     1.011783     1.573126
O         -1.440121    -2.331353    -1.915099
H         -1.006754    -1.730021    -1.255599
H         -1.064572    -3.197794    -1.969547
O         -3.247932     0.467714    -1.516885
H         -2.362877     0.540347    -1.151819
H         -3.475365    -0.447640    -1.620254
O          0.031526     3.421465    -0.300243
H         -0.878325     3.780621    -0.011616
H          0.054833     2.497967    -0.083518
O          0.960104     0.920447    -2.955719
H          0.402808     0.917896    -2.160409
H          0.692381     1.632242    -3.631367

units ang
no_reorient
no_com
symmetry c1
}

set {
basis        aug-cc-pVTZ
scf_type     df
}

energy("mp2")
--------------------------------------------------------------------------

    Molecular point group: c1

    Geometry (in Angstrom), charge = -1, multiplicity = 1:

       Center              X                  Y                   Z               Mass
    ------------   -----------------  -----------------  -----------------  -----------------
         BR           0.000000000000     0.000000000000     0.000000000000    78.918337600000
         O           -2.781246000000     1.510084000000     1.569551000000    15.994914619570
         H           -2.072540000000     1.009944000000     1.041255000000     1.007825032230
         H           -3.635131000000     1.011783000000     1.573126000000     1.007825032230
         O           -1.440121000000    -2.331353000000    -1.915099000000    15.994914619570
         H           -1.006754000000    -1.730021000000    -1.255599000000     1.007825032230
         H           -1.064572000000    -3.197794000000    -1.969547000000     1.007825032230
         O           -3.247932000000     0.467714000000    -1.516885000000    15.994914619570
         H           -2.362877000000     0.540347000000    -1.151819000000     1.007825032230
         H           -3.475365000000    -0.447640000000    -1.620254000000     1.007825032230
         O            0.031526000000     3.421465000000    -0.300243000000    15.994914619570
         H           -0.878325000000     3.780621000000    -0.011616000000     1.007825032230
         H            0.054833000000     2.497967000000    -0.083518000000     1.007825032230
         O            0.960104000000     0.920447000000    -2.955719000000    15.994914619570
         H            0.402808000000     0.917896000000    -2.160409000000     1.007825032230
         H            0.692381000000     1.632242000000    -3.631367000000     1.007825032230

  Charge       = -1
  Multiplicity = 1
  Basis Set: AUG-CC-PVTZ
    Blend: AUG-CC-PVTZ
  Basis Set: (AUG-CC-PVTZ AUX)
    Blend: AUG-CC-PVTZ-JKFIT

    Orbital Energies [Eh]
    ---------------------

    Doubly Occupied:

       1A   -489.798101     2A    -64.938548     3A    -58.293062
       4A    -58.293037     5A    -58.292999     6A    -20.428236
       7A    -20.422304     8A    -20.421853     9A    -20.420457
      10A    -20.412604    11A     -9.610858    12A     -7.218476
      13A     -7.218377    14A     -7.218163    15A     -2.960165
      16A     -2.960137    17A     -2.959864    18A     -2.959737
      19A     -2.959663    20A     -1.210752    21A     -1.203015
      22A     -1.193762    23A     -1.187848    24A     -1.176255
      25A     -0.778473    26A     -0.593070    27A     -0.589348
      28A     -0.566097    29A     -0.565099    30A     -0.559949
      31A     -0.440769    32A     -0.432685    33A     -0.428669
      34A     -0.426986    35A     -0.410102    36A     -0.373609
      37A     -0.368410    38A     -0.363363    39A     -0.360083
      40A     -0.350692    41A     -0.227218    42A     -0.225258
      43A     -0.222736

  @DF-RHF Final Energy: -2952.86453287260065

   => Energetics <=

    Nuclear Repulsion Energy =            446.7544351186764402
    One-Electron Energy =               -5015.1561422092499924
    Two-Electron Energy =                1615.5371742179731882
    Total Energy =                      -2952.8645328726006483
 Dipole X            :        123.6568353         -123.1475821            0.5092532
 Dipole Y            :        -73.3235778           71.6625740           -1.6610039
 Dipole Z            :         95.9947679          -94.8962030            1.0985649
 Magnitude           :                                                    2.0555091
  Basis Set: (AUG-CC-PVTZ AUX)
    Blend: AUG-CC-PVTZ-RI
	 Reference Energy          =   -2952.8645328726006483 [Eh]
	 Singles Energy            =      -0.0000000000000000 [Eh]
	 Same-Spin Energy          =      -0.4467921770031639 [Eh]
	 Opposite-Spin Energy      =      -1.3065664527813943 [Eh]
	 Correlation Energy        =      -1.7533586297845583 [Eh]
	 Total Energy              =   -2954.6178915023851914 [Eh]

	 ================> DF-SCS-MP2 Energies <==================
	-----------------------------------------------------------
	 SCS Same-Spin Scale       =       0.3333333333333333 [-]
	 SCS Opposite-Spin Scale   =       1.2000000000000000 [-]
	 SCS Same-Spin Energy      =      -0.1489307256677213 [Eh]
	 SCS Opposite-Spin Energy  =      -1.5678797433376730 [Eh]
	 SCS Correlation Energy    =      -1.7168104690053942 [Eh]
	 SCS Total Energy          =   -2954.5813433416060434 [Eh]
	-----------------------------------------------------------

*** Psi4 exiting successfully. Buy a developer a beer!
