                               Psi4 1.8.2 release

  ==> Input File <==

--------------------------------------------------------------------------
MEMORY 60 GB

molecule dimer {
-1 1
Br         0.000000     0.000000     0.000000
O          2.811524     1.249320    -1.388987
H          1.946830     1.247401    -0.997053
H          3.333840     0.621936    -0.862941
O          0.730217    -0.632562    -3.163435
H          0.536797    -0.243198    -2.271879
H         -0.106351    -1.015408    -3.475712
O          0.512458    -2.117774     2.783375
H         -0.374234    -2.073142     3.177067
H          0.435196    -1.601621     1.947776
O         -2.791734     2.004077    -0.136779
H         -2.751611     2.294819    -1.051084
H         -2.113860     2.543174     0.294439
O          1.179334    -3.203196    -0.267623
H          1.473685    -3.396931    -1.169483
H          0.786142    -2.333499    -0.274332
O          2.267015     1.055756     2.263133
H          1.546156     0.892135     2.866249
H          2.080614     0.524899     1.492348

units ang
no_reorient
no_com
symmetry c1
}

set {
basis        aug-cc-pVTZ
scf_type     df
}

energy("mp2")
--------------------------------------------------------------------------

    Molecular point group: c1

    Geometry (in Angstrom), charge = -1, multiplicity = 1:

       Center              X                  Y                   Z               Mass
    ------------   -----------------  -----------------  -----------------  -----------------
         BR           0.000000000000     0.000000000000     0.000000000000    78.918337600000
         O            2.811524000000     1.249320000000    -1.388987000000    15.994914619570
         H            1.946830000000     1.247401000000    -0.997053000000     1.007825032230
         H            3.333840000000     0.621936000000    -0.862941000000     1.007825032230
         O            0.730217000000    -0.632562000000    -3.163435000000    15.994914619570
         H            0.536797000000    -0.243198000000    -2.271879000000     1.007825032230
         H           -0.106351000000    -1.015408000000    -3.475712000000     1.007825032230
         O            0.512458000000    -2.117774000000     2.783375000000    15.994914619570
         H           -0.374234000000    -2.073142000000     3.177067000000     1.007825032230
         H            0.435196000000    -1.601621000000     1.947776000000     1.007825032230
         O           -2.791734000000     2.004077000000    -0.136779000000    15.994914619570
         H           -2.751611000000     2.294819000000    -1.051084000000     1.007825032230
         H           -2.113860000000     2.543174000000     0.294439000000     1.007825032230
         O            1.179334000000    -3.203196000000    -0.267623000000    15.994914619570
         H            1.473685000000    -3.396931000000    -1.169483000000     1.007825032230
         H            0.786142000000    -2.333499000000    -0.274332000000     1.007825032230
         O            2.267015000000     1.055756000000     2.263133000000    15.994914619570
         H            1.546156000000     0.892135000000     2.866249000000     1.007825032230
         H            2.080614000000     0.524899000000     1.492348000000     1.007825032230

  Charge       = -1
  Multiplicity = 1
  Basis Set: AUG-CC-PVTZ
    Blend: AUG-CC-PVTZ
  Basis Set: (AUG-CC-PVTZ AUX)
    Blend: AUG-CC-PVTZ-JKFIT

    Orbital Energies [Eh]
    ---------------------

    Doubly Occupied:

       1A   -489.798918     2A    -64.939504     3A    -58.294015
       4A    -58.293968     5A    -58.293948     6A    -20.454080
       7A    -20.428689     8A    -20.421188     9A    -20.421081
      10A    -20.418271    11A    -20.417571    12A     -9.611929
      13A     -7.219676    14A     -7.219373    15A     -7.219228
      16A     -2.961308    17A     -2.961230    18A     -2.961054
      19A     -2.960667    20A     -2.960642    21A     -1.237119
      22A     -1.212427    23A     -1.206004    24A     -1.204834
      25A     -1.202443    26A     -1.195027    27A     -0.780618
      28A     -0.597812    29A     -0.581080    30A     -0.579844
      31A     -0.574503    32A     -0.565783    33A     -0.562232
      34A     -0.473161    35A     -0.447369    36A     -0.445128
      37A     -0.441573    38A     -0.436397    39A     -0.434860
      40A     -0.397302    41A     -0.372281    42A     -0.367550
      43A     -0.364466    44A     -0.363651    45A     -0.362732
      46A     -0.230372    47A     -0.225400    48A     -0.223046

  @DF-RHF Final Energy: -3028.93631780907299

   => Energetics <=

    Nuclear Repulsion Energy =            558.8369084134557170
    One-Electron Energy =               -5344.8637324095043368
    Two-Electron Energy =                1757.0905061869757446
    Total Energy =                      -3028.9363178090729889
 Dipole X            :        -86.3295091           84.0242458           -2.3052633
 Dipole Y            :         30.4343934          -29.6582443            0.7761490
 Dipole Z            :         -0.9915317            0.7424110           -0.2491206
 Magnitude           :                                                    2.4451396
  Basis Set: (AUG-CC-PVTZ AUX)
    Blend: AUG-CC-PVTZ-RI
	 Reference Energy          =   -3028.9363178090729889 [Eh]
	 Singles Energy            =      -0.0000000000000000 [Eh]
	 Same-Spin Energy          =      -0.5154312933647224 [Eh]
	 Opposite-Spin Energy      =      -1.5210297028970787 [Eh]
	 Correlation Energy        =      -2.0364609962618010 [Eh]
	 Total Energy              =   -3030.9727788053346558 [Eh]

	 ================> DF-SCS-MP2 Energies <==================
	-----------------------------------------------------------
	 SCS Same-Spin Scale       =       0.3333333333333333 [-]
	 SCS Opposite-Spin Scale   =       1.2000000000000000 [-]
	 SCS Same-Spin Energy      =      -0.1718104311215741 [Eh]
	 SCS Opposite-Spin Energy  =      -1.8252356434764945 [Eh]
	 SCS Correlation Energy    =      -1.9970460745980687 [Eh]
	 SCS Total Energy          =   -3030.9333638836710634 [Eh]
	-----------------------------------------------------------

*** Psi4 exiting successfully. Buy a developer a beer!
