                               Psi4 1.8.2 release

  ==> Input File <==

--------------------------------------------------------------------------
MEMORY 60 GB

molecule dimer {
0 1
Gh(Br)     0.000000     0.000000     0.000000
Gh(O)      2.964962     1.491294    -0.232552
Gh(H)      3.167346     2.329112     0.134912
Gh(H)      2.039397     1.199057     0.005168
O          2.467355    -1.133067     2.039740
H          1.833343    -1.067852     1.347526
H          2.278611    -1.962652     2.509428
Gh(O)      1.685230    -2.489969    -1.505692
Gh(H)      1.129809    -1.865417    -1.040823
Gh(H)      2.217802    -1.919562    -2.100617
Gh(O)     -1.693532    -0.769404     2.754182
Gh(H)     -2.198821    -0.054616     3.172365
Gh(H)     -1.091690    -0.339489     2.159721

units ang
no_reorient
no_com
symmetry c1
}

set {
basis        aug-cc-pVTZ
scf_type     df
}

energy("mp2")
--------------------------------------------------------------------------

    Molecular point group: c1

    Geometry (in Angstrom), charge = 0, multiplicity = 1:

       Center              X                  Y                   Z               Mass
    ------------   -----------------  -----------------  -----------------  -----------------
      Gh(BR)          0.000000000000     0.000000000000     0.000000000000    78.918337600000
      Gh(O)           2.964962000000     1.491294000000    -0.232552000000    15.994914619570
      Gh(H)           3.167346000000     2.329112000000     0.134912000000     1.007825032230
      Gh(H)           2.039397000000     1.199057000000     0.005168000000     1.007825032230
         O            2.467355000000    -1.133067000000     2.039740000000    15.994914619570
         H            1.833343000000    -1.067852000000     1.347526000000     1.007825032230
         H            2.278611000000    -1.962652000000     2.509428000000     1.007825032230
      Gh(O)           1.685230000000    -2.489969000000    -1.505692000000    15.994914619570
      Gh(H)           1.129809000000    -1.865417000000    -1.040823000000     1.007825032230
      Gh(H)           2.217802000000    -1.919562000000    -2.100617000000     1.007825032230
      Gh(O)          -1.693532000000    -0.769404000000     2.754182000000    15.994914619570
      Gh(H)          -2.198821000000    -0.054616000000     3.172365000000     1.007825032230
      Gh(H)          -1.091690000000    -0.339489000000     2.159721000000     1.007825032230

  Charge       = 0
  Multiplicity = 1
  Basis Set: AUG-CC-PVTZ
    Blend: AUG-CC-PVTZ
  Basis Set: (AUG-CC-PVTZ AUX)
    Blend: AUG-CC-PVTZ-JKFIT

    Orbital Energies [Eh]
    ---------------------

    Doubly Occupied:

       1A    -20.566037     2A     -1.352804     3A     -0.722129
       4A     -0.581105     5A     -0.509857

  @DF-RHF Final Energy:   -76.06027882234270

   => Energetics <=

    Nuclear Repulsion Energy =              9.2005252832825040
    One-Electron Energy =                -123.0577401813246468
    Two-Electron Energy =                  37.7969360756994632
    Total Energy =                        -76.0602788223426813
 Dipole X            :        -45.6242038           45.0714685           -0.5527352
 Dipole Y            :         22.3472276          -22.8563131           -0.5090855
 Dipole Z            :        -38.2783053           38.1249865           -0.1533188
 Magnitude           :                                                    0.7669361
  Basis Set: (AUG-CC-PVTZ AUX)
    Blend: AUG-CC-PVTZ-RI
	 Reference Energy          =     -76.0602788223426955 [Eh]
	 Singles Energy            =      -0.0000000000000000 [Eh]
	 Same-Spin Energy          =      -0.0683418817861000 [Eh]
	 Opposite-Spin Energy      =      -0.2156236761812446 [Eh]
	 Correlation Energy        =      -0.2839655579673446 [Eh]
	 Total Energy              =     -76.3442443803100446 [Eh]

	 ================> DF-SCS-MP2 Energies <==================
	-----------------------------------------------------------
	 SCS Same-Spin Scale       =       0.3333333333333333 [-]
	 SCS Opposite-Spin Scale   =       1.2000000000000000 [-]
	 SCS Same-Spin Energy      =      -0.0227806272620333 [Eh]
	 SCS Opposite-Spin Energy  =      -0.2587484114174935 [Eh]
	 SCS Correlation Energy    =      -0.2815290386795268 [Eh]
	 SCS Total Energy          =     -76.3418078610222182 [Eh]
	-----------------------------------------------------------

*** Psi4 exiting successfully. Buy a developer a beer!
