                               Psi4 1.8.2 release

  ==> Input File <==

--------------------------------------------------------------------------
MEMORY 60 GB

molecule dimer {
0 1
Gh(Br)     0.000000     0.000000     0.000000
Gh(O)     -1.375620     3.047926    -1.337998
Gh(H)     -0.877399     3.716957    -0.861773
Gh(H)     -0.951090     2.166142    -1.171486
Gh(O)      2.709632    -1.863457     0.517570
Gh(H)      2.540301    -2.686032     0.113931
Gh(H)      1.960279    -1.257251     0.338176
O         -1.907275    -2.478936    -1.045372
H         -1.364393    -1.760338    -0.788272
H         -2.530730    -2.108684    -1.652647

units ang
no_reorient
no_com
symmetry c1
}

set {
basis        aug-cc-pVTZ
scf_type     df
}

energy("mp2")
--------------------------------------------------------------------------

    Molecular point group: c1

    Geometry (in Angstrom), charge = 0, multiplicity = 1:

       Center              X                  Y                   Z               Mass
    ------------   -----------------  -----------------  -----------------  -----------------
      Gh(BR)          0.000000000000     0.000000000000     0.000000000000    78.918337600000
      Gh(O)          -1.375620000000     3.047926000000    -1.337998000000    15.994914619570
      Gh(H)          -0.877399000000     3.716957000000    -0.861773000000     1.007825032230
      Gh(H)          -0.951090000000     2.166142000000    -1.171486000000     1.007825032230
      Gh(O)           2.709632000000    -1.863457000000     0.517570000000    15.994914619570
      Gh(H)           2.540301000000    -2.686032000000     0.113931000000     1.007825032230
      Gh(H)           1.960279000000    -1.257251000000     0.338176000000     1.007825032230
         O           -1.907275000000    -2.478936000000    -1.045372000000    15.994914619570
         H           -1.364393000000    -1.760338000000    -0.788272000000     1.007825032230
         H           -2.530730000000    -2.108684000000    -1.652647000000     1.007825032230

  Charge       = 0
  Multiplicity = 1
  Basis Set: AUG-CC-PVTZ
    Blend: AUG-CC-PVTZ
  Basis Set: (AUG-CC-PVTZ AUX)
    Blend: AUG-CC-PVTZ-JKFIT

    Orbital Energies [Eh]
    ---------------------

    Doubly Occupied:

       1A    -20.564122     2A     -1.361759     3A     -0.727621
       4A     -0.587124     5A     -0.511602

  @DF-RHF Final Energy:   -76.06114005283011

   => Energetics <=

    Nuclear Repulsion Energy =              9.3504279425908017
    One-Electron Energy =                -123.3186757678403467
    Two-Electron Energy =                  37.9071077724194438
    Total Energy =                        -76.0611400528300976
 Dipole X            :         36.1416768          -36.1945349           -0.0528581
 Dipole Y            :         45.5210253          -44.7874729            0.7335524
 Dipole Z            :         20.1816184          -20.4164026           -0.2347843
 Magnitude           :                                                    0.7720212
  Basis Set: (AUG-CC-PVTZ AUX)
    Blend: AUG-CC-PVTZ-RI
	 Reference Energy          =     -76.0611400528301118 [Eh]
	 Singles Energy            =      -0.0000000000000000 [Eh]
	 Same-Spin Energy          =      -0.0680871077999449 [Eh]
	 Opposite-Spin Energy      =      -0.2149033471113058 [Eh]
	 Correlation Energy        =      -0.2829904549112507 [Eh]
	 Total Energy              =     -76.3441305077413688 [Eh]

	 ================> DF-SCS-MP2 Energies <==================
	-----------------------------------------------------------
	 SCS Same-Spin Scale       =       0.3333333333333333 [-]
	 SCS Opposite-Spin Scale   =       1.2000000000000000 [-]
	 SCS Same-Spin Energy      =      -0.0226957025999816 [Eh]
	 SCS Opposite-Spin Energy  =      -0.2578840165335670 [Eh]
	 SCS Correlation Energy    =      -0.2805797191335486 [Eh]
	 SCS Total Energy          =     -76.3417197719636533 [Eh]
	-----------------------------------------------------------

*** Psi4 exiting successfully. Buy a developer a beer!
