                               Psi4 1.8.2 release

  ==> Input File <==

--------------------------------------------------------------------------
MEMORY 60 GB

molecule dimer {
0 1
Gh(Br)     0.000000     0.000000     0.000000
O          3.163199     0.646243     0.256837
H          2.316875     1.030886     0.379756
H          3.128898     0.185283    -0.623943
Gh(O)      2.053655     1.826621    -2.200546
Gh(H)      1.210211     1.608535    -1.815308
Gh(H)      2.452670     0.991479    -2.451912
Gh(O)     -1.135008     1.804837    -2.389665
Gh(H)     -0.790382     1.133645    -1.799786
Gh(H)     -1.433856     1.374123    -3.206087
Gh(O)     -1.656461     2.271419     1.980330
Gh(H)     -1.065867     1.529333     2.085922
Gh(H)     -2.325769     2.490524     2.710885
Gh(O)     -2.736680    -2.086686     0.149282
Gh(H)     -2.946208    -1.915935     1.116394
Gh(H)     -1.926651    -1.544031    -0.020258

units ang
no_reorient
no_com
symmetry c1
}

set {
basis        aug-cc-pVTZ
scf_type     df
}

energy("mp2")
--------------------------------------------------------------------------

    Molecular point group: c1

    Geometry (in Angstrom), charge = 0, multiplicity = 1:

       Center              X                  Y                   Z               Mass
    ------------   -----------------  -----------------  -----------------  -----------------
      Gh(BR)          0.000000000000     0.000000000000     0.000000000000    78.918337600000
         O            3.163199000000     0.646243000000     0.256837000000    15.994914619570
         H            2.316875000000     1.030886000000     0.379756000000     1.007825032230
         H            3.128898000000     0.185283000000    -0.623943000000     1.007825032230
      Gh(O)           2.053655000000     1.826621000000    -2.200546000000    15.994914619570
      Gh(H)           1.210211000000     1.608535000000    -1.815308000000     1.007825032230
      Gh(H)           2.452670000000     0.991479000000    -2.451912000000     1.007825032230
      Gh(O)          -1.135008000000     1.804837000000    -2.389665000000    15.994914619570
      Gh(H)          -0.790382000000     1.133645000000    -1.799786000000     1.007825032230
      Gh(H)          -1.433856000000     1.374123000000    -3.206087000000     1.007825032230
      Gh(O)          -1.656461000000     2.271419000000     1.980330000000    15.994914619570
      Gh(H)          -1.065867000000     1.529333000000     2.085922000000     1.007825032230
      Gh(H)          -2.325769000000     2.490524000000     2.710885000000     1.007825032230
      Gh(O)          -2.736680000000    -2.086686000000     0.149282000000    15.994914619570
      Gh(H)          -2.946208000000    -1.915935000000     1.116394000000     1.007825032230
      Gh(H)          -1.926651000000    -1.544031000000    -0.020258000000     1.007825032230

  Charge       = 0
  Multiplicity = 1
  Basis Set: AUG-CC-PVTZ
    Blend: AUG-CC-PVTZ
  Basis Set: (AUG-CC-PVTZ AUX)
    Blend: AUG-CC-PVTZ-JKFIT

    Orbital Energies [Eh]
    ---------------------

    Doubly Occupied:

       1A    -20.567854     2A     -1.348695     3A     -0.715882
       4A     -0.580069     5A     -0.509232

  @DF-RHF Final Energy:   -76.05841528624821

   => Energetics <=

    Nuclear Repulsion Energy =              9.1134174541743072
    One-Electron Energy =                -122.9001969425512613
    Two-Electron Energy =                  37.7283642021287520
    Total Energy =                        -76.0584152862481915
 Dipole X            :        -58.7021099           58.1116578           -0.5904521
 Dipole Y            :        -12.1135049           12.0680046           -0.0455004
 Dipole Z            :         -3.9189507            3.4213662           -0.4975846
 Magnitude           :                                                    0.7734949
  Basis Set: (AUG-CC-PVTZ AUX)
    Blend: AUG-CC-PVTZ-RI
	 Reference Energy          =     -76.0584152862482057 [Eh]
	 Singles Energy            =      -0.0000000000000000 [Eh]
	 Same-Spin Energy          =      -0.0685117735179624 [Eh]
	 Opposite-Spin Energy      =      -0.2161285670240214 [Eh]
	 Correlation Energy        =      -0.2846403405419838 [Eh]
	 Total Energy              =     -76.3430556267901892 [Eh]

	 ================> DF-SCS-MP2 Energies <==================
	-----------------------------------------------------------
	 SCS Same-Spin Scale       =       0.3333333333333333 [-]
	 SCS Opposite-Spin Scale   =       1.2000000000000000 [-]
	 SCS Same-Spin Energy      =      -0.0228372578393208 [Eh]
	 SCS Opposite-Spin Energy  =      -0.2593542804288257 [Eh]
	 SCS Correlation Energy    =      -0.2821915382681465 [Eh]
	 SCS Total Energy          =     -76.3406068245163567 [Eh]
	-----------------------------------------------------------

*** Psi4 exiting successfully. Buy a developer a beer!
