                               Psi4 1.8.2 release

  ==> Input File <==

--------------------------------------------------------------------------
MEMORY 60 GB

molecule dimer {
0 1
Gh(Br)     0.000000     0.000000     0.000000
Gh(O)      0.779723     2.101047     2.199835
Gh(H)      0.426021     1.474308     1.520328
Gh(H)      0.408280     2.960514     1.936831
Gh(O)      1.680523    -2.227455     1.670762
Gh(H)      1.216158    -1.563865     1.147402
Gh(H)      2.593395    -1.916082     1.738707
Gh(O)     -2.177205    -0.865000     2.509215
Gh(H)     -2.496326     0.047270     2.768170
Gh(H)     -1.471994    -0.874637     1.842706
O          3.480100    -0.005299    -0.932052
H          2.930060    -0.789766    -1.221807
H          3.669445     0.562215    -1.658308

units ang
no_reorient
no_com
symmetry c1
}

set {
basis        aug-cc-pVTZ
scf_type     df
}

energy("mp2")
--------------------------------------------------------------------------

    Molecular point group: c1

    Geometry (in Angstrom), charge = 0, multiplicity = 1:

       Center              X                  Y                   Z               Mass
    ------------   -----------------  -----------------  -----------------  -----------------
      Gh(BR)          0.000000000000     0.000000000000     0.000000000000    78.918337600000
      Gh(O)           0.779723000000     2.101047000000     2.199835000000    15.994914619570
      Gh(H)           0.426021000000     1.474308000000     1.520328000000     1.007825032230
      Gh(H)           0.408280000000     2.960514000000     1.936831000000     1.007825032230
      Gh(O)           1.680523000000    -2.227455000000     1.670762000000    15.994914619570
      Gh(H)           1.216158000000    -1.563865000000     1.147402000000     1.007825032230
      Gh(H)           2.593395000000    -1.916082000000     1.738707000000     1.007825032230
      Gh(O)          -2.177205000000    -0.865000000000     2.509215000000    15.994914619570
      Gh(H)          -2.496326000000     0.047270000000     2.768170000000     1.007825032230
      Gh(H)          -1.471994000000    -0.874637000000     1.842706000000     1.007825032230
         O            3.480100000000    -0.005299000000    -0.932052000000    15.994914619570
         H            2.930060000000    -0.789766000000    -1.221807000000     1.007825032230
         H            3.669445000000     0.562215000000    -1.658308000000     1.007825032230

  Charge       = 0
  Multiplicity = 1
  Basis Set: AUG-CC-PVTZ
    Blend: AUG-CC-PVTZ
  Basis Set: (AUG-CC-PVTZ AUX)
    Blend: AUG-CC-PVTZ-JKFIT

    Orbital Energies [Eh]
    ---------------------

    Doubly Occupied:

       1A    -20.566287     2A     -1.342991     3A     -0.722472
       4A     -0.569398     5A     -0.507261

  @DF-RHF Final Energy:   -76.05687595332775

   => Energetics <=

    Nuclear Repulsion Energy =              9.0589583562658351
    One-Electron Energy =                -122.8148471685871925
    Two-Electron Energy =                  37.6990128589936120
    Total Energy =                        -76.0568759533277472
 Dipole X            :        -65.3217216           65.0827441           -0.2389774
 Dipole Y            :          0.3707176           -0.5101183           -0.1394008
 Dipole Z            :         18.8461334          -19.5332127           -0.6870793
 Magnitude           :                                                    0.7406894
  Basis Set: (AUG-CC-PVTZ AUX)
    Blend: AUG-CC-PVTZ-RI
	 Reference Energy          =     -76.0568759533277472 [Eh]
	 Singles Energy            =      -0.0000000000000000 [Eh]
	 Same-Spin Energy          =      -0.0685061747589018 [Eh]
	 Opposite-Spin Energy      =      -0.2158008753556494 [Eh]
	 Correlation Energy        =      -0.2843070501145512 [Eh]
	 Total Energy              =     -76.3411830034422962 [Eh]

	 ================> DF-SCS-MP2 Energies <==================
	-----------------------------------------------------------
	 SCS Same-Spin Scale       =       0.3333333333333333 [-]
	 SCS Opposite-Spin Scale   =       1.2000000000000000 [-]
	 SCS Same-Spin Energy      =      -0.0228353915863006 [Eh]
	 SCS Opposite-Spin Energy  =      -0.2589610504267792 [Eh]
	 SCS Correlation Energy    =      -0.2817964420130799 [Eh]
	 SCS Total Energy          =     -76.3386723953408222 [Eh]
	-----------------------------------------------------------

*** Psi4 exiting successfully. Buy a developer a beer!
