                               Psi4 1.8.2 release

  ==> Input File <==

--------------------------------------------------------------------------
MEMORY 60 GB

molecule dimer {
0 1
Gh(Br)     0.000000     0.000000     0.000000
Gh(O)     -1.940430    -2.565513     0.899073
Gh(H)     -2.030209    -2.518827     1.877284
Gh(H)     -1.295089    -1.914109     0.676999
O          0.553447     2.582178     2.321146
H          0.620745     1.665940     2.488208
H          1.397611     2.901012     2.170963
Gh(O)     -1.302614    -1.622954    -2.889180
Gh(H)     -1.645295    -0.838258    -3.392872
Gh(H)     -0.914137    -1.279381    -2.076378
Gh(O)      2.785557    -0.938036    -1.642619
Gh(H)      3.238266    -1.550119    -1.047537
Gh(H)      2.005838    -0.710489    -1.193734
Gh(O)      0.626728     2.977561    -1.391010
Gh(H)     -0.065650     2.917648    -2.116526
Gh(H)      1.310986     2.330535    -1.671214

units ang
no_reorient
no_com
symmetry c1
}

set {
basis        aug-cc-pVTZ
scf_type     df
}

energy("mp2")
--------------------------------------------------------------------------

    Molecular point group: c1

    Geometry (in Angstrom), charge = 0, multiplicity = 1:

       Center              X                  Y                   Z               Mass
    ------------   -----------------  -----------------  -----------------  -----------------
      Gh(BR)          0.000000000000     0.000000000000     0.000000000000    78.918337600000
      Gh(O)          -1.940430000000    -2.565513000000     0.899073000000    15.994914619570
      Gh(H)          -2.030209000000    -2.518827000000     1.877284000000     1.007825032230
      Gh(H)          -1.295089000000    -1.914109000000     0.676999000000     1.007825032230
         O            0.553447000000     2.582178000000     2.321146000000    15.994914619570
         H            0.620745000000     1.665940000000     2.488208000000     1.007825032230
         H            1.397611000000     2.901012000000     2.170963000000     1.007825032230
      Gh(O)          -1.302614000000    -1.622954000000    -2.889180000000    15.994914619570
      Gh(H)          -1.645295000000    -0.838258000000    -3.392872000000     1.007825032230
      Gh(H)          -0.914137000000    -1.279381000000    -2.076378000000     1.007825032230
      Gh(O)           2.785557000000    -0.938036000000    -1.642619000000    15.994914619570
      Gh(H)           3.238266000000    -1.550119000000    -1.047537000000     1.007825032230
      Gh(H)           2.005838000000    -0.710489000000    -1.193734000000     1.007825032230
      Gh(O)           0.626728000000     2.977561000000    -1.391010000000    15.994914619570
      Gh(H)          -0.065650000000     2.917648000000    -2.116526000000     1.007825032230
      Gh(H)           1.310986000000     2.330535000000    -1.671214000000     1.007825032230

  Charge       = 0
  Multiplicity = 1
  Basis Set: AUG-CC-PVTZ
    Blend: AUG-CC-PVTZ
  Basis Set: (AUG-CC-PVTZ AUX)
    Blend: AUG-CC-PVTZ-JKFIT

    Orbital Energies [Eh]
    ---------------------

    Doubly Occupied:

       1A    -20.559781     2A     -1.369001     3A     -0.742987
       4A     -0.584787     5A     -0.512354

  @DF-RHF Final Energy:   -76.06034446751475

   => Energetics <=

    Nuclear Repulsion Energy =              9.5158671333859459
    One-Electron Energy =                -123.6146031936926875
    Two-Electron Energy =                  38.0383915927919887
    Total Energy =                        -76.0603444675147671
 Dipole X            :        -11.5536253           12.1810461            0.6274208
 Dipole Y            :        -48.0747733           47.6671623           -0.4076110
 Dipole Z            :        -43.8837149           43.8951991            0.0114841
 Magnitude           :                                                    0.7482884
  Basis Set: (AUG-CC-PVTZ AUX)
    Blend: AUG-CC-PVTZ-RI
	 Reference Energy          =     -76.0603444675147529 [Eh]
	 Singles Energy            =      -0.0000000000000000 [Eh]
	 Same-Spin Energy          =      -0.0677424810112640 [Eh]
	 Opposite-Spin Energy      =      -0.2135198554017530 [Eh]
	 Correlation Energy        =      -0.2812623364130170 [Eh]
	 Total Energy              =     -76.3416068039277746 [Eh]

	 ================> DF-SCS-MP2 Energies <==================
	-----------------------------------------------------------
	 SCS Same-Spin Scale       =       0.3333333333333333 [-]
	 SCS Opposite-Spin Scale   =       1.2000000000000000 [-]
	 SCS Same-Spin Energy      =      -0.0225808270037547 [Eh]
	 SCS Opposite-Spin Energy  =      -0.2562238264821036 [Eh]
	 SCS Correlation Energy    =      -0.2788046534858583 [Eh]
	 SCS Total Energy          =     -76.3391491210006166 [Eh]
	-----------------------------------------------------------

*** Psi4 exiting successfully. Buy a developer a beer!
