                               Psi4 1.8.2 release

  ==> Input File <==

--------------------------------------------------------------------------
MEMORY 60 GB

molecule dimer {
-1 1
Br         0.000000     0.000000     0.000000
Gh(O)      3.163199     0.646243     0.256837
Gh(H)      2.316875     1.030886     0.379756
Gh(H)      3.128898     0.185283    -0.623943
Gh(O)      2.053655     1.826621    -2.200546
Gh(H)      1.210211     1.608535    -1.815308
Gh(H)      2.452670     0.991479    -2.451912
Gh(O)     -1.135008     1.804837    -2.389665
Gh(H)     -0.790382     1.133645    -1.799786
Gh(H)     -1.433856     1.374123    -3.206087
Gh(O)     -1.656461     2.271419     1.980330
Gh(H)     -1.065867     1.529333     2.085922
Gh(H)     -2.325769     2.490524     2.710885
Gh(O)     -2.736680    -2.086686     0.149282
Gh(H)     -2.946208    -1.915935     1.116394
Gh(H)     -1.926651    -1.544031    -0.020258

units ang
no_reorient
no_com
symmetry c1
}

set {
basis        aug-cc-pVTZ
scf_type     df
}

energy("mp2")
--------------------------------------------------------------------------

    Molecular point group: c1

    Geometry (in Angstrom), charge = -1, multiplicity = 1:

       Center              X                  Y                   Z               Mass
    ------------   -----------------  -----------------  -----------------  -----------------
         BR           0.000000000000     0.000000000000     0.000000000000    78.918337600000
      Gh(O)           3.163199000000     0.646243000000     0.256837000000    15.994914619570
      Gh(H)           2.316875000000     1.030886000000     0.379756000000     1.007825032230
      Gh(H)           3.128898000000     0.185283000000    -0.623943000000     1.007825032230
      Gh(O)           2.053655000000     1.826621000000    -2.200546000000    15.994914619570
      Gh(H)           1.210211000000     1.608535000000    -1.815308000000     1.007825032230
      Gh(H)           2.452670000000     0.991479000000    -2.451912000000     1.007825032230
      Gh(O)          -1.135008000000     1.804837000000    -2.389665000000    15.994914619570
      Gh(H)          -0.790382000000     1.133645000000    -1.799786000000     1.007825032230
      Gh(H)          -1.433856000000     1.374123000000    -3.206087000000     1.007825032230
      Gh(O)          -1.656461000000     2.271419000000     1.980330000000    15.994914619570
      Gh(H)          -1.065867000000     1.529333000000     2.085922000000     1.007825032230
      Gh(H)          -2.325769000000     2.490524000000     2.710885000000     1.007825032230
      Gh(O)          -2.736680000000    -2.086686000000     0.149282000000    15.994914619570
      Gh(H)          -2.946208000000    -1.915935000000     1.116394000000     1.007825032230
      Gh(H)          -1.926651000000    -1.544031000000    -0.020258000000     1.007825032230

  Charge       = -1
  Multiplicity = 1
  Basis Set: AUG-CC-PVTZ
    Blend: AUG-CC-PVTZ
  Basis Set: (AUG-CC-PVTZ AUX)
    Blend: AUG-CC-PVTZ-JKFIT

    Orbital Energies [Eh]
    ---------------------

    Doubly Occupied:

       1A   -489.722066     2A    -64.861685     3A    -58.216218
       4A    -58.216216     5A    -58.216212     6A     -9.533251
       7A     -7.140594     8A     -7.140575     9A     -7.140569
      10A     -2.882296    11A     -2.882289    12A     -2.882277
      13A     -2.882274    14A     -2.882255    15A     -0.685990
      16A     -0.139337    17A     -0.139332    18A     -0.139329

  @DF-RHF Final Energy: -2572.53372718726587

   => Energetics <=

    Nuclear Repulsion Energy =              0.0000000000000000
    One-Electron Energy =               -3593.6619217215984463
    Two-Electron Energy =                1021.1281945343325788
    Total Energy =                      -2572.5337271872658675
 Dipole X            :         -0.0001320            0.0000000           -0.0001320
 Dipole Y            :          0.0001147            0.0000000            0.0001147
 Dipole Z            :         -0.0000056            0.0000000           -0.0000056
 Magnitude           :                                                    0.0001750
  Basis Set: (AUG-CC-PVTZ AUX)
    Blend: AUG-CC-PVTZ-RI
	 Reference Energy          =   -2572.5337271872658675 [Eh]
	 Singles Energy            =      -0.0000000000000000 [Eh]
	 Same-Spin Energy          =      -0.0909592831626316 [Eh]
	 Opposite-Spin Energy      =      -0.2116902329579107 [Eh]
	 Correlation Energy        =      -0.3026495161205423 [Eh]
	 Total Energy              =   -2572.8363767033865770 [Eh]

	 ================> DF-SCS-MP2 Energies <==================
	-----------------------------------------------------------
	 SCS Same-Spin Scale       =       0.3333333333333333 [-]
	 SCS Opposite-Spin Scale   =       1.2000000000000000 [-]
	 SCS Same-Spin Energy      =      -0.0303197610542105 [Eh]
	 SCS Opposite-Spin Energy  =      -0.2540282795494928 [Eh]
	 SCS Correlation Energy    =      -0.2843480406037033 [Eh]
	 SCS Total Energy          =   -2572.8180752278694854 [Eh]
	-----------------------------------------------------------

*** Psi4 exiting successfully. Buy a developer a beer!
