                               Psi4 1.9 release

  ==> Input File <==

--------------------------------------------------------------------------
MEMORY 60 GB

molecule dimer {
-1 1
Br     0.000000     0.000000     0.000000
--
0 1
O      2.794095    -1.387479     0.567346
H      1.955440    -0.895211     0.196524
H      3.481853    -0.702595     0.669128
O      2.335776     1.864406     0.831723
H      1.699945     1.187957     0.609791
H      1.817179     2.598588     1.156693
O     -0.357779     0.030054     3.245802
H     -0.127128     0.352128     2.389975
H     -0.011989     0.692795     3.899278

units ang
no_reorient
no_com
symmetry c1
}

set {
basis        aug-cc-pVTZ
scf_type     df
}

energy("mp2", bsse_type="cp")
--------------------------------------------------------------------------

                               Psi4 1.9 release
    Molecular point group: c1
  Charge       = 0
  Multiplicity = 1
  Basis Set: AUG-CC-PVTZ
    Blend: AUG-CC-PVTZ
  Basis Set: (AUG-CC-PVTZ AUX)
    Blend: AUG-CC-PVTZ-JKFIT
  @DF-RHF Final Energy:  -228.16508385154481
    Total Energy =                       -228.1650838515448072
 Dipole X            :        -89.2002952           88.8020781           -0.3982171
 Dipole Y            :        -12.3090190           13.7751775            1.4661585
 Dipole Z            :        -87.2699794           87.0792545           -0.1907249
 Magnitude           :                                                    1.5312000
  Basis Set: (AUG-CC-PVTZ AUX)
    Blend: AUG-CC-PVTZ-RI
	 Reference Energy          =    -228.1650838515448072 [Eh]
	 Singles Energy            =      -0.0000000000000000 [Eh]
	 Same-Spin Energy          =      -0.2070638623790643 [Eh]
	 Opposite-Spin Energy      =      -0.6516791151027733 [Eh]
	 Correlation Energy        =      -0.8587429774818376 [Eh]
	 Total Energy              =    -229.0238268290266319 [Eh]
	 SCS Total Energy          =    -229.0161200771278232 [Eh]
                               Psi4 1.9 release
    Molecular point group: c1
  Multiplicity = 1
  Basis Set: AUG-CC-PVTZ
    Blend: AUG-CC-PVTZ
  Basis Set: (AUG-CC-PVTZ AUX)
    Blend: AUG-CC-PVTZ-JKFIT
  @DF-RHF Final Energy: -2572.53371741322599
    Total Energy =                      -2572.5337174132255313
  Basis Set: (AUG-CC-PVTZ AUX)
	 Singles Energy            =      -0.0000000000000000 [Eh]
	 Same-Spin Energy          =      -0.0906285643451446 [Eh]
	 Opposite-Spin Energy      =      -0.2111143284544177 [Eh]
	 Correlation Energy        =      -0.3017428927995622 [Eh]
	 Total Energy              =   -2572.8354603060256522 [Eh]
	 SCS Total Energy          =   -2572.8172641288197156 [Eh]
                               Psi4 1.9 release
    Molecular point group: c1

    Geometry (in Bohr), charge = -1, multiplicity = 1:

       Center              X                  Y                   Z               Mass
    ------------   -----------------  -----------------  -----------------  -----------------
         BR           0.000000000000     0.000000000000     0.000000000000    78.918337600000
         O            5.280074318511    -2.621955314824     1.072128558374    15.994914619570
         H            3.695246054765    -1.691703614497     0.371376537079     1.007825032230
         H            6.579748579104    -1.327712127116     1.264468662875     1.007825032230
         O            4.413976930417     3.523216726660     1.571728682244    15.994914619570
         H            3.212430478341     2.244913378821     1.152337983769     1.007825032230
         H            3.433970630933     4.910619632901     2.185832981234     1.007825032230
         O           -0.676104323440     0.056793828975     6.133676837463    15.994914619570
         H           -0.240237102877     0.665425481105     4.516398196691     1.007825032230
         H           -0.022655926518     1.309192811087     7.368567507023     1.007825032230

  Charge       = -1
  Multiplicity = 1
  Basis Set: AUG-CC-PVTZ
    Blend: AUG-CC-PVTZ
  Basis Set: (AUG-CC-PVTZ AUX)
    Blend: AUG-CC-PVTZ-JKFIT

    Orbital Energies [Eh]
    ---------------------

    Doubly Occupied:

       1A   -489.773435     2A    -64.914124     3A    -58.268606
       4A    -58.268592     5A    -58.268537     6A    -20.413748
       7A    -20.403690     8A    -20.388751     9A     -9.586775
      10A     -7.194525    11A     -7.194334    12A     -7.193939
      13A     -2.936219    14A     -2.936202    15A     -2.935703
      16A     -2.935545    17A     -2.935434    18A     -1.198366
      19A     -1.194893    20A     -1.150860    21A     -0.757946
      22A     -0.567289    23A     -0.564363    24A     -0.518405
      25A     -0.435987    26A     -0.428445    27A     -0.400535
      28A     -0.357832    29A     -0.354366    30A     -0.327132
      31A     -0.202960    32A     -0.201616    33A     -0.196298

  @DF-RHF Final Energy: -2800.73029026170434

   => Energetics <=

    Nuclear Repulsion Energy =            249.3415352974096493
    One-Electron Energy =               -4409.3327395642945703
    Two-Electron Energy =                1359.2609140051802115
    Total Energy =                      -2800.7302902617047948
 Dipole X            :        -90.0887044           88.8020781           -1.2866263
 Dipole Y            :        -12.5369134           13.7751775            1.2382641
 Dipole Z            :        -87.8538364           87.0792545           -0.7745820
 Magnitude           :                                                    1.9464538
  Basis Set: (AUG-CC-PVTZ AUX)
    Blend: AUG-CC-PVTZ-RI
	 Reference Energy          =   -2800.7302902617043401 [Eh]
	 Singles Energy            =      -0.0000000000000000 [Eh]
	 Same-Spin Energy          =      -0.3069240665300260 [Eh]
	 Opposite-Spin Energy      =      -0.8700940693344926 [Eh]
	 Correlation Energy        =      -1.1770181358645186 [Eh]
	 Total Energy              =   -2801.9073083975690679 [Eh]

	 ================> DF-SCS-MP2 Energies <==================
	-----------------------------------------------------------
	 SCS Same-Spin Scale       =       0.3333333333333333 [-]
	 SCS Opposite-Spin Scale   =       1.2000000000000000 [-]
	 SCS Same-Spin Energy      =      -0.1023080221766753 [Eh]
	 SCS Opposite-Spin Energy  =      -1.0441128832013911 [Eh]
	 SCS Correlation Energy    =      -1.1464209053780663 [Eh]
	 SCS Total Energy          =   -2801.8767111670822487 [Eh]
	-----------------------------------------------------------

*** Psi4 exiting successfully. Buy a developer a beer!
