                               Psi4 1.8.2 release

  ==> Input File <==

--------------------------------------------------------------------------
MEMORY 60 GB

molecule dimer {
-1 1
Br         0.000000     0.000000     0.000000
O         -0.944159     0.763135    -3.171296
H         -0.418125     0.642488    -2.380292
H         -1.515592     1.518947    -2.946457
O          0.266373    -2.666671    -2.063433
H         -0.507967    -3.216325    -2.144357
H          0.169069    -1.929715    -1.427717
O          2.278924     0.586830    -2.040328
H          1.783721    -0.048625    -1.465647
H          2.356833     0.210882    -2.962479
O         -0.660034     3.338372    -0.252519
H         -0.523899     2.351649    -0.216782
H         -0.034580     3.514831    -0.970765

units ang
no_reorient
no_com
symmetry c1
}

set {
basis        aug-cc-pVTZ
scf_type     df
}

energy("mp2")
--------------------------------------------------------------------------

    Molecular point group: c1

    Geometry (in Angstrom), charge = -1, multiplicity = 1:

       Center              X                  Y                   Z               Mass
    ------------   -----------------  -----------------  -----------------  -----------------
         BR           0.000000000000     0.000000000000     0.000000000000    78.918337600000
         O           -0.944159000000     0.763135000000    -3.171296000000    15.994914619570
         H           -0.418125000000     0.642488000000    -2.380292000000     1.007825032230
         H           -1.515592000000     1.518947000000    -2.946457000000     1.007825032230
         O            0.266373000000    -2.666671000000    -2.063433000000    15.994914619570
         H           -0.507967000000    -3.216325000000    -2.144357000000     1.007825032230
         H            0.169069000000    -1.929715000000    -1.427717000000     1.007825032230
         O            2.278924000000     0.586830000000    -2.040328000000    15.994914619570
         H            1.783721000000    -0.048625000000    -1.465647000000     1.007825032230
         H            2.356833000000     0.210882000000    -2.962479000000     1.007825032230
         O           -0.660034000000     3.338372000000    -0.252519000000    15.994914619570
         H           -0.523899000000     2.351649000000    -0.216782000000     1.007825032230
         H           -0.034580000000     3.514831000000    -0.970765000000     1.007825032230

  Charge       = -1
  Multiplicity = 1
  Basis Set: AUG-CC-PVTZ
    Blend: AUG-CC-PVTZ
  Basis Set: (AUG-CC-PVTZ AUX)
    Blend: AUG-CC-PVTZ-JKFIT

    Orbital Energies [Eh]
    ---------------------

    Doubly Occupied:

       1A   -489.783972     2A    -64.924530     3A    -58.279042
       4A    -58.278990     5A    -58.278974     6A    -20.420943
       7A    -20.415031     8A    -20.414850     9A    -20.412931
      10A     -9.597011    11A     -7.204777    12A     -7.204454
      13A     -7.204267    14A     -2.946423    15A     -2.946352
      16A     -2.946137    17A     -2.945717    18A     -2.945695
      19A     -1.199332    20A     -1.197623    21A     -1.196681
      22A     -1.178929    23A     -0.765269    24A     -0.586589
      25A     -0.561178    26A     -0.554788    27A     -0.540782
      28A     -0.451462    29A     -0.438419    30A     -0.423935
      31A     -0.417940    32A     -0.364014    33A     -0.361862
      34A     -0.360969    35A     -0.350942    36A     -0.215647
      37A     -0.209794    38A     -0.206955

  @DF-RHF Final Energy: -2876.80434310827695

   => Energetics <=

    Nuclear Repulsion Energy =            343.8905789017497909
    One-Electron Energy =               -4703.9234279821394011
    Two-Electron Energy =                1483.2285059721129983
    Total Energy =                      -2876.8043431082764982
 Dipole X            :        -17.1973220           16.7019513           -0.4953707
 Dipole Y            :        -37.1281654           36.3157362           -0.8124292
 Dipole Z            :        142.4173930         -141.2288785            1.1885145
 Magnitude           :                                                    1.5224980
  Basis Set: (AUG-CC-PVTZ AUX)
    Blend: AUG-CC-PVTZ-RI
	 Reference Energy          =   -2876.8043431082769530 [Eh]
	 Singles Energy            =      -0.0000000000000000 [Eh]
	 Same-Spin Energy          =      -0.3763628763808442 [Eh]
	 Opposite-Spin Energy      =      -1.0872982229880832 [Eh]
	 Correlation Energy        =      -1.4636610993689274 [Eh]
	 Total Energy              =   -2878.2680042076458449 [Eh]

	 ================> DF-SCS-MP2 Energies <==================
	-----------------------------------------------------------
	 SCS Same-Spin Scale       =       0.3333333333333333 [-]
	 SCS Opposite-Spin Scale   =       1.2000000000000000 [-]
	 SCS Same-Spin Energy      =      -0.1254542921269481 [Eh]
	 SCS Opposite-Spin Energy  =      -1.3047578675856999 [Eh]
	 SCS Correlation Energy    =      -1.4302121597126480 [Eh]
	 SCS Total Energy          =   -2878.2345552679894354 [Eh]
	-----------------------------------------------------------

*** Psi4 exiting successfully. Buy a developer a beer!
