                               Psi4 1.8.2 release

  ==> Input File <==

--------------------------------------------------------------------------
MEMORY 60 GB

molecule dimer {
-1 1
Br         0.000000     0.000000     0.000000
O          0.475829    -3.025000    -1.272041
H          0.055212    -3.372620    -0.471336
H          0.533315    -2.072946    -1.193364
O          1.556372    -1.998430     2.295902
H          1.091818    -1.647091     1.556228
H          1.428739    -1.429902     3.042221
O         -1.645126    -1.882973     1.903576
H         -1.530895    -2.707178     1.398897
H         -1.093437    -1.199086     1.499601
O          1.518153     2.079534     2.428210
H          1.233613     2.008716     3.366920
H          1.307645     1.205860     1.999083

units ang
no_reorient
no_com
symmetry c1
}

set {
basis        aug-cc-pVTZ
scf_type     df
}

energy("mp2")
--------------------------------------------------------------------------

    Molecular point group: c1

    Geometry (in Angstrom), charge = -1, multiplicity = 1:

       Center              X                  Y                   Z               Mass
    ------------   -----------------  -----------------  -----------------  -----------------
         BR           0.000000000000     0.000000000000     0.000000000000    78.918337600000
         O            0.475829000000    -3.025000000000    -1.272041000000    15.994914619570
         H            0.055212000000    -3.372620000000    -0.471336000000     1.007825032230
         H            0.533315000000    -2.072946000000    -1.193364000000     1.007825032230
         O            1.556372000000    -1.998430000000     2.295902000000    15.994914619570
         H            1.091818000000    -1.647091000000     1.556228000000     1.007825032230
         H            1.428739000000    -1.429902000000     3.042221000000     1.007825032230
         O           -1.645126000000    -1.882973000000     1.903576000000    15.994914619570
         H           -1.530895000000    -2.707178000000     1.398897000000     1.007825032230
         H           -1.093437000000    -1.199086000000     1.499601000000     1.007825032230
         O            1.518153000000     2.079534000000     2.428210000000    15.994914619570
         H            1.233613000000     2.008716000000     3.366920000000     1.007825032230
         H            1.307645000000     1.205860000000     1.999083000000     1.007825032230

  Charge       = -1
  Multiplicity = 1
  Basis Set: AUG-CC-PVTZ
    Blend: AUG-CC-PVTZ
  Basis Set: (AUG-CC-PVTZ AUX)
    Blend: AUG-CC-PVTZ-JKFIT

    Orbital Energies [Eh]
    ---------------------

    Doubly Occupied:

       1A   -489.785258     2A    -64.925816     3A    -58.280319
       4A    -58.280283     5A    -58.280254     6A    -20.437972
       7A    -20.418232     8A    -20.417142     9A    -20.408733
      10A     -9.598318    11A     -7.206017    12A     -7.205757
      13A     -7.205627    14A     -2.947655    15A     -2.947573
      16A     -2.947428    17A     -2.947101    18A     -2.947086
      19A     -1.216147    20A     -1.204176    21A     -1.202148
      22A     -1.191954    23A     -0.766338    24A     -0.594291
      25A     -0.577330    26A     -0.572272    27A     -0.567720
      28A     -0.446882    29A     -0.441418    30A     -0.437484
      31A     -0.426958    32A     -0.376353    33A     -0.373873
      34A     -0.363749    35A     -0.350904    36A     -0.215020
      37A     -0.212074    38A     -0.209186

  @DF-RHF Final Energy: -2876.80692101651402

   => Energetics <=

    Nuclear Repulsion Energy =            341.6557553611565936
    One-Electron Energy =               -4699.0596453180778553
    Two-Electron Energy =                1480.5969689404073506
    Total Energy =                      -2876.8069210165140248
 Dipole X            :        -35.1647674           34.5212032           -0.6435643
 Dipole Y            :         91.3802742          -90.3840869            0.9961873
 Dipole Z            :       -102.4364729          102.1272740           -0.3091989
 Magnitude           :                                                    1.2256297
  Basis Set: (AUG-CC-PVTZ AUX)
    Blend: AUG-CC-PVTZ-RI
	 Reference Energy          =   -2876.8069210165140248 [Eh]
	 Singles Energy            =      -0.0000000000000000 [Eh]
	 Same-Spin Energy          =      -0.3746401394786281 [Eh]
	 Opposite-Spin Energy      =      -1.0839882329673303 [Eh]
	 Correlation Energy        =      -1.4586283724459583 [Eh]
	 Total Energy              =   -2878.2655493889601530 [Eh]

	 ================> DF-SCS-MP2 Energies <==================
	-----------------------------------------------------------
	 SCS Same-Spin Scale       =       0.3333333333333333 [-]
	 SCS Opposite-Spin Scale   =       1.2000000000000000 [-]
	 SCS Same-Spin Energy      =      -0.1248800464928760 [Eh]
	 SCS Opposite-Spin Energy  =      -1.3007858795607963 [Eh]
	 SCS Correlation Energy    =      -1.4256659260536724 [Eh]
	 SCS Total Energy          =   -2878.2325869425676501 [Eh]
	-----------------------------------------------------------

*** Psi4 exiting successfully. Buy a developer a beer!
