                               Psi4 1.8.2 release

  ==> Input File <==

--------------------------------------------------------------------------
MEMORY 60 GB

molecule dimer {
-1 1
Br         0.000000     0.000000     0.000000
Gh(O)     -1.840831    -1.774050     1.834568
Gh(H)     -1.901929    -2.503854     1.228639
Gh(H)     -1.270653    -1.166530     1.322161
Gh(O)      1.154957    -1.856330     2.510722
Gh(H)      0.297931    -2.172747     2.763830
Gh(H)      1.068259    -1.392424     1.661516
Gh(O)      3.348506    -0.225290    -1.030075
Gh(H)      2.446439    -0.034057    -0.715322
Gh(H)      3.503325    -1.124527    -0.914376
Gh(O)     -1.970296     2.489958    -0.789570
Gh(H)     -2.695508     3.100915    -1.071316
Gh(H)     -1.197742     2.647194    -1.321328
Gh(O)      0.086673    -3.010722    -1.445107
Gh(H)      0.037079    -2.054659    -1.152701
Gh(H)      0.257774    -2.926956    -2.402717

units ang
no_reorient
no_com
symmetry c1
}

set {
basis        aug-cc-pVTZ
scf_type     df
}

energy("mp2")
--------------------------------------------------------------------------

    Molecular point group: c1

    Geometry (in Angstrom), charge = -1, multiplicity = 1:

       Center              X                  Y                   Z               Mass
    ------------   -----------------  -----------------  -----------------  -----------------
         BR           0.000000000000     0.000000000000     0.000000000000    78.918337600000
      Gh(O)          -1.840831000000    -1.774050000000     1.834568000000    15.994914619570
      Gh(H)          -1.901929000000    -2.503854000000     1.228639000000     1.007825032230
      Gh(H)          -1.270653000000    -1.166530000000     1.322161000000     1.007825032230
      Gh(O)           1.154957000000    -1.856330000000     2.510722000000    15.994914619570
      Gh(H)           0.297931000000    -2.172747000000     2.763830000000     1.007825032230
      Gh(H)           1.068259000000    -1.392424000000     1.661516000000     1.007825032230
      Gh(O)           3.348506000000    -0.225290000000    -1.030075000000    15.994914619570
      Gh(H)           2.446439000000    -0.034057000000    -0.715322000000     1.007825032230
      Gh(H)           3.503325000000    -1.124527000000    -0.914376000000     1.007825032230
      Gh(O)          -1.970296000000     2.489958000000    -0.789570000000    15.994914619570
      Gh(H)          -2.695508000000     3.100915000000    -1.071316000000     1.007825032230
      Gh(H)          -1.197742000000     2.647194000000    -1.321328000000     1.007825032230
      Gh(O)           0.086673000000    -3.010722000000    -1.445107000000    15.994914619570
      Gh(H)           0.037079000000    -2.054659000000    -1.152701000000     1.007825032230
      Gh(H)           0.257774000000    -2.926956000000    -2.402717000000     1.007825032230

  Charge       = -1
  Multiplicity = 1
  Basis Set: AUG-CC-PVTZ
    Blend: AUG-CC-PVTZ
  Basis Set: (AUG-CC-PVTZ AUX)
    Blend: AUG-CC-PVTZ-JKFIT

    Orbital Energies [Eh]
    ---------------------

    Doubly Occupied:

       1A   -489.722252     2A    -64.861824     3A    -58.216361
       4A    -58.216360     5A    -58.216359     6A     -9.533301
       7A     -7.140635     8A     -7.140626     9A     -7.140617
      10A     -2.882346    11A     -2.882340    12A     -2.882333
      13A     -2.882316    14A     -2.882305    15A     -0.685991
      16A     -0.139336    17A     -0.139334    18A     -0.139331

  @DF-RHF Final Energy: -2572.53373034561355

   => Energetics <=

    Nuclear Repulsion Energy =              0.0000000000000000
    One-Electron Energy =               -3593.6595238635522946
    Two-Electron Energy =                1021.1257935179388596
    Total Energy =                      -2572.5337303456135487
 Dipole X            :          0.0001524            0.0000000            0.0001524
 Dipole Y            :         -0.0000655            0.0000000           -0.0000655
 Dipole Z            :          0.0001306            0.0000000            0.0001306
 Magnitude           :                                                    0.0002111
  Basis Set: (AUG-CC-PVTZ AUX)
    Blend: AUG-CC-PVTZ-RI
	 Reference Energy          =   -2572.5337303456135487 [Eh]
	 Singles Energy            =      -0.0000000000000000 [Eh]
	 Same-Spin Energy          =      -0.0914479339634764 [Eh]
	 Opposite-Spin Energy      =      -0.2129921919641053 [Eh]
	 Correlation Energy        =      -0.3044401259275816 [Eh]
	 Total Energy              =   -2572.8381704715411615 [Eh]

	 ================> DF-SCS-MP2 Energies <==================
	-----------------------------------------------------------
	 SCS Same-Spin Scale       =       0.3333333333333333 [-]
	 SCS Opposite-Spin Scale   =       1.2000000000000000 [-]
	 SCS Same-Spin Energy      =      -0.0304826446544921 [Eh]
	 SCS Opposite-Spin Energy  =      -0.2555906303569263 [Eh]
	 SCS Correlation Energy    =      -0.2860732750114184 [Eh]
	 SCS Total Energy          =   -2572.8198036206249526 [Eh]
	-----------------------------------------------------------

*** Psi4 exiting successfully. Buy a developer a beer!
