                               Psi4 1.9 release

  ==> Input File <==

--------------------------------------------------------------------------
MEMORY 60 GB

molecule dimer {
-1 1
Br     0.000000     0.000000     0.000000
--
0 1
O      1.048984    -1.751826     2.468714
H      0.346226    -1.574453     3.123380
H      0.851106    -1.311539     1.644549
O     -2.820287    -2.108900     0.576548
H     -2.511233    -1.229356     0.357885
H     -2.113463    -2.779649     0.548949
O      3.567175    -0.231884     0.328854
H      2.744073    -0.227220     0.878728
H      4.212940     0.263403     0.897667
O     -3.465849     0.836464    -0.133478
H     -3.736443     0.132471    -0.710973
H     -3.073107     1.425776    -0.768412
O     -0.059575     2.949979    -1.773779
H      0.033635     2.297669    -1.066174
H     -0.868960     2.765295    -2.220305

units ang
no_reorient
no_com
symmetry c1
}

set {
basis        aug-cc-pVTZ
scf_type     df
}

energy("mp2", bsse_type="cp")
--------------------------------------------------------------------------

                               Psi4 1.9 release
    Molecular point group: c1
  Charge       = 0
  Multiplicity = 1
  Basis Set: AUG-CC-PVTZ
    Blend: AUG-CC-PVTZ
  Basis Set: (AUG-CC-PVTZ AUX)
    Blend: AUG-CC-PVTZ-JKFIT
  @DF-RHF Final Energy:  -380.29333169420170
    Total Energy =                       -380.2933316942016972
 Dipole X            :         33.4628114          -33.9236869           -0.4608755
 Dipole Y            :          5.3414919           -5.0775788            0.2639131
 Dipole Z            :        -27.3771854           27.2501644           -0.1270210
 Magnitude           :                                                    0.5460684
  Basis Set: (AUG-CC-PVTZ AUX)
    Blend: AUG-CC-PVTZ-RI
	 Reference Energy          =    -380.2933316942016972 [Eh]
	 Singles Energy            =      -0.0000000000000000 [Eh]
	 Same-Spin Energy          =      -0.3442902254880862 [Eh]
	 Opposite-Spin Energy      =      -1.0820874446161579 [Eh]
	 Correlation Energy        =      -1.4263776701042441 [Eh]
	 Total Energy              =    -381.7197093643059134 [Eh]
	 SCS Total Energy          =    -381.7066000362370914 [Eh]
                               Psi4 1.9 release
    Molecular point group: c1
  Multiplicity = 1
  Basis Set: AUG-CC-PVTZ
    Blend: AUG-CC-PVTZ
  Basis Set: (AUG-CC-PVTZ AUX)
    Blend: AUG-CC-PVTZ-JKFIT
  @DF-RHF Final Energy: -2572.53371655322189
    Total Energy =                      -2572.5337165532218933
  Basis Set: (AUG-CC-PVTZ AUX)
	 Singles Energy            =      -0.0000000000000000 [Eh]
	 Same-Spin Energy          =      -0.0900273033018774 [Eh]
	 Opposite-Spin Energy      =      -0.2094200902052222 [Eh]
	 Correlation Energy        =      -0.2994473935070996 [Eh]
	 Total Energy              =   -2572.8331639467292007 [Eh]
	 SCS Total Energy          =   -2572.8150297625688836 [Eh]
                               Psi4 1.9 release
    Molecular point group: c1

    Geometry (in Bohr), charge = -1, multiplicity = 1:

       Center              X                  Y                   Z               Mass
    ------------   -----------------  -----------------  -----------------  -----------------
         BR           0.000000000000     0.000000000000     0.000000000000    78.918337600000
         O            1.982292469987    -3.310471359456     4.665193342083    15.994914619570
         H            0.654272317513    -2.975284967405     5.902332785732     1.007825032230
         H            1.608357243734    -2.478449512857     3.107747209896     1.007825032230
         O           -5.329570025189    -3.985243425978     1.089517818180    15.994914619570
         H           -4.745542607212    -2.323146150688     0.676304634409     1.007825032230
         H           -3.993866246288    -5.252775334903     1.037363266844     1.007825032230
         O            6.740983791580    -0.438197252876     0.621443995261    15.994914619570
         H            5.185546438263    -0.429383570227     1.660555258771     1.007825032230
         H            7.961302782986     0.497759530624     1.696344781861     1.007825032230
         O           -6.549505402192     1.580687873805    -0.252236863774    15.994914619570
         H           -7.060853953384     0.250333909566    -1.343544252595     1.007825032230
         H           -5.807330584227     2.694326156251    -1.452088231515     1.007825032230
         O           -0.112580433924     5.574652385852    -3.351956517088    15.994914619570
         H            0.063560938230     4.341965136955    -2.014776862084     1.007825032230
         H           -1.642096413978     5.225650206098    -4.195768364985     1.007825032230

  Charge       = -1
  Multiplicity = 1
  Basis Set: AUG-CC-PVTZ
    Blend: AUG-CC-PVTZ
  Basis Set: (AUG-CC-PVTZ AUX)
    Blend: AUG-CC-PVTZ-JKFIT

    Orbital Energies [Eh]
    ---------------------

    Doubly Occupied:

       1A   -489.773044     2A    -64.913538     3A    -58.268042
       4A    -58.268036     5A    -58.267974     6A    -20.454753
       7A    -20.433511     8A    -20.422928     9A    -20.421977
      10A    -20.409785    11A     -9.585985    12A     -7.193751
      13A     -7.193500    14A     -7.193160    15A     -2.935452
      16A     -2.935413    17A     -2.934973    18A     -2.934728
      19A     -2.934651    20A     -1.249242    21A     -1.212295
      22A     -1.203434    23A     -1.198540    24A     -1.193824
      25A     -0.751137    26A     -0.607231    27A     -0.584572
      28A     -0.583324    29A     -0.574859    30A     -0.555659
      31A     -0.484007    32A     -0.443827    33A     -0.443705
      34A     -0.432556    35A     -0.426523    36A     -0.400781
      37A     -0.369921    38A     -0.369274    39A     -0.368968
      40A     -0.357390    41A     -0.204507    42A     -0.199110
      43A     -0.194462

  @DF-RHF Final Energy: -2952.86494521693976

   => Energetics <=

    Nuclear Repulsion Energy =            426.9614615385820571
    One-Electron Energy =               -4975.8841134869944653
    Two-Electron Energy =                1596.0577067314729902
    Total Energy =                      -2952.8649452169397591
 Dipole X            :         33.4659442          -33.9236869           -0.4577427
 Dipole Y            :          5.3828723           -5.0775788            0.3052935
 Dipole Z            :        -27.6161143           27.2501644           -0.3659499
 Magnitude           :                                                    0.6607963
  Basis Set: (AUG-CC-PVTZ AUX)
    Blend: AUG-CC-PVTZ-RI
	 Reference Energy          =   -2952.8649452169397591 [Eh]
	 Singles Energy            =      -0.0000000000000000 [Eh]
	 Same-Spin Energy          =      -0.4421040931473244 [Eh]
	 Opposite-Spin Energy      =      -1.2977185603467314 [Eh]
	 Correlation Energy        =      -1.7398226534940557 [Eh]
	 Total Energy              =   -2954.6047678704339887 [Eh]

	 ================> DF-SCS-MP2 Energies <==================
	-----------------------------------------------------------
	 SCS Same-Spin Scale       =       0.3333333333333333 [-]
	 SCS Opposite-Spin Scale   =       1.2000000000000000 [-]
	 SCS Same-Spin Energy      =      -0.1473680310491081 [Eh]
	 SCS Opposite-Spin Energy  =      -1.5572622724160776 [Eh]
	 SCS Correlation Energy    =      -1.7046303034651857 [Eh]
	 SCS Total Energy          =   -2954.5695755204051238 [Eh]
	-----------------------------------------------------------

*** Psi4 exiting successfully. Buy a developer a beer!
