                               Psi4 1.8.2 release

  ==> Input File <==

--------------------------------------------------------------------------
MEMORY 60 GB

molecule dimer {
-1 1
Br         0.000000     0.000000     0.000000
Gh(O)     -1.098908    -3.071508    -0.487534
Gh(H)     -0.293885    -3.421066    -1.019080
Gh(H)     -0.905828    -2.104128    -0.516759
Gh(O)      1.164874    -2.706180     2.071644
Gh(H)      1.253804    -2.143184     2.914441
Gh(H)      0.471840    -2.302890     1.514895
Gh(O)      0.575450    -0.529067    -2.994827
Gh(H)      0.141283    -0.085171    -2.247597
Gh(H)      1.099265    -1.253083    -2.580112
Gh(O)     -0.792664     1.020897     3.205548
Gh(H)      0.118432     0.983099     2.910144
Gh(H)     -0.793424     1.323019     4.123454
Gh(O)      3.168574    -1.492021    -0.608818
Gh(H)      3.582456    -1.338518     0.262661
Gh(H)      2.354410    -0.982806    -0.504585

units ang
no_reorient
no_com
symmetry c1
}

set {
basis        aug-cc-pVTZ
scf_type     df
}

energy("mp2")
--------------------------------------------------------------------------

    Molecular point group: c1

    Geometry (in Angstrom), charge = -1, multiplicity = 1:

       Center              X                  Y                   Z               Mass
    ------------   -----------------  -----------------  -----------------  -----------------
         BR           0.000000000000     0.000000000000     0.000000000000    78.918337600000
      Gh(O)          -1.098908000000    -3.071508000000    -0.487534000000    15.994914619570
      Gh(H)          -0.293885000000    -3.421066000000    -1.019080000000     1.007825032230
      Gh(H)          -0.905828000000    -2.104128000000    -0.516759000000     1.007825032230
      Gh(O)           1.164874000000    -2.706180000000     2.071644000000    15.994914619570
      Gh(H)           1.253804000000    -2.143184000000     2.914441000000     1.007825032230
      Gh(H)           0.471840000000    -2.302890000000     1.514895000000     1.007825032230
      Gh(O)           0.575450000000    -0.529067000000    -2.994827000000    15.994914619570
      Gh(H)           0.141283000000    -0.085171000000    -2.247597000000     1.007825032230
      Gh(H)           1.099265000000    -1.253083000000    -2.580112000000     1.007825032230
      Gh(O)          -0.792664000000     1.020897000000     3.205548000000    15.994914619570
      Gh(H)           0.118432000000     0.983099000000     2.910144000000     1.007825032230
      Gh(H)          -0.793424000000     1.323019000000     4.123454000000     1.007825032230
      Gh(O)           3.168574000000    -1.492021000000    -0.608818000000    15.994914619570
      Gh(H)           3.582456000000    -1.338518000000     0.262661000000     1.007825032230
      Gh(H)           2.354410000000    -0.982806000000    -0.504585000000     1.007825032230

  Charge       = -1
  Multiplicity = 1
  Basis Set: AUG-CC-PVTZ
    Blend: AUG-CC-PVTZ
  Basis Set: (AUG-CC-PVTZ AUX)
    Blend: AUG-CC-PVTZ-JKFIT

    Orbital Energies [Eh]
    ---------------------

    Doubly Occupied:

       1A   -489.722053     2A    -64.861673     3A    -58.216204
       4A    -58.216204     5A    -58.216201     6A     -9.533247
       7A     -7.140580     8A     -7.140574     9A     -7.140569
      10A     -2.882292    11A     -2.882288    12A     -2.882272
      13A     -2.882262    14A     -2.882256    15A     -0.685989
      16A     -0.139333    17A     -0.139332    18A     -0.139331

  @DF-RHF Final Energy: -2572.53372529778426

   => Energetics <=

    Nuclear Repulsion Energy =              0.0000000000000000
    One-Electron Energy =               -3593.6621288681071746
    Two-Electron Energy =                1021.1284035703231439
    Total Energy =                      -2572.5337252977842581
 Dipole X            :          0.0000596            0.0000000            0.0000596
 Dipole Y            :         -0.0001586            0.0000000           -0.0001586
 Dipole Z            :         -0.0000944            0.0000000           -0.0000944
 Magnitude           :                                                    0.0001940
  Basis Set: (AUG-CC-PVTZ AUX)
    Blend: AUG-CC-PVTZ-RI
	 Reference Energy          =   -2572.5337252977842581 [Eh]
	 Singles Energy            =      -0.0000000000000000 [Eh]
	 Same-Spin Energy          =      -0.0908268675731674 [Eh]
	 Opposite-Spin Energy      =      -0.2113498322805413 [Eh]
	 Correlation Energy        =      -0.3021766998537087 [Eh]
	 Total Energy              =   -2572.8359019976378477 [Eh]

	 ================> DF-SCS-MP2 Energies <==================
	-----------------------------------------------------------
	 SCS Same-Spin Scale       =       0.3333333333333333 [-]
	 SCS Opposite-Spin Scale   =       1.2000000000000000 [-]
	 SCS Same-Spin Energy      =      -0.0302756225243891 [Eh]
	 SCS Opposite-Spin Energy  =      -0.2536197987366495 [Eh]
	 SCS Correlation Energy    =      -0.2838954212610386 [Eh]
	 SCS Total Energy          =   -2572.8176207190454079 [Eh]
	-----------------------------------------------------------

*** Psi4 exiting successfully. Buy a developer a beer!
