                               Psi4 1.8.2 release

  ==> Input File <==

--------------------------------------------------------------------------
MEMORY 60 GB

molecule dimer {
0 1
Gh(Br)     0.000000     0.000000     0.000000
Gh(O)     -0.088017     2.381552    -2.261185
Gh(H)      0.085852     1.513908    -1.878612
Gh(H)     -0.607832     2.226833    -3.041716
Gh(O)      3.292755    -0.049072    -1.394388
Gh(H)      3.313770     0.293662    -0.438862
Gh(H)      3.329681    -1.029261    -1.327193
Gh(O)     -1.887489    -1.542891     2.210978
Gh(H)     -1.391426    -1.135169     1.456088
Gh(H)     -2.055481    -2.392826     1.818252
Gh(O)     -1.984809     2.487522     0.009885
Gh(H)     -1.495227     1.853035    -0.535053
Gh(H)     -2.258934     2.039837     0.854695
O         -2.275006    -1.329324    -2.141041
H         -1.778768    -1.181051    -2.948824
H         -1.760804    -0.928569    -1.475808

units ang
no_reorient
no_com
symmetry c1
}

set {
basis        aug-cc-pVTZ
scf_type     df
}

energy("mp2")
--------------------------------------------------------------------------

    Molecular point group: c1

    Geometry (in Angstrom), charge = 0, multiplicity = 1:

       Center              X                  Y                   Z               Mass
    ------------   -----------------  -----------------  -----------------  -----------------
      Gh(BR)          0.000000000000     0.000000000000     0.000000000000    78.918337600000
      Gh(O)          -0.088017000000     2.381552000000    -2.261185000000    15.994914619570
      Gh(H)           0.085852000000     1.513908000000    -1.878612000000     1.007825032230
      Gh(H)          -0.607832000000     2.226833000000    -3.041716000000     1.007825032230
      Gh(O)           3.292755000000    -0.049072000000    -1.394388000000    15.994914619570
      Gh(H)           3.313770000000     0.293662000000    -0.438862000000     1.007825032230
      Gh(H)           3.329681000000    -1.029261000000    -1.327193000000     1.007825032230
      Gh(O)          -1.887489000000    -1.542891000000     2.210978000000    15.994914619570
      Gh(H)          -1.391426000000    -1.135169000000     1.456088000000     1.007825032230
      Gh(H)          -2.055481000000    -2.392826000000     1.818252000000     1.007825032230
      Gh(O)          -1.984809000000     2.487522000000     0.009885000000    15.994914619570
      Gh(H)          -1.495227000000     1.853035000000    -0.535053000000     1.007825032230
      Gh(H)          -2.258934000000     2.039837000000     0.854695000000     1.007825032230
         O           -2.275006000000    -1.329324000000    -2.141041000000    15.994914619570
         H           -1.778768000000    -1.181051000000    -2.948824000000     1.007825032230
         H           -1.760804000000    -0.928569000000    -1.475808000000     1.007825032230

  Charge       = 0
  Multiplicity = 1
  Basis Set: AUG-CC-PVTZ
    Blend: AUG-CC-PVTZ
  Basis Set: (AUG-CC-PVTZ AUX)
    Blend: AUG-CC-PVTZ-JKFIT

    Orbital Energies [Eh]
    ---------------------

    Doubly Occupied:

       1A    -20.565026     2A     -1.359985     3A     -0.724202
       4A     -0.587239     5A     -0.511373

  @DF-RHF Final Energy:   -76.06071736187434

   => Energetics <=

    Nuclear Repulsion Energy =              9.3110243811184699
    One-Electron Energy =                -123.2478321218515589
    Two-Electron Energy =                  37.8760903788587484
    Total Energy =                        -76.0607173618743388
 Dipole X            :         41.7593622          -41.0819279            0.6774343
 Dipole Y            :         24.4519404          -24.0830704            0.3688700
 Dipole Z            :         40.6387902          -40.7291916           -0.0904014
 Magnitude           :                                                    0.7766304
  Basis Set: (AUG-CC-PVTZ AUX)
    Blend: AUG-CC-PVTZ-RI
	 Reference Energy          =     -76.0607173618743388 [Eh]
	 Singles Energy            =      -0.0000000000000000 [Eh]
	 Same-Spin Energy          =      -0.0681818286714923 [Eh]
	 Opposite-Spin Energy      =      -0.2153014518442658 [Eh]
	 Correlation Energy        =      -0.2834832805157582 [Eh]
	 Total Energy              =     -76.3442006423900921 [Eh]

	 ================> DF-SCS-MP2 Energies <==================
	-----------------------------------------------------------
	 SCS Same-Spin Scale       =       0.3333333333333333 [-]
	 SCS Opposite-Spin Scale   =       1.2000000000000000 [-]
	 SCS Same-Spin Energy      =      -0.0227272762238308 [Eh]
	 SCS Opposite-Spin Energy  =      -0.2583617422131190 [Eh]
	 SCS Correlation Energy    =      -0.2810890184369497 [Eh]
	 SCS Total Energy          =     -76.3418063803112830 [Eh]
	-----------------------------------------------------------

*** Psi4 exiting successfully. Buy a developer a beer!
