                               Psi4 1.8.2 release

  ==> Input File <==

--------------------------------------------------------------------------
MEMORY 60 GB

molecule dimer {
0 1
Gh(Br)     0.000000     0.000000     0.000000
O          0.907598    -3.034016    -0.451314
H          0.892890    -2.061947    -0.424380
H          1.171918    -3.349880     0.408425
Gh(O)      2.003620    -0.060569     2.713891
Gh(H)      1.339719     0.557371     2.425223
Gh(H)      2.579032     0.542567     3.258704
Gh(O)      1.853817     0.385000    -2.659522
Gh(H)      2.431046    -0.410080    -2.411062
Gh(H)      1.417523     0.543139    -1.862559
Gh(O)      0.164337     3.154937    -0.854991
Gh(H)      0.250547     2.315141    -0.320131
Gh(H)      1.066341     3.225957    -1.078370

units ang
no_reorient
no_com
symmetry c1
}

set {
basis        aug-cc-pVTZ
scf_type     df
}

energy("mp2")
--------------------------------------------------------------------------

    Molecular point group: c1

    Geometry (in Angstrom), charge = 0, multiplicity = 1:

       Center              X                  Y                   Z               Mass
    ------------   -----------------  -----------------  -----------------  -----------------
      Gh(BR)          0.000000000000     0.000000000000     0.000000000000    78.918337600000
         O            0.907598000000    -3.034016000000    -0.451314000000    15.994914619570
         H            0.892890000000    -2.061947000000    -0.424380000000     1.007825032230
         H            1.171918000000    -3.349880000000     0.408425000000     1.007825032230
      Gh(O)           2.003620000000    -0.060569000000     2.713891000000    15.994914619570
      Gh(H)           1.339719000000     0.557371000000     2.425223000000     1.007825032230
      Gh(H)           2.579032000000     0.542567000000     3.258704000000     1.007825032230
      Gh(O)           1.853817000000     0.385000000000    -2.659522000000    15.994914619570
      Gh(H)           2.431046000000    -0.410080000000    -2.411062000000     1.007825032230
      Gh(H)           1.417523000000     0.543139000000    -1.862559000000     1.007825032230
      Gh(O)           0.164337000000     3.154937000000    -0.854991000000    15.994914619570
      Gh(H)           0.250547000000     2.315141000000    -0.320131000000     1.007825032230
      Gh(H)           1.066341000000     3.225957000000    -1.078370000000     1.007825032230

  Charge       = 0
  Multiplicity = 1
  Basis Set: AUG-CC-PVTZ
    Blend: AUG-CC-PVTZ
  Basis Set: (AUG-CC-PVTZ AUX)
    Blend: AUG-CC-PVTZ-JKFIT

    Orbital Energies [Eh]
    ---------------------

    Doubly Occupied:

       1A    -20.566492     2A     -1.348208     3A     -0.721395
       4A     -0.576829     5A     -0.508811

  @DF-RHF Final Energy:   -76.05990965222477

   => Energetics <=

    Nuclear Repulsion Energy =              9.1331341369791712
    One-Electron Energy =                -122.9426140907648346
    Two-Electron Energy =                  37.7495703015609010
    Total Energy =                        -76.0599096522247748
 Dipole X            :        -17.4548289           17.6228148            0.1679859
 Dipole Y            :         56.5323349          -56.0945453            0.4377896
 Dipole Z            :          7.4488978           -6.8530294            0.5958683
 Magnitude           :                                                    0.7582467
  Basis Set: (AUG-CC-PVTZ AUX)
    Blend: AUG-CC-PVTZ-RI
	 Reference Energy          =     -76.0599096522247748 [Eh]
	 Singles Energy            =      -0.0000000000000000 [Eh]
	 Same-Spin Energy          =      -0.0684276416540377 [Eh]
	 Opposite-Spin Energy      =      -0.2158432256265681 [Eh]
	 Correlation Energy        =      -0.2842708672806059 [Eh]
	 Total Energy              =     -76.3441805195053860 [Eh]

	 ================> DF-SCS-MP2 Energies <==================
	-----------------------------------------------------------
	 SCS Same-Spin Scale       =       0.3333333333333333 [-]
	 SCS Opposite-Spin Scale   =       1.2000000000000000 [-]
	 SCS Same-Spin Energy      =      -0.0228092138846792 [Eh]
	 SCS Opposite-Spin Energy  =      -0.2590118707518818 [Eh]
	 SCS Correlation Energy    =      -0.2818210846365610 [Eh]
	 SCS Total Energy          =     -76.3417307368613365 [Eh]
	-----------------------------------------------------------

*** Psi4 exiting successfully. Buy a developer a beer!
