                               Psi4 1.8.2 release

  ==> Input File <==

--------------------------------------------------------------------------
MEMORY 60 GB

molecule dimer {
0 1
Gh(Br)     0.000000     0.000000     0.000000
Gh(O)      1.943362     2.492757     1.142910
Gh(H)      2.853656     2.365277     0.915650
Gh(H)      1.414503     1.767381     0.739501
O          2.828599    -1.316138    -0.243498
H          1.991575    -1.027562     0.115147
H          2.923425    -0.868601    -1.085454
Gh(O)     -1.187233    -3.096829    -0.068719
Gh(H)     -1.015863    -2.191810     0.131593
Gh(H)     -0.434378    -3.240086    -0.566381
Gh(O)     -1.630611     1.500183     2.569503
Gh(H)     -1.143522     1.019930     1.833037
Gh(H)     -1.089551     2.321043     2.728925
Gh(O)      0.795952     1.602190    -3.133141
Gh(H)      1.463263     0.954500    -2.826078
Gh(H)     -0.107599     1.347855    -3.018310

units ang
no_reorient
no_com
symmetry c1
}

set {
basis        aug-cc-pVTZ
scf_type     df
}

energy("mp2")
--------------------------------------------------------------------------

    Molecular point group: c1

    Geometry (in Angstrom), charge = 0, multiplicity = 1:

       Center              X                  Y                   Z               Mass
    ------------   -----------------  -----------------  -----------------  -----------------
      Gh(BR)          0.000000000000     0.000000000000     0.000000000000    78.918337600000
      Gh(O)           1.943362000000     2.492757000000     1.142910000000    15.994914619570
      Gh(H)           2.853656000000     2.365277000000     0.915650000000     1.007825032230
      Gh(H)           1.414503000000     1.767381000000     0.739501000000     1.007825032230
         O            2.828599000000    -1.316138000000    -0.243498000000    15.994914619570
         H            1.991575000000    -1.027562000000     0.115147000000     1.007825032230
         H            2.923425000000    -0.868601000000    -1.085454000000     1.007825032230
      Gh(O)          -1.187233000000    -3.096829000000    -0.068719000000    15.994914619570
      Gh(H)          -1.015863000000    -2.191810000000     0.131593000000     1.007825032230
      Gh(H)          -0.434378000000    -3.240086000000    -0.566381000000     1.007825032230
      Gh(O)          -1.630611000000     1.500183000000     2.569503000000    15.994914619570
      Gh(H)          -1.143522000000     1.019930000000     1.833037000000     1.007825032230
      Gh(H)          -1.089551000000     2.321043000000     2.728925000000     1.007825032230
      Gh(O)           0.795952000000     1.602190000000    -3.133141000000    15.994914619570
      Gh(H)           1.463263000000     0.954500000000    -2.826078000000     1.007825032230
      Gh(H)          -0.107599000000     1.347855000000    -3.018310000000     1.007825032230

  Charge       = 0
  Multiplicity = 1
  Basis Set: AUG-CC-PVTZ
    Blend: AUG-CC-PVTZ
  Basis Set: (AUG-CC-PVTZ AUX)
    Blend: AUG-CC-PVTZ-JKFIT

    Orbital Energies [Eh]
    ---------------------

    Doubly Occupied:

       1A    -20.566391     2A     -1.352747     3A     -0.720917
       4A     -0.582100     5A     -0.509938

  @DF-RHF Final Energy:   -76.06074533390563

   => Energetics <=

    Nuclear Repulsion Energy =              9.1960524818189775
    One-Electron Energy =                -123.0494068482632031
    Two-Electron Energy =                  37.7926090325385786
    Total Energy =                        -76.0607453339056434
 Dipole X            :        -52.5468680           52.0502233           -0.4966447
 Dipole Y            :         23.9723943          -23.4803517            0.4920427
 Dipole Z            :          5.1924111           -5.5147707           -0.3223596
 Magnitude           :                                                    0.7698556
  Basis Set: (AUG-CC-PVTZ AUX)
    Blend: AUG-CC-PVTZ-RI
	 Reference Energy          =     -76.0607453339056292 [Eh]
	 Singles Energy            =      -0.0000000000000000 [Eh]
	 Same-Spin Energy          =      -0.0683528826767375 [Eh]
	 Opposite-Spin Energy      =      -0.2157946274391850 [Eh]
	 Correlation Energy        =      -0.2841475101159225 [Eh]
	 Total Energy              =     -76.3448928440215582 [Eh]

	 ================> DF-SCS-MP2 Energies <==================
	-----------------------------------------------------------
	 SCS Same-Spin Scale       =       0.3333333333333333 [-]
	 SCS Opposite-Spin Scale   =       1.2000000000000000 [-]
	 SCS Same-Spin Energy      =      -0.0227842942255792 [Eh]
	 SCS Opposite-Spin Energy  =      -0.2589535529270220 [Eh]
	 SCS Correlation Energy    =      -0.2817378471526012 [Eh]
	 SCS Total Energy          =     -76.3424831810582276 [Eh]
	-----------------------------------------------------------

*** Psi4 exiting successfully. Buy a developer a beer!
