                               Psi4 1.8.2 release

  ==> Input File <==

--------------------------------------------------------------------------
MEMORY 60 GB

molecule dimer {
-1 1
Br         0.000000     0.000000     0.000000
Gh(O)     -2.276881    -1.899460     1.400580
Gh(H)     -2.198589    -1.582245     2.312148
Gh(H)     -1.483800    -1.556681     0.911434
Gh(O)      0.558217    -1.514625     3.077996
Gh(H)      0.481697    -2.382991     2.719831
Gh(H)      0.514443    -0.980773     2.257969
Gh(O)     -3.207653     0.544694    -0.640069
Gh(H)     -2.307200     0.537132    -0.484230
Gh(H)     -3.309605     1.334027    -1.206248
Gh(O)     -1.719668     1.404403     2.550898
Gh(H)     -0.978194     1.949422     2.833464
Gh(H)     -1.447545     0.991534     1.688828

units ang
no_reorient
no_com
symmetry c1
}

set {
basis        aug-cc-pVTZ
scf_type     df
}

energy("mp2")
--------------------------------------------------------------------------

    Molecular point group: c1

    Geometry (in Angstrom), charge = -1, multiplicity = 1:

       Center              X                  Y                   Z               Mass
    ------------   -----------------  -----------------  -----------------  -----------------
         BR           0.000000000000     0.000000000000     0.000000000000    78.918337600000
      Gh(O)          -2.276881000000    -1.899460000000     1.400580000000    15.994914619570
      Gh(H)          -2.198589000000    -1.582245000000     2.312148000000     1.007825032230
      Gh(H)          -1.483800000000    -1.556681000000     0.911434000000     1.007825032230
      Gh(O)           0.558217000000    -1.514625000000     3.077996000000    15.994914619570
      Gh(H)           0.481697000000    -2.382991000000     2.719831000000     1.007825032230
      Gh(H)           0.514443000000    -0.980773000000     2.257969000000     1.007825032230
      Gh(O)          -3.207653000000     0.544694000000    -0.640069000000    15.994914619570
      Gh(H)          -2.307200000000     0.537132000000    -0.484230000000     1.007825032230
      Gh(H)          -3.309605000000     1.334027000000    -1.206248000000     1.007825032230
      Gh(O)          -1.719668000000     1.404403000000     2.550898000000    15.994914619570
      Gh(H)          -0.978194000000     1.949422000000     2.833464000000     1.007825032230
      Gh(H)          -1.447545000000     0.991534000000     1.688828000000     1.007825032230

  Charge       = -1
  Multiplicity = 1
  Basis Set: AUG-CC-PVTZ
    Blend: AUG-CC-PVTZ
  Basis Set: (AUG-CC-PVTZ AUX)
    Blend: AUG-CC-PVTZ-JKFIT

    Orbital Energies [Eh]
    ---------------------

    Doubly Occupied:

       1A   -489.722005     2A    -64.861637     3A    -58.216168
       4A    -58.216166     5A    -58.216165     6A     -9.533237
       7A     -7.140578     8A     -7.140563     9A     -7.140560
      10A     -2.882288    11A     -2.882278    12A     -2.882262
      13A     -2.882251    14A     -2.882247    15A     -0.685995
      16A     -0.139340    17A     -0.139337    18A     -0.139335

  @DF-RHF Final Energy: -2572.53372167037423

   => Energetics <=

    Nuclear Repulsion Energy =              0.0000000000000000
    One-Electron Energy =               -3593.6626208337193020
    Two-Electron Energy =                1021.1288991633447267
    Total Energy =                      -2572.5337216703746890
 Dipole X            :         -0.0002205            0.0000000           -0.0002205
 Dipole Y            :         -0.0000969            0.0000000           -0.0000969
 Dipole Z            :          0.0001207            0.0000000            0.0001207
 Magnitude           :                                                    0.0002694
  Basis Set: (AUG-CC-PVTZ AUX)
    Blend: AUG-CC-PVTZ-RI
	 Reference Energy          =   -2572.5337216703742342 [Eh]
	 Singles Energy            =      -0.0000000000000000 [Eh]
	 Same-Spin Energy          =      -0.0908122127448206 [Eh]
	 Opposite-Spin Energy      =      -0.2114201078355226 [Eh]
	 Correlation Energy        =      -0.3022323205803431 [Eh]
	 Total Energy              =   -2572.8359539909547493 [Eh]

	 ================> DF-SCS-MP2 Energies <==================
	-----------------------------------------------------------
	 SCS Same-Spin Scale       =       0.3333333333333333 [-]
	 SCS Opposite-Spin Scale   =       1.2000000000000000 [-]
	 SCS Same-Spin Energy      =      -0.0302707375816069 [Eh]
	 SCS Opposite-Spin Energy  =      -0.2537041294026270 [Eh]
	 SCS Correlation Energy    =      -0.2839748669842339 [Eh]
	 SCS Total Energy          =   -2572.8176965373586427 [Eh]
	-----------------------------------------------------------

*** Psi4 exiting successfully. Buy a developer a beer!
