                               Psi4 1.8.2 release

  ==> Input File <==

--------------------------------------------------------------------------
MEMORY 60 GB

molecule dimer {
0 1
Gh(Br)     0.000000     0.000000     0.000000
O         -0.589641     1.981122    -2.700950
H         -0.352083     1.498565    -1.927478
H          0.291278     2.138304    -3.079812
Gh(O)     -0.614349     3.140419     0.660389
Gh(H)     -1.466447     3.242082     0.197508
Gh(H)     -0.129896     2.300579     0.382244
Gh(O)      1.920213    -0.518193     2.687699
Gh(H)      2.197835     0.425939     2.874306
Gh(H)      1.083802    -0.483503     2.156645
Gh(O)     -1.496158    -2.247040     1.826228
Gh(H)     -1.236232    -1.353537     1.456673
Gh(H)     -0.761899    -2.827253     1.477870
Gh(O)     -0.445692     1.514137     3.176920
Gh(H)     -0.182736     0.818354     3.872867
Gh(H)     -0.524766     1.099695     2.328947
Gh(O)     -3.061657     0.895335    -0.093977
Gh(H)     -2.099177     0.663244     0.089351
Gh(H)     -3.264239     0.403587    -0.926203

units ang
no_reorient
no_com
symmetry c1
}

set {
basis        aug-cc-pVTZ
scf_type     df
}

energy("mp2")
--------------------------------------------------------------------------

    Molecular point group: c1

    Geometry (in Angstrom), charge = 0, multiplicity = 1:

       Center              X                  Y                   Z               Mass
    ------------   -----------------  -----------------  -----------------  -----------------
      Gh(BR)          0.000000000000     0.000000000000     0.000000000000    78.918337600000
         O           -0.589641000000     1.981122000000    -2.700950000000    15.994914619570
         H           -0.352083000000     1.498565000000    -1.927478000000     1.007825032230
         H            0.291278000000     2.138304000000    -3.079812000000     1.007825032230
      Gh(O)          -0.614349000000     3.140419000000     0.660389000000    15.994914619570
      Gh(H)          -1.466447000000     3.242082000000     0.197508000000     1.007825032230
      Gh(H)          -0.129896000000     2.300579000000     0.382244000000     1.007825032230
      Gh(O)           1.920213000000    -0.518193000000     2.687699000000    15.994914619570
      Gh(H)           2.197835000000     0.425939000000     2.874306000000     1.007825032230
      Gh(H)           1.083802000000    -0.483503000000     2.156645000000     1.007825032230
      Gh(O)          -1.496158000000    -2.247040000000     1.826228000000    15.994914619570
      Gh(H)          -1.236232000000    -1.353537000000     1.456673000000     1.007825032230
      Gh(H)          -0.761899000000    -2.827253000000     1.477870000000     1.007825032230
      Gh(O)          -0.445692000000     1.514137000000     3.176920000000    15.994914619570
      Gh(H)          -0.182736000000     0.818354000000     3.872867000000     1.007825032230
      Gh(H)          -0.524766000000     1.099695000000     2.328947000000     1.007825032230
      Gh(O)          -3.061657000000     0.895335000000    -0.093977000000    15.994914619570
      Gh(H)          -2.099177000000     0.663244000000     0.089351000000     1.007825032230
      Gh(H)          -3.264239000000     0.403587000000    -0.926203000000     1.007825032230

  Charge       = 0
  Multiplicity = 1
  Basis Set: AUG-CC-PVTZ
    Blend: AUG-CC-PVTZ
  Basis Set: (AUG-CC-PVTZ AUX)
    Blend: AUG-CC-PVTZ-JKFIT

    Orbital Energies [Eh]
    ---------------------

    Doubly Occupied:

       1A    -20.568927     2A     -1.357246     3A     -0.709092
       4A     -0.593691     5A     -0.511670

  @DF-RHF Final Energy:   -76.05942409540374

   => Energetics <=

    Nuclear Repulsion Energy =              9.2109747050219770
    One-Electron Energy =                -123.0595414805953425
    Two-Electron Energy =                  37.7891426801696255
    Total Energy =                        -76.0594240954037275
 Dipole X            :          9.7616475           -9.0289848            0.7326627
 Dipole Y            :        -37.0397121           36.8229104           -0.2168017
 Dipole Z            :         50.5589544          -50.2948530            0.2641014
 Magnitude           :                                                    0.8084226
  Basis Set: (AUG-CC-PVTZ AUX)
    Blend: AUG-CC-PVTZ-RI
	 Reference Energy          =     -76.0594240954037417 [Eh]
	 Singles Energy            =      -0.0000000000000000 [Eh]
	 Same-Spin Energy          =      -0.0684993231039361 [Eh]
	 Opposite-Spin Energy      =      -0.2162208674892591 [Eh]
	 Correlation Energy        =      -0.2847201905931953 [Eh]
	 Total Energy              =     -76.3441442859969328 [Eh]

	 ================> DF-SCS-MP2 Energies <==================
	-----------------------------------------------------------
	 SCS Same-Spin Scale       =       0.3333333333333333 [-]
	 SCS Opposite-Spin Scale   =       1.2000000000000000 [-]
	 SCS Same-Spin Energy      =      -0.0228331077013120 [Eh]
	 SCS Opposite-Spin Energy  =      -0.2594650409871109 [Eh]
	 SCS Correlation Energy    =      -0.2822981486884230 [Eh]
	 SCS Total Energy          =     -76.3417222440921677 [Eh]
	-----------------------------------------------------------

*** Psi4 exiting successfully. Buy a developer a beer!
