                               Psi4 1.8.2 release

  ==> Input File <==

--------------------------------------------------------------------------
MEMORY 60 GB

molecule dimer {
0 1
Gh(Br)     0.000000     0.000000     0.000000
Gh(O)      1.945893     0.262012    -2.944461
Gh(H)      2.825168     0.000048    -2.764125
Gh(H)      1.492154     0.128599    -2.083365
Gh(O)      1.918090    -2.759463     0.110152
Gh(H)      2.249433    -3.068366     0.986392
Gh(H)      1.495298    -1.822514     0.139316
Gh(O)     -0.118445     3.259334     0.447045
Gh(H)      0.218183     2.360201     0.174258
Gh(H)     -0.788624     3.412072    -0.216775
Gh(O)     -1.467014     0.339355    -3.263026
Gh(H)     -2.372942     0.465663    -2.906747
Gh(H)     -0.878477     0.065588    -2.558990
Gh(O)     -3.316037    -0.369815     0.274592
Gh(H)     -2.663704    -1.042109     0.576311
Gh(H)     -3.997139    -0.433657     0.965591
Gh(O)      3.111664     0.648515     1.096188
Gh(H)      2.163031     0.405322     0.957248
Gh(H)      3.130519     1.210000     1.863659
Gh(O)     -1.031067    -3.136478    -0.817819
Gh(H)     -0.145501    -2.816616    -0.879827
Gh(H)     -1.232430    -3.165983     0.108864
O          0.920696    -0.819222     3.154004
H          1.852436    -0.484491     3.317884
H          0.572531    -0.433290     2.303889

units ang
no_reorient
no_com
symmetry c1
}

set {
basis        aug-cc-pVTZ
scf_type     df
}

energy("mp2")
--------------------------------------------------------------------------

    Molecular point group: c1

    Geometry (in Angstrom), charge = 0, multiplicity = 1:

       Center              X                  Y                   Z               Mass
    ------------   -----------------  -----------------  -----------------  -----------------
      Gh(BR)          0.000000000000     0.000000000000     0.000000000000    78.918337600000
      Gh(O)           1.945893000000     0.262012000000    -2.944461000000    15.994914619570
      Gh(H)           2.825168000000     0.000048000000    -2.764125000000     1.007825032230
      Gh(H)           1.492154000000     0.128599000000    -2.083365000000     1.007825032230
      Gh(O)           1.918090000000    -2.759463000000     0.110152000000    15.994914619570
      Gh(H)           2.249433000000    -3.068366000000     0.986392000000     1.007825032230
      Gh(H)           1.495298000000    -1.822514000000     0.139316000000     1.007825032230
      Gh(O)          -0.118445000000     3.259334000000     0.447045000000    15.994914619570
      Gh(H)           0.218183000000     2.360201000000     0.174258000000     1.007825032230
      Gh(H)          -0.788624000000     3.412072000000    -0.216775000000     1.007825032230
      Gh(O)          -1.467014000000     0.339355000000    -3.263026000000    15.994914619570
      Gh(H)          -2.372942000000     0.465663000000    -2.906747000000     1.007825032230
      Gh(H)          -0.878477000000     0.065588000000    -2.558990000000     1.007825032230
      Gh(O)          -3.316037000000    -0.369815000000     0.274592000000    15.994914619570
      Gh(H)          -2.663704000000    -1.042109000000     0.576311000000     1.007825032230
      Gh(H)          -3.997139000000    -0.433657000000     0.965591000000     1.007825032230
      Gh(O)           3.111664000000     0.648515000000     1.096188000000    15.994914619570
      Gh(H)           2.163031000000     0.405322000000     0.957248000000     1.007825032230
      Gh(H)           3.130519000000     1.210000000000     1.863659000000     1.007825032230
      Gh(O)          -1.031067000000    -3.136478000000    -0.817819000000    15.994914619570
      Gh(H)          -0.145501000000    -2.816616000000    -0.879827000000     1.007825032230
      Gh(H)          -1.232430000000    -3.165983000000     0.108864000000     1.007825032230
         O            0.920696000000    -0.819222000000     3.154004000000    15.994914619570
         H            1.852436000000    -0.484491000000     3.317884000000     1.007825032230
         H            0.572531000000    -0.433290000000     2.303889000000     1.007825032230

  Charge       = 0
  Multiplicity = 1
  Basis Set: AUG-CC-PVTZ
    Blend: AUG-CC-PVTZ
  Basis Set: (AUG-CC-PVTZ AUX)
    Blend: AUG-CC-PVTZ-JKFIT

    Orbital Energies [Eh]
    ---------------------

    Doubly Occupied:

       1A    -20.571916     2A     -1.329290     3A     -0.703594
       4A     -0.567098     5A     -0.505354

  @DF-RHF Final Energy:   -76.05392727620719

   => Energetics <=

    Nuclear Repulsion Energy =              8.7911232887773263
    One-Electron Energy =                -122.3355944735200183
    Two-Electron Energy =                  37.4905439085355070
    Total Energy =                        -76.0539272762071903
 Dipole X            :        -18.1189054           18.5014298            0.3825244
 Dipole Y            :         14.5932683          -14.1191965            0.4740719
 Dipole Z            :        -58.7571678           58.3052414           -0.4519264
 Magnitude           :                                                    0.7584896
  Basis Set: (AUG-CC-PVTZ AUX)
    Blend: AUG-CC-PVTZ-RI
	 Reference Energy          =     -76.0539272762071903 [Eh]
	 Singles Energy            =      -0.0000000000000000 [Eh]
	 Same-Spin Energy          =      -0.0690816328125178 [Eh]
	 Opposite-Spin Energy      =      -0.2180831822989263 [Eh]
	 Correlation Energy        =      -0.2871648151114441 [Eh]
	 Total Energy              =     -76.3410920913186288 [Eh]

	 ================> DF-SCS-MP2 Energies <==================
	-----------------------------------------------------------
	 SCS Same-Spin Scale       =       0.3333333333333333 [-]
	 SCS Opposite-Spin Scale   =       1.2000000000000000 [-]
	 SCS Same-Spin Energy      =      -0.0230272109375059 [Eh]
	 SCS Opposite-Spin Energy  =      -0.2616998187587116 [Eh]
	 SCS Correlation Energy    =      -0.2847270296962175 [Eh]
	 SCS Total Energy          =     -76.3386543059034040 [Eh]
	-----------------------------------------------------------

*** Psi4 exiting successfully. Buy a developer a beer!
