                               Psi4 1.8.2 release

  ==> Input File <==

--------------------------------------------------------------------------
MEMORY 60 GB

molecule dimer {
0 1
Gh(Br)     0.000000     0.000000     0.000000
Gh(O)      1.943362     2.492757     1.142910
Gh(H)      2.853656     2.365277     0.915650
Gh(H)      1.414503     1.767381     0.739501
Gh(O)      2.828599    -1.316138    -0.243498
Gh(H)      1.991575    -1.027562     0.115147
Gh(H)      2.923425    -0.868601    -1.085454
Gh(O)     -1.187233    -3.096829    -0.068719
Gh(H)     -1.015863    -2.191810     0.131593
Gh(H)     -0.434378    -3.240086    -0.566381
Gh(O)     -1.630611     1.500183     2.569503
Gh(H)     -1.143522     1.019930     1.833037
Gh(H)     -1.089551     2.321043     2.728925
O          0.795952     1.602190    -3.133141
H          1.463263     0.954500    -2.826078
H         -0.107599     1.347855    -3.018310

units ang
no_reorient
no_com
symmetry c1
}

set {
basis        aug-cc-pVTZ
scf_type     df
}

energy("mp2")
--------------------------------------------------------------------------

    Molecular point group: c1

    Geometry (in Angstrom), charge = 0, multiplicity = 1:

       Center              X                  Y                   Z               Mass
    ------------   -----------------  -----------------  -----------------  -----------------
      Gh(BR)          0.000000000000     0.000000000000     0.000000000000    78.918337600000
      Gh(O)           1.943362000000     2.492757000000     1.142910000000    15.994914619570
      Gh(H)           2.853656000000     2.365277000000     0.915650000000     1.007825032230
      Gh(H)           1.414503000000     1.767381000000     0.739501000000     1.007825032230
      Gh(O)           2.828599000000    -1.316138000000    -0.243498000000    15.994914619570
      Gh(H)           1.991575000000    -1.027562000000     0.115147000000     1.007825032230
      Gh(H)           2.923425000000    -0.868601000000    -1.085454000000     1.007825032230
      Gh(O)          -1.187233000000    -3.096829000000    -0.068719000000    15.994914619570
      Gh(H)          -1.015863000000    -2.191810000000     0.131593000000     1.007825032230
      Gh(H)          -0.434378000000    -3.240086000000    -0.566381000000     1.007825032230
      Gh(O)          -1.630611000000     1.500183000000     2.569503000000    15.994914619570
      Gh(H)          -1.143522000000     1.019930000000     1.833037000000     1.007825032230
      Gh(H)          -1.089551000000     2.321043000000     2.728925000000     1.007825032230
         O            0.795952000000     1.602190000000    -3.133141000000    15.994914619570
         H            1.463263000000     0.954500000000    -2.826078000000     1.007825032230
         H           -0.107599000000     1.347855000000    -3.018310000000     1.007825032230

  Charge       = 0
  Multiplicity = 1
  Basis Set: AUG-CC-PVTZ
    Blend: AUG-CC-PVTZ
  Basis Set: (AUG-CC-PVTZ AUX)
    Blend: AUG-CC-PVTZ-JKFIT

    Orbital Energies [Eh]
    ---------------------

    Doubly Occupied:

       1A    -20.562658     2A     -1.343496     3A     -0.734969
       4A     -0.562235     5A     -0.506429

  @DF-RHF Final Energy:   -76.05713152287420

   => Energetics <=

    Nuclear Repulsion Energy =              9.1239273135956829
    One-Electron Energy =                -122.9425407039698825
    Two-Electron Energy =                  37.7614818674999952
    Total Energy =                        -76.0571315228742009
 Dipole X            :        -14.7608434           14.5948840           -0.1659595
 Dipole Y            :        -29.1921482           28.5724228           -0.6197254
 Dipole Z            :         58.7001905          -58.4105199            0.2896706
 Magnitude           :                                                    0.7039255
  Basis Set: (AUG-CC-PVTZ AUX)
    Blend: AUG-CC-PVTZ-RI
	 Reference Energy          =     -76.0571315228742009 [Eh]
	 Singles Energy            =      -0.0000000000000000 [Eh]
	 Same-Spin Energy          =      -0.0683832217339976 [Eh]
	 Opposite-Spin Energy      =      -0.2153520936325063 [Eh]
	 Correlation Energy        =      -0.2837353153665039 [Eh]
	 Total Energy              =     -76.3408668382407001 [Eh]

	 ================> DF-SCS-MP2 Energies <==================
	-----------------------------------------------------------
	 SCS Same-Spin Scale       =       0.3333333333333333 [-]
	 SCS Opposite-Spin Scale   =       1.2000000000000000 [-]
	 SCS Same-Spin Energy      =      -0.0227944072446659 [Eh]
	 SCS Opposite-Spin Energy  =      -0.2584225123590076 [Eh]
	 SCS Correlation Energy    =      -0.2812169196036735 [Eh]
	 SCS Total Energy          =     -76.3383484424778800 [Eh]
	-----------------------------------------------------------

*** Psi4 exiting successfully. Buy a developer a beer!
