                               Psi4 1.8.2 release

  ==> Input File <==

--------------------------------------------------------------------------
MEMORY 60 GB

molecule dimer {
-1 1
Br         0.000000     0.000000     0.000000
Gh(O)     -0.182304     3.494170    -0.605864
Gh(H)      0.120242     3.914423     0.257357
Gh(H)      0.132300     2.594793    -0.587648
Gh(O)     -2.270989    -2.543796    -0.135242
Gh(H)     -1.629269    -1.818732    -0.214141
Gh(H)     -2.769596    -2.373792     0.665191
Gh(O)     -2.622852     0.829441    -1.960167
Gh(H)     -1.727443     0.478275    -1.721753
Gh(H)     -2.825376     0.371547    -2.777806
Gh(O)     -0.227539    -1.062518     3.239792
Gh(H)     -0.110948    -1.919017     2.769254
Gh(H)     -0.127755    -0.388440     2.591113
Gh(O)      3.140969     1.639494    -0.214309
Gh(H)      3.024015     2.037304    -1.045371
Gh(H)      2.229103     1.295954     0.003369

units ang
no_reorient
no_com
symmetry c1
}

set {
basis        aug-cc-pVTZ
scf_type     df
}

energy("mp2")
--------------------------------------------------------------------------

    Molecular point group: c1

    Geometry (in Angstrom), charge = -1, multiplicity = 1:

       Center              X                  Y                   Z               Mass
    ------------   -----------------  -----------------  -----------------  -----------------
         BR           0.000000000000     0.000000000000     0.000000000000    78.918337600000
      Gh(O)          -0.182304000000     3.494170000000    -0.605864000000    15.994914619570
      Gh(H)           0.120242000000     3.914423000000     0.257357000000     1.007825032230
      Gh(H)           0.132300000000     2.594793000000    -0.587648000000     1.007825032230
      Gh(O)          -2.270989000000    -2.543796000000    -0.135242000000    15.994914619570
      Gh(H)          -1.629269000000    -1.818732000000    -0.214141000000     1.007825032230
      Gh(H)          -2.769596000000    -2.373792000000     0.665191000000     1.007825032230
      Gh(O)          -2.622852000000     0.829441000000    -1.960167000000    15.994914619570
      Gh(H)          -1.727443000000     0.478275000000    -1.721753000000     1.007825032230
      Gh(H)          -2.825376000000     0.371547000000    -2.777806000000     1.007825032230
      Gh(O)          -0.227539000000    -1.062518000000     3.239792000000    15.994914619570
      Gh(H)          -0.110948000000    -1.919017000000     2.769254000000     1.007825032230
      Gh(H)          -0.127755000000    -0.388440000000     2.591113000000     1.007825032230
      Gh(O)           3.140969000000     1.639494000000    -0.214309000000    15.994914619570
      Gh(H)           3.024015000000     2.037304000000    -1.045371000000     1.007825032230
      Gh(H)           2.229103000000     1.295954000000     0.003369000000     1.007825032230

  Charge       = -1
  Multiplicity = 1
  Basis Set: AUG-CC-PVTZ
    Blend: AUG-CC-PVTZ
  Basis Set: (AUG-CC-PVTZ AUX)
    Blend: AUG-CC-PVTZ-JKFIT

    Orbital Energies [Eh]
    ---------------------

    Doubly Occupied:

       1A   -489.721976     2A    -64.861635     3A    -58.216164
       4A    -58.216161     5A    -58.216159     6A     -9.533238
       7A     -7.140588     8A     -7.140562     9A     -7.140554
      10A     -2.882277    11A     -2.882271    12A     -2.882269
      13A     -2.882252    14A     -2.882237    15A     -0.685989
      16A     -0.139336    17A     -0.139332    18A     -0.139327

  @DF-RHF Final Energy: -2572.53372549361893

   => Energetics <=

    Nuclear Repulsion Energy =              0.0000000000000000
    One-Electron Energy =               -3593.6627975863139000
    Two-Electron Energy =                1021.1290720926947415
    Total Energy =                      -2572.5337254936193858
 Dipole X            :         -0.0001098            0.0000000           -0.0001098
 Dipole Y            :          0.0001513            0.0000000            0.0001513
 Dipole Z            :          0.0000345            0.0000000            0.0000345
 Magnitude           :                                                    0.0001901
  Basis Set: (AUG-CC-PVTZ AUX)
    Blend: AUG-CC-PVTZ-RI
	 Reference Energy          =   -2572.5337254936189311 [Eh]
	 Singles Energy            =      -0.0000000000000000 [Eh]
	 Same-Spin Energy          =      -0.0907685918744841 [Eh]
	 Opposite-Spin Energy      =      -0.2112301491900922 [Eh]
	 Correlation Energy        =      -0.3019987410645762 [Eh]
	 Total Energy              =   -2572.8357242346833118 [Eh]

	 ================> DF-SCS-MP2 Energies <==================
	-----------------------------------------------------------
	 SCS Same-Spin Scale       =       0.3333333333333333 [-]
	 SCS Opposite-Spin Scale   =       1.2000000000000000 [-]
	 SCS Same-Spin Energy      =      -0.0302561972914947 [Eh]
	 SCS Opposite-Spin Energy  =      -0.2534761790281106 [Eh]
	 SCS Correlation Energy    =      -0.2837323763196053 [Eh]
	 SCS Total Energy          =   -2572.8174578699386075 [Eh]
	-----------------------------------------------------------

*** Psi4 exiting successfully. Buy a developer a beer!
