                               Psi4 1.8.2 release

  ==> Input File <==

--------------------------------------------------------------------------
MEMORY 60 GB

molecule dimer {
-1 1
Br         0.000000     0.000000     0.000000
Gh(O)      0.827585    -0.673228     3.345565
Gh(H)      1.608849    -1.256143     3.487856
Gh(H)      0.809009    -0.281301     2.433452
Gh(O)     -0.064610     2.592766     1.902330
Gh(H)     -0.769192     3.247236     1.817366
Gh(H)     -0.304759     1.892666     1.320770
Gh(O)      2.158632    -2.165332    -1.610499
Gh(H)      1.952538    -1.333555    -1.224842
Gh(H)      3.138913    -2.262052    -1.619831
Gh(O)      3.156044     1.337992    -0.732851
Gh(H)      3.306466     0.506097    -0.217667
Gh(H)      2.230436     1.255178    -0.739111

units ang
no_reorient
no_com
symmetry c1
}

set {
basis        aug-cc-pVTZ
scf_type     df
}

energy("mp2")
--------------------------------------------------------------------------

    Molecular point group: c1

    Geometry (in Angstrom), charge = -1, multiplicity = 1:

       Center              X                  Y                   Z               Mass
    ------------   -----------------  -----------------  -----------------  -----------------
         BR           0.000000000000     0.000000000000     0.000000000000    78.918337600000
      Gh(O)           0.827585000000    -0.673228000000     3.345565000000    15.994914619570
      Gh(H)           1.608849000000    -1.256143000000     3.487856000000     1.007825032230
      Gh(H)           0.809009000000    -0.281301000000     2.433452000000     1.007825032230
      Gh(O)          -0.064610000000     2.592766000000     1.902330000000    15.994914619570
      Gh(H)          -0.769192000000     3.247236000000     1.817366000000     1.007825032230
      Gh(H)          -0.304759000000     1.892666000000     1.320770000000     1.007825032230
      Gh(O)           2.158632000000    -2.165332000000    -1.610499000000    15.994914619570
      Gh(H)           1.952538000000    -1.333555000000    -1.224842000000     1.007825032230
      Gh(H)           3.138913000000    -2.262052000000    -1.619831000000     1.007825032230
      Gh(O)           3.156044000000     1.337992000000    -0.732851000000    15.994914619570
      Gh(H)           3.306466000000     0.506097000000    -0.217667000000     1.007825032230
      Gh(H)           2.230436000000     1.255178000000    -0.739111000000     1.007825032230

  Charge       = -1
  Multiplicity = 1
  Basis Set: AUG-CC-PVTZ
    Blend: AUG-CC-PVTZ
  Basis Set: (AUG-CC-PVTZ AUX)
    Blend: AUG-CC-PVTZ-JKFIT

    Orbital Energies [Eh]
    ---------------------

    Doubly Occupied:

       1A   -489.721802     2A    -64.861491     3A    -58.216014
       4A    -58.216013     5A    -58.216011     6A     -9.533186
       7A     -7.140526     8A     -7.140522     9A     -7.140504
      10A     -2.882229    11A     -2.882226    12A     -2.882218
      13A     -2.882201    14A     -2.882187    15A     -0.685992
      16A     -0.139337    17A     -0.139336    18A     -0.139331

  @DF-RHF Final Energy: -2572.53371775954110

   => Energetics <=

    Nuclear Repulsion Energy =              0.0000000000000000
    One-Electron Energy =               -3593.6651837939857614
    Two-Electron Energy =                1021.1314660344446565
    Total Energy =                      -2572.5337177595411049
 Dipole X            :          0.0001722            0.0000000            0.0001722
 Dipole Y            :          0.0001449            0.0000000            0.0001449
 Dipole Z            :          0.0001382            0.0000000            0.0001382
 Magnitude           :                                                    0.0002642
  Basis Set: (AUG-CC-PVTZ AUX)
    Blend: AUG-CC-PVTZ-RI
	 Reference Energy          =   -2572.5337177595411049 [Eh]
	 Singles Energy            =      -0.0000000000000000 [Eh]
	 Same-Spin Energy          =      -0.0902392877320410 [Eh]
	 Opposite-Spin Energy      =      -0.2098768628584418 [Eh]
	 Correlation Energy        =      -0.3001161505904828 [Eh]
	 Total Energy              =   -2572.8338339101314887 [Eh]

	 ================> DF-SCS-MP2 Energies <==================
	-----------------------------------------------------------
	 SCS Same-Spin Scale       =       0.3333333333333333 [-]
	 SCS Opposite-Spin Scale   =       1.2000000000000000 [-]
	 SCS Same-Spin Energy      =      -0.0300797625773470 [Eh]
	 SCS Opposite-Spin Energy  =      -0.2518522354301301 [Eh]
	 SCS Correlation Energy    =      -0.2819319980074771 [Eh]
	 SCS Total Energy          =   -2572.8156497575487265 [Eh]
	-----------------------------------------------------------

*** Psi4 exiting successfully. Buy a developer a beer!
