                               Psi4 1.8.2 release

  ==> Input File <==

--------------------------------------------------------------------------
MEMORY 60 GB

molecule dimer {
0 1
Gh(Br)     0.000000     0.000000     0.000000
Gh(O)      2.465274    -2.082896    -1.151644
Gh(H)      2.088415    -1.327484    -0.739582
Gh(H)      3.392014    -2.150807    -0.795133
Gh(O)     -2.741984    -0.795186    -1.139633
Gh(H)     -3.050808    -1.748838    -1.012684
Gh(H)     -1.833173    -0.702090    -0.816427
O         -1.323507     2.305848    -2.078266
H         -1.377126     1.531047    -1.554944
H         -2.005493     2.942304    -1.677368
Gh(O)     -1.653707     2.630529     1.100887
Gh(H)     -0.964169     2.021284     0.768719
Gh(H)     -1.213494     3.129397     1.794661

units ang
no_reorient
no_com
symmetry c1
}

set {
basis        aug-cc-pVTZ
scf_type     df
}

energy("mp2")
--------------------------------------------------------------------------

    Molecular point group: c1

    Geometry (in Angstrom), charge = 0, multiplicity = 1:

       Center              X                  Y                   Z               Mass
    ------------   -----------------  -----------------  -----------------  -----------------
      Gh(BR)          0.000000000000     0.000000000000     0.000000000000    78.918337600000
      Gh(O)           2.465274000000    -2.082896000000    -1.151644000000    15.994914619570
      Gh(H)           2.088415000000    -1.327484000000    -0.739582000000     1.007825032230
      Gh(H)           3.392014000000    -2.150807000000    -0.795133000000     1.007825032230
      Gh(O)          -2.741984000000    -0.795186000000    -1.139633000000    15.994914619570
      Gh(H)          -3.050808000000    -1.748838000000    -1.012684000000     1.007825032230
      Gh(H)          -1.833173000000    -0.702090000000    -0.816427000000     1.007825032230
         O           -1.323507000000     2.305848000000    -2.078266000000    15.994914619570
         H           -1.377126000000     1.531047000000    -1.554944000000     1.007825032230
         H           -2.005493000000     2.942304000000    -1.677368000000     1.007825032230
      Gh(O)          -1.653707000000     2.630529000000     1.100887000000    15.994914619570
      Gh(H)          -0.964169000000     2.021284000000     0.768719000000     1.007825032230
      Gh(H)          -1.213494000000     3.129397000000     1.794661000000     1.007825032230

  Charge       = 0
  Multiplicity = 1
  Basis Set: AUG-CC-PVTZ
    Blend: AUG-CC-PVTZ
  Basis Set: (AUG-CC-PVTZ AUX)
    Blend: AUG-CC-PVTZ-JKFIT

    Orbital Energies [Eh]
    ---------------------

    Doubly Occupied:

       1A    -20.569804     2A     -1.345164     3A     -0.709193
       4A     -0.579716     5A     -0.508801

  @DF-RHF Final Energy:   -76.05605685727919

   => Energetics <=

    Nuclear Repulsion Energy =              9.0313679609385158
    One-Electron Energy =                -122.7494869799066919
    Two-Electron Energy =                  37.6620621616890077
    Total Energy =                        -76.0560568572791738
 Dipole X            :         25.9211530          -26.4007495           -0.4795965
 Dipole Y            :        -43.4166633           43.3127779           -0.1038854
 Dipole Z            :         38.1371968          -37.5270129            0.6101839
 Magnitude           :                                                    0.7830258
  Basis Set: (AUG-CC-PVTZ AUX)
    Blend: AUG-CC-PVTZ-RI
	 Reference Energy          =     -76.0560568572791880 [Eh]
	 Singles Energy            =      -0.0000000000000000 [Eh]
	 Same-Spin Energy          =      -0.0686906405440920 [Eh]
	 Opposite-Spin Energy      =      -0.2168372619696173 [Eh]
	 Correlation Energy        =      -0.2855279025137093 [Eh]
	 Total Energy              =     -76.3415847597928945 [Eh]

	 ================> DF-SCS-MP2 Energies <==================
	-----------------------------------------------------------
	 SCS Same-Spin Scale       =       0.3333333333333333 [-]
	 SCS Opposite-Spin Scale   =       1.2000000000000000 [-]
	 SCS Same-Spin Energy      =      -0.0228968801813640 [Eh]
	 SCS Opposite-Spin Energy  =      -0.2602047143635407 [Eh]
	 SCS Correlation Energy    =      -0.2831015945449047 [Eh]
	 SCS Total Energy          =     -76.3391584518240904 [Eh]
	-----------------------------------------------------------

*** Psi4 exiting successfully. Buy a developer a beer!
