                               Psi4 1.8.2 release

  ==> Input File <==

--------------------------------------------------------------------------
MEMORY 60 GB

molecule dimer {
-1 1
Br         0.000000     0.000000     0.000000
O          1.548803    -0.710591     3.040000
H          0.898652    -0.539982     2.353961
H          1.060812    -1.118901     3.781649
O          0.137519    -0.423573    -3.463886
H         -0.133520    -0.725311    -2.600673
H         -0.032708    -1.196669    -3.995500
O         -2.010270    -2.265977     1.576016
H         -1.353894    -1.831518     1.044048
H         -2.834302    -1.936376     1.192922
O         -0.016933    -2.910328    -1.674653
H         -0.135970    -2.167692    -1.070498
H          0.453271    -3.621303    -1.199784
O          3.384032    -0.837063    -0.115591
H          3.644167    -1.658433    -0.579572
H          2.425456    -0.765354    -0.030565

units ang
no_reorient
no_com
symmetry c1
}

set {
basis        aug-cc-pVTZ
scf_type     df
}

energy("mp2")
--------------------------------------------------------------------------

    Molecular point group: c1

    Geometry (in Angstrom), charge = -1, multiplicity = 1:

       Center              X                  Y                   Z               Mass
    ------------   -----------------  -----------------  -----------------  -----------------
         BR           0.000000000000     0.000000000000     0.000000000000    78.918337600000
         O            1.548803000000    -0.710591000000     3.040000000000    15.994914619570
         H            0.898652000000    -0.539982000000     2.353961000000     1.007825032230
         H            1.060812000000    -1.118901000000     3.781649000000     1.007825032230
         O            0.137519000000    -0.423573000000    -3.463886000000    15.994914619570
         H           -0.133520000000    -0.725311000000    -2.600673000000     1.007825032230
         H           -0.032708000000    -1.196669000000    -3.995500000000     1.007825032230
         O           -2.010270000000    -2.265977000000     1.576016000000    15.994914619570
         H           -1.353894000000    -1.831518000000     1.044048000000     1.007825032230
         H           -2.834302000000    -1.936376000000     1.192922000000     1.007825032230
         O           -0.016933000000    -2.910328000000    -1.674653000000    15.994914619570
         H           -0.135970000000    -2.167692000000    -1.070498000000     1.007825032230
         H            0.453271000000    -3.621303000000    -1.199784000000     1.007825032230
         O            3.384032000000    -0.837063000000    -0.115591000000    15.994914619570
         H            3.644167000000    -1.658433000000    -0.579572000000     1.007825032230
         H            2.425456000000    -0.765354000000    -0.030565000000     1.007825032230

  Charge       = -1
  Multiplicity = 1
  Basis Set: AUG-CC-PVTZ
    Blend: AUG-CC-PVTZ
  Basis Set: (AUG-CC-PVTZ AUX)
    Blend: AUG-CC-PVTZ-JKFIT

    Orbital Energies [Eh]
    ---------------------

    Doubly Occupied:

       1A   -489.790924     2A    -64.931308     3A    -58.285830
       4A    -58.285791     5A    -58.285765     6A    -20.436013
       7A    -20.430703     8A    -20.422848     9A    -20.417464
      10A    -20.413493    11A     -9.603591    12A     -7.211248
      13A     -7.211032    14A     -7.210900    15A     -2.952907
      16A     -2.952853    17A     -2.952677    18A     -2.952403
      19A     -2.952390    20A     -1.220273    21A     -1.218618
      22A     -1.208170    23A     -1.202906    24A     -1.190536
      25A     -0.769669    26A     -0.595549    27A     -0.579585
      28A     -0.573796    29A     -0.570078    30A     -0.563766
      31A     -0.460641    32A     -0.458331    33A     -0.439694
      34A     -0.437881    35A     -0.420666    36A     -0.383871
      37A     -0.376693    38A     -0.366462    39A     -0.362052
      40A     -0.355875    41A     -0.219992    42A     -0.217524
      43A     -0.215477

  @DF-RHF Final Energy: -2952.87833936769130

   => Energetics <=

    Nuclear Repulsion Energy =            440.3390191358770380
    One-Electron Energy =               -5002.2182155729360602
    Two-Electron Energy =                1609.0008570693680667
    Total Energy =                      -2952.8783393676912965
 Dipole X            :        -55.0426794           53.5494942           -1.4931852
 Dipole Y            :        137.4679819         -137.4620704            0.0059115
 Dipole Z            :         11.8431599          -11.7331659            0.1099940
 Magnitude           :                                                    1.4972427
  Basis Set: (AUG-CC-PVTZ AUX)
    Blend: AUG-CC-PVTZ-RI
	 Reference Energy          =   -2952.8783393676912965 [Eh]
	 Singles Energy            =      -0.0000000000000000 [Eh]
	 Same-Spin Energy          =      -0.4442140924494249 [Eh]
	 Opposite-Spin Energy      =      -1.3014222772922239 [Eh]
	 Correlation Energy        =      -1.7456363697416488 [Eh]
	 Total Energy              =   -2954.6239757374328292 [Eh]

	 ================> DF-SCS-MP2 Energies <==================
	-----------------------------------------------------------
	 SCS Same-Spin Scale       =       0.3333333333333333 [-]
	 SCS Opposite-Spin Scale   =       1.2000000000000000 [-]
	 SCS Same-Spin Energy      =      -0.1480713641498083 [Eh]
	 SCS Opposite-Spin Energy  =      -1.5617067327506686 [Eh]
	 SCS Correlation Energy    =      -1.7097780969004770 [Eh]
	 SCS Total Energy          =   -2954.5881174645919600 [Eh]
	-----------------------------------------------------------

*** Psi4 exiting successfully. Buy a developer a beer!
