                               Psi4 1.8.2 release

  ==> Input File <==

--------------------------------------------------------------------------
MEMORY 60 GB

molecule dimer {
0 1
Gh(Br)     0.000000     0.000000     0.000000
Gh(O)      0.648956     3.052833    -0.910767
Gh(H)      0.221036     2.238654    -0.688052
Gh(H)      0.274889     3.810621    -0.399241
O         -3.547804     0.036909     0.397669
H         -3.709002     0.859644     0.826066
H         -2.626536    -0.211847     0.219525
Gh(O)     -1.365510     1.033202    -2.554714
Gh(H)     -0.976789     1.936597    -2.537138
Gh(H)     -1.154285     0.547997    -1.730847
Gh(O)      1.788958    -0.833292    -2.658545
Gh(H)      1.515672    -0.412503    -3.446617
Gh(H)      1.281287    -0.326220    -1.983247
Gh(O)     -0.063313     2.516803     2.353453
Gh(H)      0.132725     1.913084     1.615962
Gh(H)     -0.436989     3.341547     2.033875

units ang
no_reorient
no_com
symmetry c1
}

set {
basis        aug-cc-pVTZ
scf_type     df
}

energy("mp2")
--------------------------------------------------------------------------

    Molecular point group: c1

    Geometry (in Angstrom), charge = 0, multiplicity = 1:

       Center              X                  Y                   Z               Mass
    ------------   -----------------  -----------------  -----------------  -----------------
      Gh(BR)          0.000000000000     0.000000000000     0.000000000000    78.918337600000
      Gh(O)           0.648956000000     3.052833000000    -0.910767000000    15.994914619570
      Gh(H)           0.221036000000     2.238654000000    -0.688052000000     1.007825032230
      Gh(H)           0.274889000000     3.810621000000    -0.399241000000     1.007825032230
         O           -3.547804000000     0.036909000000     0.397669000000    15.994914619570
         H           -3.709002000000     0.859644000000     0.826066000000     1.007825032230
         H           -2.626536000000    -0.211847000000     0.219525000000     1.007825032230
      Gh(O)          -1.365510000000     1.033202000000    -2.554714000000    15.994914619570
      Gh(H)          -0.976789000000     1.936597000000    -2.537138000000     1.007825032230
      Gh(H)          -1.154285000000     0.547997000000    -1.730847000000     1.007825032230
      Gh(O)           1.788958000000    -0.833292000000    -2.658545000000    15.994914619570
      Gh(H)           1.515672000000    -0.412503000000    -3.446617000000     1.007825032230
      Gh(H)           1.281287000000    -0.326220000000    -1.983247000000     1.007825032230
      Gh(O)          -0.063313000000     2.516803000000     2.353453000000    15.994914619570
      Gh(H)           0.132725000000     1.913084000000     1.615962000000     1.007825032230
      Gh(H)          -0.436989000000     3.341547000000     2.033875000000     1.007825032230

  Charge       = 0
  Multiplicity = 1
  Basis Set: AUG-CC-PVTZ
    Blend: AUG-CC-PVTZ
  Basis Set: (AUG-CC-PVTZ AUX)
    Blend: AUG-CC-PVTZ-JKFIT

    Orbital Energies [Eh]
    ---------------------

    Doubly Occupied:

       1A    -20.560432     2A     -1.345138     3A     -0.742268
       4A     -0.559205     5A     -0.506262

  @DF-RHF Final Energy:   -76.05668462623507

   => Energetics <=

    Nuclear Repulsion Energy =              9.1802849779163438
    One-Electron Energy =                -123.0473273152760783
    Two-Electron Energy =                  37.8103577111246807
    Total Energy =                        -76.0566846262350538
 Dipole X            :         66.1350258          -65.6074549            0.5275709
 Dipole Y            :         -1.3810376            1.7821421            0.4011045
 Dipole Z            :         -7.8124557            7.9877646            0.1753090
 Magnitude           :                                                    0.6855283
  Basis Set: (AUG-CC-PVTZ AUX)
    Blend: AUG-CC-PVTZ-RI
	 Reference Energy          =     -76.0566846262350680 [Eh]
	 Singles Energy            =      -0.0000000000000000 [Eh]
	 Same-Spin Energy          =      -0.0683067042495311 [Eh]
	 Opposite-Spin Energy      =      -0.2152140164854279 [Eh]
	 Correlation Energy        =      -0.2835207207349590 [Eh]
	 Total Energy              =     -76.3402053469700235 [Eh]

	 ================> DF-SCS-MP2 Energies <==================
	-----------------------------------------------------------
	 SCS Same-Spin Scale       =       0.3333333333333333 [-]
	 SCS Opposite-Spin Scale   =       1.2000000000000000 [-]
	 SCS Same-Spin Energy      =      -0.0227689014165104 [Eh]
	 SCS Opposite-Spin Energy  =      -0.2582568197825135 [Eh]
	 SCS Correlation Energy    =      -0.2810257211990239 [Eh]
	 SCS Total Energy          =     -76.3377103474340970 [Eh]
	-----------------------------------------------------------

*** Psi4 exiting successfully. Buy a developer a beer!
