                               Psi4 1.8.2 release

  ==> Input File <==

--------------------------------------------------------------------------
MEMORY 60 GB

molecule dimer {
0 1
Gh(Br)     0.000000     0.000000     0.000000
O         -2.781246     1.510084     1.569551
H         -2.072540     1.009944     1.041255
H         -3.635131     1.011783     1.573126
Gh(O)     -1.440121    -2.331353    -1.915099
Gh(H)     -1.006754    -1.730021    -1.255599
Gh(H)     -1.064572    -3.197794    -1.969547
Gh(O)     -3.247932     0.467714    -1.516885
Gh(H)     -2.362877     0.540347    -1.151819
Gh(H)     -3.475365    -0.447640    -1.620254
Gh(O)      0.031526     3.421465    -0.300243
Gh(H)     -0.878325     3.780621    -0.011616
Gh(H)      0.054833     2.497967    -0.083518
Gh(O)      0.960104     0.920447    -2.955719
Gh(H)      0.402808     0.917896    -2.160409
Gh(H)      0.692381     1.632242    -3.631367

units ang
no_reorient
no_com
symmetry c1
}

set {
basis        aug-cc-pVTZ
scf_type     df
}

energy("mp2")
--------------------------------------------------------------------------

    Molecular point group: c1

    Geometry (in Angstrom), charge = 0, multiplicity = 1:

       Center              X                  Y                   Z               Mass
    ------------   -----------------  -----------------  -----------------  -----------------
      Gh(BR)          0.000000000000     0.000000000000     0.000000000000    78.918337600000
         O           -2.781246000000     1.510084000000     1.569551000000    15.994914619570
         H           -2.072540000000     1.009944000000     1.041255000000     1.007825032230
         H           -3.635131000000     1.011783000000     1.573126000000     1.007825032230
      Gh(O)          -1.440121000000    -2.331353000000    -1.915099000000    15.994914619570
      Gh(H)          -1.006754000000    -1.730021000000    -1.255599000000     1.007825032230
      Gh(H)          -1.064572000000    -3.197794000000    -1.969547000000     1.007825032230
      Gh(O)          -3.247932000000     0.467714000000    -1.516885000000    15.994914619570
      Gh(H)          -2.362877000000     0.540347000000    -1.151819000000     1.007825032230
      Gh(H)          -3.475365000000    -0.447640000000    -1.620254000000     1.007825032230
      Gh(O)           0.031526000000     3.421465000000    -0.300243000000    15.994914619570
      Gh(H)          -0.878325000000     3.780621000000    -0.011616000000     1.007825032230
      Gh(H)           0.054833000000     2.497967000000    -0.083518000000     1.007825032230
      Gh(O)           0.960104000000     0.920447000000    -2.955719000000    15.994914619570
      Gh(H)           0.402808000000     0.917896000000    -2.160409000000     1.007825032230
      Gh(H)           0.692381000000     1.632242000000    -3.631367000000     1.007825032230

  Charge       = 0
  Multiplicity = 1
  Basis Set: AUG-CC-PVTZ
    Blend: AUG-CC-PVTZ
  Basis Set: (AUG-CC-PVTZ AUX)
    Blend: AUG-CC-PVTZ-JKFIT

    Orbital Energies [Eh]
    ---------------------

    Doubly Occupied:

       1A    -20.571594     2A     -1.327640     3A     -0.704685
       4A     -0.564171     5A     -0.504763

  @DF-RHF Final Energy:   -76.05275648893824

   => Energetics <=

    Nuclear Repulsion Energy =              8.7708678467970547
    One-Electron Energy =                -122.3015361848469951
    Two-Electron Energy =                  37.4779118491116776
    Total Energy =                        -76.0527564889382575
 Dipole X            :         52.7333251          -52.8322808           -0.0989558
 Dipole Y            :        -27.3085565           26.6496718           -0.6588847
 Dipole Z            :        -29.0135576           28.6686363           -0.3449212
 Magnitude           :                                                    0.7502613
  Basis Set: (AUG-CC-PVTZ AUX)
    Blend: AUG-CC-PVTZ-RI
	 Reference Energy          =     -76.0527564889382433 [Eh]
	 Singles Energy            =      -0.0000000000000000 [Eh]
	 Same-Spin Energy          =      -0.0690883899341598 [Eh]
	 Opposite-Spin Energy      =      -0.2179184120412294 [Eh]
	 Correlation Energy        =      -0.2870068019753891 [Eh]
	 Total Energy              =     -76.3397632909136377 [Eh]

	 ================> DF-SCS-MP2 Energies <==================
	-----------------------------------------------------------
	 SCS Same-Spin Scale       =       0.3333333333333333 [-]
	 SCS Opposite-Spin Scale   =       1.2000000000000000 [-]
	 SCS Same-Spin Energy      =      -0.0230294633113866 [Eh]
	 SCS Opposite-Spin Energy  =      -0.2615020944494752 [Eh]
	 SCS Correlation Energy    =      -0.2845315577608618 [Eh]
	 SCS Total Energy          =     -76.3372880466991006 [Eh]
	-----------------------------------------------------------

*** Psi4 exiting successfully. Buy a developer a beer!
