                               Psi4 1.9 release

  ==> Input File <==

--------------------------------------------------------------------------
MEMORY 60 GB

molecule dimer {
-1 1
Br     0.000000     0.000000     0.000000
--
0 1
O     -2.276881    -1.899460     1.400580
H     -2.198589    -1.582245     2.312148
H     -1.483800    -1.556681     0.911434
O      0.558217    -1.514625     3.077996
H      0.481697    -2.382991     2.719831
H      0.514443    -0.980773     2.257969
O     -3.207653     0.544694    -0.640069
H     -2.307200     0.537132    -0.484230
H     -3.309605     1.334027    -1.206248
O     -1.719668     1.404403     2.550898
H     -0.978194     1.949422     2.833464
H     -1.447545     0.991534     1.688828

units ang
no_reorient
no_com
symmetry c1
}

set {
basis        aug-cc-pVTZ
scf_type     df
}

energy("mp2", bsse_type="cp")
--------------------------------------------------------------------------

                               Psi4 1.9 release
    Molecular point group: c1
  Charge       = 0
  Multiplicity = 1
  Basis Set: AUG-CC-PVTZ
    Blend: AUG-CC-PVTZ
  Basis Set: (AUG-CC-PVTZ AUX)
    Blend: AUG-CC-PVTZ-JKFIT
  @DF-RHF Final Energy:  -304.22311261924818
    Total Energy =                       -304.2231126192481270
 Dipole X            :        122.2923721         -120.7472123            1.5451598
 Dipole Y            :         26.1379189          -25.3421325            0.7957864
 Dipole Z            :       -118.4465163          117.4435232           -1.0029931
 Magnitude           :                                                    2.0066863
  Basis Set: (AUG-CC-PVTZ AUX)
    Blend: AUG-CC-PVTZ-RI
	 Reference Energy          =    -304.2231126192481838 [Eh]
	 Singles Energy            =      -0.0000000000000000 [Eh]
	 Same-Spin Energy          =      -0.2763895343534600 [Eh]
	 Opposite-Spin Energy      =      -0.8683700039811670 [Eh]
	 Correlation Energy        =      -1.1447595383346272 [Eh]
	 Total Energy              =    -305.3678721575828376 [Eh]
	 SCS Total Energy          =    -305.3572864688100594 [Eh]
                               Psi4 1.9 release
    Molecular point group: c1
  Multiplicity = 1
  Basis Set: AUG-CC-PVTZ
    Blend: AUG-CC-PVTZ
  Basis Set: (AUG-CC-PVTZ AUX)
    Blend: AUG-CC-PVTZ-JKFIT
  @DF-RHF Final Energy: -2572.53372167043563
    Total Energy =                      -2572.5337216704356251
  Basis Set: (AUG-CC-PVTZ AUX)
	 Singles Energy            =      -0.0000000000000000 [Eh]
	 Same-Spin Energy          =      -0.0908122127447351 [Eh]
	 Opposite-Spin Energy      =      -0.2114201078349768 [Eh]
	 Correlation Energy        =      -0.3022323205797119 [Eh]
	 Total Energy              =   -2572.8359539910152307 [Eh]
	 SCS Total Energy          =   -2572.8176965374191241 [Eh]
                               Psi4 1.9 release
    Molecular point group: c1

    Geometry (in Bohr), charge = -1, multiplicity = 1:

       Center              X                  Y                   Z               Mass
    ------------   -----------------  -----------------  -----------------  -----------------
         BR           0.000000000000     0.000000000000     0.000000000000    78.918337600000
         O           -4.302681510259    -3.589459186262     2.646712616794    15.994914619570
         H           -4.154731072444    -2.990009713375     4.369326481525     1.007825032230
         H           -2.803975624954    -2.941700754704     1.722360641431     1.007825032230
         O            1.054877248575    -2.862226432772     5.816569455255    15.994914619570
         H            0.910275405455    -4.503200349431     5.139735697530     1.007825032230
         H            0.972156377159    -1.853392361244     4.266943009774     1.007825032230
         O           -6.061585675503     1.029322482180    -1.209555111396    15.994914619570
         H           -4.359976116656     1.015032373219    -0.915062081730     1.007825032230
         H           -6.254247033446     2.520945673966    -2.279478359381     1.007825032230
         O           -3.249701546714     2.653937039771     4.820498593978    15.994914619570
         H           -1.848518757566     3.683873682942     5.354470946344     1.007825032230
         H           -2.735463604276     1.873727704080     3.191422393005     1.007825032230

  Charge       = -1
  Multiplicity = 1
  Basis Set: AUG-CC-PVTZ
    Blend: AUG-CC-PVTZ
  Basis Set: (AUG-CC-PVTZ AUX)
    Blend: AUG-CC-PVTZ-JKFIT

    Orbital Energies [Eh]
    ---------------------

    Doubly Occupied:

       1A   -489.789813     2A    -64.930323     3A    -58.284821
       4A    -58.284795     5A    -58.284780     6A    -20.420693
       7A    -20.412379     8A    -20.408681     9A    -20.395808
      10A     -9.602762    11A     -7.210348    12A     -7.210269
      13A     -7.210112    14A     -2.951980    15A     -2.951967
      16A     -2.951806    17A     -2.951674    18A     -2.951648
      19A     -1.210298    20A     -1.207867    21A     -1.188603
      22A     -1.171985    23A     -0.769968    24A     -0.568245
      25A     -0.563667    26A     -0.556545    27A     -0.542072
      28A     -0.452651    29A     -0.439403    30A     -0.428845
      31A     -0.414754    32A     -0.367253    33A     -0.359324
      34A     -0.353528    35A     -0.338170    36A     -0.218008
      37A     -0.216534    38A     -0.213864

  @DF-RHF Final Energy: -2876.80904776695115

   => Energetics <=

    Nuclear Repulsion Energy =            349.6609674605190321
    One-Electron Energy =               -4715.3675385340620778
    Two-Electron Energy =                1488.8975233065916655
    Total Energy =                      -2876.8090477669516076
 Dipole X            :        123.0056947         -120.7472123            2.2584825
 Dipole Y            :         26.2759150          -25.3421325            0.9337825
 Dipole Z            :       -119.2167267          117.4435232           -1.7732035
 Magnitude           :                                                    3.0194277
  Basis Set: (AUG-CC-PVTZ AUX)
    Blend: AUG-CC-PVTZ-RI
	 Reference Energy          =   -2876.8090477669511529 [Eh]
	 Singles Energy            =      -0.0000000000000000 [Eh]
	 Same-Spin Energy          =      -0.3756639170319858 [Eh]
	 Opposite-Spin Energy      =      -1.0858305855532939 [Eh]
	 Correlation Energy        =      -1.4614945025852797 [Eh]
	 Total Energy              =   -2878.2705422695362358 [Eh]

	 ================> DF-SCS-MP2 Energies <==================
	-----------------------------------------------------------
	 SCS Same-Spin Scale       =       0.3333333333333333 [-]
	 SCS Opposite-Spin Scale   =       1.2000000000000000 [-]
	 SCS Same-Spin Energy      =      -0.1252213056773286 [Eh]
	 SCS Opposite-Spin Energy  =      -1.3029967026639526 [Eh]
	 SCS Correlation Energy    =      -1.4282180083412812 [Eh]
	 SCS Total Energy          =   -2878.2372657752925988 [Eh]
	-----------------------------------------------------------

*** Psi4 exiting successfully. Buy a developer a beer!
