                               Psi4 1.8.2 release

  ==> Input File <==

--------------------------------------------------------------------------
MEMORY 60 GB

molecule dimer {
-1 1
Br         0.000000     0.000000     0.000000
O         -0.046525    -2.172810     2.388371
H          0.192961    -2.058591     3.276470
H          0.227483    -1.447125     1.853069
O         -3.001582    -1.688367    -0.659378
H         -3.051597    -2.464025    -0.091192
H         -2.107316    -1.279153    -0.589440
O          1.202238     1.886794     2.696986
H          0.703236     1.368206     2.070104
H          0.555514     2.123391     3.374762
O          0.642071     3.088985    -0.348066
H          0.818347     3.560490     0.475379
H          0.241245     2.278483    -0.088040
O         -1.743083     0.570150     2.511522
H         -1.402890     0.297354     1.627315
H         -2.233465    -0.240456     2.843953

units ang
no_reorient
no_com
symmetry c1
}

set {
basis        aug-cc-pVTZ
scf_type     df
}

energy("mp2")
--------------------------------------------------------------------------

    Molecular point group: c1

    Geometry (in Angstrom), charge = -1, multiplicity = 1:

       Center              X                  Y                   Z               Mass
    ------------   -----------------  -----------------  -----------------  -----------------
         BR           0.000000000000     0.000000000000     0.000000000000    78.918337600000
         O           -0.046525000000    -2.172810000000     2.388371000000    15.994914619570
         H            0.192961000000    -2.058591000000     3.276470000000     1.007825032230
         H            0.227483000000    -1.447125000000     1.853069000000     1.007825032230
         O           -3.001582000000    -1.688367000000    -0.659378000000    15.994914619570
         H           -3.051597000000    -2.464025000000    -0.091192000000     1.007825032230
         H           -2.107316000000    -1.279153000000    -0.589440000000     1.007825032230
         O            1.202238000000     1.886794000000     2.696986000000    15.994914619570
         H            0.703236000000     1.368206000000     2.070104000000     1.007825032230
         H            0.555514000000     2.123391000000     3.374762000000     1.007825032230
         O            0.642071000000     3.088985000000    -0.348066000000    15.994914619570
         H            0.818347000000     3.560490000000     0.475379000000     1.007825032230
         H            0.241245000000     2.278483000000    -0.088040000000     1.007825032230
         O           -1.743083000000     0.570150000000     2.511522000000    15.994914619570
         H           -1.402890000000     0.297354000000     1.627315000000     1.007825032230
         H           -2.233465000000    -0.240456000000     2.843953000000     1.007825032230

  Charge       = -1
  Multiplicity = 1
  Basis Set: AUG-CC-PVTZ
    Blend: AUG-CC-PVTZ
  Basis Set: (AUG-CC-PVTZ AUX)
    Blend: AUG-CC-PVTZ-JKFIT

    Orbital Energies [Eh]
    ---------------------

    Doubly Occupied:

       1A   -489.796107     2A    -64.936914     3A    -58.291388
       4A    -58.291378     5A    -58.291340     6A    -20.426758
       7A    -20.425552     8A    -20.419746     9A    -20.419667
      10A    -20.402088    11A     -9.609538    12A     -7.217179
      13A     -7.217023    14A     -7.216982    15A     -2.958734
      16A     -2.958714    17A     -2.958621    18A     -2.958441
      19A     -2.958425    20A     -1.224043    21A     -1.214217
      22A     -1.202170    23A     -1.195619    24A     -1.189012
      25A     -0.783289    26A     -0.609161    27A     -0.580366
      28A     -0.577832    29A     -0.563992    30A     -0.553754
      31A     -0.454247    32A     -0.442356    33A     -0.437430
      34A     -0.434193    35A     -0.430431    36A     -0.378607
      37A     -0.372510    38A     -0.368947    39A     -0.356685
      40A     -0.351359    41A     -0.227225    42A     -0.225507
      43A     -0.223614

  @DF-RHF Final Energy: -2952.87554620252649

   => Energetics <=

    Nuclear Repulsion Energy =            460.6732397886406716
    One-Electron Energy =               -5042.7952393144796588
    Two-Electron Energy =                1629.2464533233121529
    Total Energy =                      -2952.8755462025264933
 Dipole X            :         56.3294701          -55.9954764            0.3339937
 Dipole Y            :        -30.4760275           29.5110781           -0.9649494
 Dipole Z            :       -127.2117099          127.4957777            0.2840677
 Magnitude           :                                                    1.0598932
  Basis Set: (AUG-CC-PVTZ AUX)
    Blend: AUG-CC-PVTZ-RI
	 Reference Energy          =   -2952.8755462025264933 [Eh]
	 Singles Energy            =      -0.0000000000000000 [Eh]
	 Same-Spin Energy          =      -0.4483941987905021 [Eh]
	 Opposite-Spin Energy      =      -1.3066319986444648 [Eh]
	 Correlation Energy        =      -1.7550261974349670 [Eh]
	 Total Energy              =   -2954.6305723999612383 [Eh]

	 ================> DF-SCS-MP2 Energies <==================
	-----------------------------------------------------------
	 SCS Same-Spin Scale       =       0.3333333333333333 [-]
	 SCS Opposite-Spin Scale   =       1.2000000000000000 [-]
	 SCS Same-Spin Energy      =      -0.1494647329301674 [Eh]
	 SCS Opposite-Spin Energy  =      -1.5679583983733576 [Eh]
	 SCS Correlation Energy    =      -1.7174231313035251 [Eh]
	 SCS Total Energy          =   -2954.5929693338298421 [Eh]
	-----------------------------------------------------------

*** Psi4 exiting successfully. Buy a developer a beer!
