                               Psi4 1.9 release

  ==> Input File <==

--------------------------------------------------------------------------
MEMORY 60 GB

molecule dimer {
-1 1
Br     0.000000     0.000000     0.000000
--
0 1
O      0.691227    -2.051459    -2.490181
H      1.361630    -1.712435    -3.078251
H      0.625590    -1.299494    -1.855394
O     -2.617496     0.305919     2.221716
H     -1.890149     0.159326     1.576929
H     -3.420818     0.158676     1.729850
O      2.189098    -1.640069     1.867177
H      1.995566    -1.634790     2.835847
H      1.377796    -1.359444     1.357208
O     -0.250879     1.231325    -3.139368
H     -0.559172     0.860686    -2.271953
H     -0.247851     2.149150    -2.941606
O      2.739667     2.233295    -0.788962
H      2.626840     1.471708    -0.259006
H      3.398173     1.947219    -1.438041

units ang
no_reorient
no_com
symmetry c1
}

set {
basis        aug-cc-pVTZ
scf_type     df
}

energy("mp2", bsse_type="cp")
--------------------------------------------------------------------------

                               Psi4 1.9 release
    Molecular point group: c1
  Charge       = 0
  Multiplicity = 1
  Basis Set: AUG-CC-PVTZ
    Blend: AUG-CC-PVTZ
  Basis Set: (AUG-CC-PVTZ AUX)
    Blend: AUG-CC-PVTZ-JKFIT
  @DF-RHF Final Energy:  -380.28897524025035
    Total Energy =                       -380.2889752402503518
 Dipole X            :        -51.6915165           51.5527510           -0.1387654
 Dipole Y            :         -2.2125306            2.5940082            0.3814775
 Dipole Z            :         43.5984851          -43.4284783            0.1700069
 Magnitude           :                                                    0.4400946
  Basis Set: (AUG-CC-PVTZ AUX)
    Blend: AUG-CC-PVTZ-RI
	 Reference Energy          =    -380.2889752402503518 [Eh]
	 Singles Energy            =      -0.0000000000000000 [Eh]
	 Same-Spin Energy          =      -0.3438289370336276 [Eh]
	 Opposite-Spin Energy      =      -1.0826444563773903 [Eh]
	 Correlation Energy        =      -1.4264733934110179 [Eh]
	 Total Energy              =    -381.7154486336613672 [Eh]
	 SCS Total Energy          =    -381.7027582335811076 [Eh]
                               Psi4 1.9 release
    Molecular point group: c1
  Multiplicity = 1
  Basis Set: AUG-CC-PVTZ
    Blend: AUG-CC-PVTZ
  Basis Set: (AUG-CC-PVTZ AUX)
    Blend: AUG-CC-PVTZ-JKFIT
  @DF-RHF Final Energy: -2572.53372809430039
    Total Energy =                      -2572.5337280943003861
  Basis Set: (AUG-CC-PVTZ AUX)
	 Singles Energy            =      -0.0000000000000000 [Eh]
	 Same-Spin Energy          =      -0.0911443333788386 [Eh]
	 Opposite-Spin Energy      =      -0.2121529047672223 [Eh]
	 Correlation Energy        =      -0.3032972381460610 [Eh]
	 Total Energy              =   -2572.8370253324465011 [Eh]
	 SCS Total Energy          =   -2572.8186930244805808 [Eh]
                               Psi4 1.9 release
    Molecular point group: c1

    Geometry (in Bohr), charge = -1, multiplicity = 1:

       Center              X                  Y                   Z               Mass
    ------------   -----------------  -----------------  -----------------  -----------------
         BR           0.000000000000     0.000000000000     0.000000000000    78.918337600000
         O            1.306229720522    -3.876695667606    -4.705760092819    15.994914619570
         H            2.573107784207    -3.236033157648    -5.817051335417     1.007825032230
         H            1.182193766825    -2.455687761676    -3.506186514818     1.007825032230
         O           -4.946350574481     0.578103126574     4.198434768548    15.994914619570
         H           -3.571863946308     0.301082504665     2.979963929292     1.007825032230
         H           -6.464409145036     0.299854182683     3.268942738123     1.007825032230
         O            4.136795681787    -3.099281236853     3.528453157754    15.994914619570
         H            3.771073205275    -3.089305372637     5.358974163701     1.007825032230
         H            2.603657096751    -2.568976842897     2.564751415280     1.007825032230
         O           -0.474092600629     2.326867021429    -5.932545727026    15.994914619570
         H           -1.056681937025     1.626460820016    -4.293368939912     1.007825032230
         H           -0.468370509921     4.061304902528    -5.558829709004     1.007825032230
         O            5.177220304955     4.220315907354    -1.490922103393    15.994914619570
         H            4.964008175398     2.781125056645    -0.489450404850     1.007825032230
         H            6.421616296925     3.679710616288    -2.717503647180     1.007825032230

  Charge       = -1
  Multiplicity = 1
  Basis Set: AUG-CC-PVTZ
    Blend: AUG-CC-PVTZ
  Basis Set: (AUG-CC-PVTZ AUX)
    Blend: AUG-CC-PVTZ-JKFIT

    Orbital Energies [Eh]
    ---------------------

    Doubly Occupied:

       1A   -489.791788     2A    -64.932341     3A    -58.286844
       4A    -58.286827     5A    -58.286789     6A    -20.440388
       7A    -20.425189     8A    -20.421898     9A    -20.421283
      10A    -20.410631    11A     -9.604751    12A     -7.212424
      13A     -7.212368    14A     -7.211967    15A     -2.954143
      16A     -2.954138    17A     -2.953675    18A     -2.953620
      19A     -2.953480    20A     -1.232243    21A     -1.208289
      22A     -1.207440    23A     -1.194075    24A     -1.186879
      25A     -0.772688    26A     -0.591949    27A     -0.573872
      28A     -0.564924    29A     -0.561184    30A     -0.546859
      31A     -0.465412    32A     -0.450841    33A     -0.445428
      34A     -0.438936    35A     -0.426413    36A     -0.387088
      37A     -0.369708    38A     -0.366944    39A     -0.361081
      40A     -0.354380    41A     -0.221633    42A     -0.220806
      43A     -0.214529

  @DF-RHF Final Energy: -2952.87426967899410

   => Energetics <=

    Nuclear Repulsion Energy =            431.3934019241834221
    One-Electron Energy =               -4984.3790450685219184
    Two-Electron Energy =                1600.1113734653442862
    Total Energy =                      -2952.8742696789940965
 Dipole X            :        -51.8107467           51.5527510           -0.2579957
 Dipole Y            :         -2.0259904            2.5940082            0.5680177
 Dipole Z            :         43.7564286          -43.4284783            0.3279503
 Magnitude           :                                                    0.7048101
  Basis Set: (AUG-CC-PVTZ AUX)
    Blend: AUG-CC-PVTZ-RI
	 Reference Energy          =   -2952.8742696789940965 [Eh]
	 Singles Energy            =      -0.0000000000000000 [Eh]
	 Same-Spin Energy          =      -0.4448277998506924 [Eh]
	 Opposite-Spin Energy      =      -1.3023542263266088 [Eh]
	 Correlation Energy        =      -1.7471820261773012 [Eh]
	 Total Energy              =   -2954.6214517051712392 [Eh]

	 ================> DF-SCS-MP2 Energies <==================
	-----------------------------------------------------------
	 SCS Same-Spin Scale       =       0.3333333333333333 [-]
	 SCS Opposite-Spin Scale   =       1.2000000000000000 [-]
	 SCS Same-Spin Energy      =      -0.1482759332835641 [Eh]
	 SCS Opposite-Spin Energy  =      -1.5628250715919305 [Eh]
	 SCS Correlation Energy    =      -1.7111010048754947 [Eh]
	 SCS Total Energy          =   -2954.5853706838697690 [Eh]
	-----------------------------------------------------------

*** Psi4 exiting successfully. Buy a developer a beer!
