                               Psi4 1.8.2 release

  ==> Input File <==

--------------------------------------------------------------------------
MEMORY 60 GB

molecule dimer {
0 1
Gh(Br)     0.000000     0.000000     0.000000
O         -1.696690     2.934160     0.134506
H         -1.321713     2.170825    -0.262468
H         -2.582990     2.990468    -0.140736
Gh(O)      2.205792     1.542061    -1.989152
Gh(H)      1.378254     1.355469    -1.592385
Gh(H)      1.896691     1.977670    -2.832326
Gh(O)      2.682266     1.638353     1.709860
Gh(H)      1.939337     1.329311     1.132545
Gh(H)      2.900490     2.498860     1.415817

units ang
no_reorient
no_com
symmetry c1
}

set {
basis        aug-cc-pVTZ
scf_type     df
}

energy("mp2")
--------------------------------------------------------------------------

    Molecular point group: c1

    Geometry (in Angstrom), charge = 0, multiplicity = 1:

       Center              X                  Y                   Z               Mass
    ------------   -----------------  -----------------  -----------------  -----------------
      Gh(BR)          0.000000000000     0.000000000000     0.000000000000    78.918337600000
         O           -1.696690000000     2.934160000000     0.134506000000    15.994914619570
         H           -1.321713000000     2.170825000000    -0.262468000000     1.007825032230
         H           -2.582990000000     2.990468000000    -0.140736000000     1.007825032230
      Gh(O)           2.205792000000     1.542061000000    -1.989152000000    15.994914619570
      Gh(H)           1.378254000000     1.355469000000    -1.592385000000     1.007825032230
      Gh(H)           1.896691000000     1.977670000000    -2.832326000000     1.007825032230
      Gh(O)           2.682266000000     1.638353000000     1.709860000000    15.994914619570
      Gh(H)           1.939337000000     1.329311000000     1.132545000000     1.007825032230
      Gh(H)           2.900490000000     2.498860000000     1.415817000000     1.007825032230

  Charge       = 0
  Multiplicity = 1
  Basis Set: AUG-CC-PVTZ
    Blend: AUG-CC-PVTZ
  Basis Set: (AUG-CC-PVTZ AUX)
    Blend: AUG-CC-PVTZ-JKFIT

    Orbital Energies [Eh]
    ---------------------

    Doubly Occupied:

       1A    -20.561597     2A     -1.363483     3A     -0.737183
       4A     -0.582926     5A     -0.511441

  @DF-RHF Final Energy:   -76.06104759209965

   => Energetics <=

    Nuclear Repulsion Energy =              9.4144746407156354
    One-Electron Energy =                -123.4377825979817089
    Two-Electron Energy =                  37.9622603651664150
    Total Energy =                        -76.0610475920996549
 Dipole X            :         32.6791925          -33.0290546           -0.3498621
 Dipole Y            :        -54.5931510           54.1115007           -0.4816503
 Dipole Z            :         -1.7302515            1.2714909           -0.4587607
 Magnitude           :                                                    0.7515663
  Basis Set: (AUG-CC-PVTZ AUX)
    Blend: AUG-CC-PVTZ-RI
	 Reference Energy          =     -76.0610475920996549 [Eh]
	 Singles Energy            =      -0.0000000000000000 [Eh]
	 Same-Spin Energy          =      -0.0679243800182311 [Eh]
	 Opposite-Spin Energy      =      -0.2141562245120608 [Eh]
	 Correlation Energy        =      -0.2820806045302919 [Eh]
	 Total Energy              =     -76.3431281966299480 [Eh]

	 ================> DF-SCS-MP2 Energies <==================
	-----------------------------------------------------------
	 SCS Same-Spin Scale       =       0.3333333333333333 [-]
	 SCS Opposite-Spin Scale   =       1.2000000000000000 [-]
	 SCS Same-Spin Energy      =      -0.0226414600060770 [Eh]
	 SCS Opposite-Spin Energy  =      -0.2569874694144730 [Eh]
	 SCS Correlation Energy    =      -0.2796289294205500 [Eh]
	 SCS Total Energy          =     -76.3406765215202086 [Eh]
	-----------------------------------------------------------

*** Psi4 exiting successfully. Buy a developer a beer!
