                               Psi4 1.8.2 release

  ==> Input File <==

--------------------------------------------------------------------------
MEMORY 60 GB

molecule dimer {
-1 1
Br         0.000000     0.000000     0.000000
O         -0.134210     2.411128    -2.072805
H          0.609473     1.830673    -2.287997
H         -0.403434     2.300933    -1.141755
O         -1.310303    -2.052809     2.019950
H         -0.550126    -2.646822     1.949115
H         -1.196439    -1.381497     1.375027
O         -3.132579     0.001629    -1.095278
H         -2.256450    -0.233826    -0.636847
H         -2.985203    -0.177030    -2.038425

units ang
no_reorient
no_com
symmetry c1
}

set {
basis        aug-cc-pVTZ
scf_type     df
}

energy("mp2")
--------------------------------------------------------------------------

    Molecular point group: c1

    Geometry (in Angstrom), charge = -1, multiplicity = 1:

       Center              X                  Y                   Z               Mass
    ------------   -----------------  -----------------  -----------------  -----------------
         BR           0.000000000000     0.000000000000     0.000000000000    78.918337600000
         O           -0.134210000000     2.411128000000    -2.072805000000    15.994914619570
         H            0.609473000000     1.830673000000    -2.287997000000     1.007825032230
         H           -0.403434000000     2.300933000000    -1.141755000000     1.007825032230
         O           -1.310303000000    -2.052809000000     2.019950000000    15.994914619570
         H           -0.550126000000    -2.646822000000     1.949115000000     1.007825032230
         H           -1.196439000000    -1.381497000000     1.375027000000     1.007825032230
         O           -3.132579000000     0.001629000000    -1.095278000000    15.994914619570
         H           -2.256450000000    -0.233826000000    -0.636847000000     1.007825032230
         H           -2.985203000000    -0.177030000000    -2.038425000000     1.007825032230

  Charge       = -1
  Multiplicity = 1
  Basis Set: AUG-CC-PVTZ
    Blend: AUG-CC-PVTZ
  Basis Set: (AUG-CC-PVTZ AUX)
    Blend: AUG-CC-PVTZ-JKFIT

    Orbital Energies [Eh]
    ---------------------

    Doubly Occupied:

       1A   -489.770897     2A    -64.911530     3A    -58.266021
       4A    -58.266009     5A    -58.265928     6A    -20.406224
       7A    -20.404587     8A    -20.397860     9A     -9.584176
      10A     -7.191902    11A     -7.191623    12A     -7.191430
      13A     -2.933586    14A     -2.933534    15A     -2.933209
      16A     -2.932902    17A     -2.932847    18A     -1.191361
      19A     -1.184873    20A     -1.172130    21A     -0.750511
      22A     -0.565777    23A     -0.564125    24A     -0.538207
      25A     -0.425606    26A     -0.418678    27A     -0.418328
      28A     -0.352851    29A     -0.348397    30A     -0.343271
      31A     -0.200941    32A     -0.195775    33A     -0.193726

  @DF-RHF Final Energy: -2800.73718493176330

   => Energetics <=

    Nuclear Repulsion Energy =            240.4509631430055379
    One-Electron Energy =               -4391.6186461587158192
    Two-Electron Energy =                1350.4304980839469863
    Total Energy =                      -2800.7371849317632950
 Dipole X            :         84.1019882          -82.0120635            2.0899247
 Dipole Y            :         -5.4211228            4.8604039           -0.5607188
 Dipole Z            :         22.3888487          -22.6123608           -0.2235121
 Magnitude           :                                                    2.1753502
  Basis Set: (AUG-CC-PVTZ AUX)
    Blend: AUG-CC-PVTZ-RI
	 Reference Energy          =   -2800.7371849317632950 [Eh]
	 Singles Energy            =      -0.0000000000000000 [Eh]
	 Same-Spin Energy          =      -0.3032524691771303 [Eh]
	 Opposite-Spin Energy      =      -0.8636932617611273 [Eh]
	 Correlation Energy        =      -1.1669457309382576 [Eh]
	 Total Energy              =   -2801.9041306627013910 [Eh]

	 ================> DF-SCS-MP2 Energies <==================
	-----------------------------------------------------------
	 SCS Same-Spin Scale       =       0.3333333333333333 [-]
	 SCS Opposite-Spin Scale   =       1.2000000000000000 [-]
	 SCS Same-Spin Energy      =      -0.1010841563923768 [Eh]
	 SCS Opposite-Spin Energy  =      -1.0364319141133527 [Eh]
	 SCS Correlation Energy    =      -1.1375160705057294 [Eh]
	 SCS Total Energy          =   -2801.8747010022689210 [Eh]
	-----------------------------------------------------------

*** Psi4 exiting successfully. Buy a developer a beer!
