                               Psi4 1.8.2 release

  ==> Input File <==

--------------------------------------------------------------------------
MEMORY 60 GB

molecule dimer {
-1 1
Br         0.000000     0.000000     0.000000
O         -0.287333     2.284328    -2.676686
H         -1.189125     2.076961    -2.470743
H         -0.308977     3.169615    -2.898919
O         -1.718717     2.800508     0.791810
H         -2.180920     2.574620     1.591008
H         -0.948950     2.241505     0.681251
O         -2.250627    -0.708753     2.444791
H         -1.797196    -0.353230     1.633466
H         -2.625319    -0.031601     3.013515
O         -2.337161    -0.758344    -2.197429
H         -1.490115    -0.559072    -1.771491
H         -2.455913     0.011097    -2.808030
O          1.696005     2.609774    -0.856759
H          0.957190     2.071096    -1.210993
H          1.833312     3.412589    -1.305303
O          1.181919     0.124288    -3.224854
H          1.566148    -0.220066    -2.442840
H          0.740878     0.911603    -2.939958
O         -0.730787    -3.301075    -0.609983
H         -0.652545    -2.326531    -0.429398
H         -0.243929    -3.672456     0.120854

units ang
no_reorient
no_com
symmetry c1
}

set {
basis        aug-cc-pVTZ
scf_type     df
}

energy("mp2")
--------------------------------------------------------------------------

    Molecular point group: c1

    Geometry (in Angstrom), charge = -1, multiplicity = 1:

       Center              X                  Y                   Z               Mass
    ------------   -----------------  -----------------  -----------------  -----------------
         BR           0.000000000000     0.000000000000     0.000000000000    78.918337600000
         O           -0.287333000000     2.284328000000    -2.676686000000    15.994914619570
         H           -1.189125000000     2.076961000000    -2.470743000000     1.007825032230
         H           -0.308977000000     3.169615000000    -2.898919000000     1.007825032230
         O           -1.718717000000     2.800508000000     0.791810000000    15.994914619570
         H           -2.180920000000     2.574620000000     1.591008000000     1.007825032230
         H           -0.948950000000     2.241505000000     0.681251000000     1.007825032230
         O           -2.250627000000    -0.708753000000     2.444791000000    15.994914619570
         H           -1.797196000000    -0.353230000000     1.633466000000     1.007825032230
         H           -2.625319000000    -0.031601000000     3.013515000000     1.007825032230
         O           -2.337161000000    -0.758344000000    -2.197429000000    15.994914619570
         H           -1.490115000000    -0.559072000000    -1.771491000000     1.007825032230
         H           -2.455913000000     0.011097000000    -2.808030000000     1.007825032230
         O            1.696005000000     2.609774000000    -0.856759000000    15.994914619570
         H            0.957190000000     2.071096000000    -1.210993000000     1.007825032230
         H            1.833312000000     3.412589000000    -1.305303000000     1.007825032230
         O            1.181919000000     0.124288000000    -3.224854000000    15.994914619570
         H            1.566148000000    -0.220066000000    -2.442840000000     1.007825032230
         H            0.740878000000     0.911603000000    -2.939958000000     1.007825032230
         O           -0.730787000000    -3.301075000000    -0.609983000000    15.994914619570
         H           -0.652545000000    -2.326531000000    -0.429398000000     1.007825032230
         H           -0.243929000000    -3.672456000000     0.120854000000     1.007825032230

  Charge       = -1
  Multiplicity = 1
  Basis Set: AUG-CC-PVTZ
    Blend: AUG-CC-PVTZ
  Basis Set: (AUG-CC-PVTZ AUX)
    Blend: AUG-CC-PVTZ-JKFIT

    Orbital Energies [Eh]
    ---------------------

    Doubly Occupied:

       1A   -489.792979     2A    -64.933666     3A    -58.288157
       4A    -58.288133     5A    -58.288126     6A    -20.490879
       7A    -20.434292     8A    -20.425464     9A    -20.420303
      10A    -20.417029    11A    -20.409992    12A    -20.398637
      13A     -9.606144    14A     -7.213794    15A     -7.213668
      16A     -7.213548    17A     -2.955367    18A     -2.955337
      19A     -2.955224    20A     -2.955058    21A     -2.955038
      22A     -1.306683    23A     -1.224298    24A     -1.209606
      25A     -1.202846    26A     -1.199862    27A     -1.196310
      28A     -1.189749    29A     -0.777071    30A     -0.666769
      31A     -0.611433    32A     -0.604476    33A     -0.589747
      34A     -0.585931    35A     -0.559160    36A     -0.544340
      37A     -0.517140    38A     -0.462842    39A     -0.452620
      40A     -0.440043    41A     -0.433196    42A     -0.428512
      43A     -0.427060    44A     -0.410173    45A     -0.383608
      46A     -0.368455    47A     -0.368227    48A     -0.362339
      49A     -0.352493    50A     -0.351612    51A     -0.224339
      52A     -0.222723    53A     -0.219093

  @DF-RHF Final Energy: -3104.98036051004055

   => Energetics <=

    Nuclear Repulsion Energy =            713.8168355570822996
    One-Electron Energy =               -5760.5871997571230168
    Two-Electron Energy =                1941.7900036900002760
    Total Energy =                      -3104.9803605100405548
 Dipole X            :         84.2788176          -83.8453889            0.4334287
 Dipole Y            :        -61.5326574           63.7063300            2.1736726
 Dipole Z            :        118.0113559         -116.9182265            1.0931294
 Magnitude           :                                                    2.4713650
  Basis Set: (AUG-CC-PVTZ AUX)
    Blend: AUG-CC-PVTZ-RI
	 Reference Energy          =   -3104.9803605100405548 [Eh]
	 Singles Energy            =      -0.0000000000000000 [Eh]
	 Same-Spin Energy          =      -0.5895290352578963 [Eh]
	 Opposite-Spin Energy      =      -1.7425249747345910 [Eh]
	 Correlation Energy        =      -2.3320540099924871 [Eh]
	 Total Energy              =   -3107.3124145200331441 [Eh]

	 ================> DF-SCS-MP2 Energies <==================
	-----------------------------------------------------------
	 SCS Same-Spin Scale       =       0.3333333333333333 [-]
	 SCS Opposite-Spin Scale   =       1.2000000000000000 [-]
	 SCS Same-Spin Energy      =      -0.1965096784192988 [Eh]
	 SCS Opposite-Spin Energy  =      -2.0910299696815091 [Eh]
	 SCS Correlation Energy    =      -2.2875396481008079 [Eh]
	 SCS Total Energy          =   -3107.2679001581414013 [Eh]
	-----------------------------------------------------------

*** Psi4 exiting successfully. Buy a developer a beer!
