                               Psi4 1.8.2 release

  ==> Input File <==

--------------------------------------------------------------------------
MEMORY 60 GB

molecule dimer {
-1 1
Br         0.000000     0.000000     0.000000
Gh(O)     -3.013040     1.056931    -1.652607
Gh(H)     -3.813809     1.223376    -2.275182
Gh(H)     -2.526972     0.362284    -2.116240
Gh(O)      1.719771     0.511071     2.753016
Gh(H)      1.308822     0.434263     1.867281
Gh(H)      1.064406     1.091765     3.184491
Gh(O)      2.086628    -1.623677    -2.132399
Gh(H)      1.634885    -1.468970    -1.284862
Gh(H)      2.494299    -0.787280    -2.350925
Gh(O)      1.986251    -2.482713     1.611018
Gh(H)      2.888043    -2.189647     1.545517
Gh(H)      1.404825    -1.913044     1.045753
Gh(O)     -1.890204    -2.588045    -0.295930
Gh(H)     -1.108235    -1.992414    -0.188325
Gh(H)     -2.004398    -3.102901     0.508548

units ang
no_reorient
no_com
symmetry c1
}

set {
basis        aug-cc-pVTZ
scf_type     df
}

energy("mp2")
--------------------------------------------------------------------------

    Molecular point group: c1

    Geometry (in Angstrom), charge = -1, multiplicity = 1:

       Center              X                  Y                   Z               Mass
    ------------   -----------------  -----------------  -----------------  -----------------
         BR           0.000000000000     0.000000000000     0.000000000000    78.918337600000
      Gh(O)          -3.013040000000     1.056931000000    -1.652607000000    15.994914619570
      Gh(H)          -3.813809000000     1.223376000000    -2.275182000000     1.007825032230
      Gh(H)          -2.526972000000     0.362284000000    -2.116240000000     1.007825032230
      Gh(O)           1.719771000000     0.511071000000     2.753016000000    15.994914619570
      Gh(H)           1.308822000000     0.434263000000     1.867281000000     1.007825032230
      Gh(H)           1.064406000000     1.091765000000     3.184491000000     1.007825032230
      Gh(O)           2.086628000000    -1.623677000000    -2.132399000000    15.994914619570
      Gh(H)           1.634885000000    -1.468970000000    -1.284862000000     1.007825032230
      Gh(H)           2.494299000000    -0.787280000000    -2.350925000000     1.007825032230
      Gh(O)           1.986251000000    -2.482713000000     1.611018000000    15.994914619570
      Gh(H)           2.888043000000    -2.189647000000     1.545517000000     1.007825032230
      Gh(H)           1.404825000000    -1.913044000000     1.045753000000     1.007825032230
      Gh(O)          -1.890204000000    -2.588045000000    -0.295930000000    15.994914619570
      Gh(H)          -1.108235000000    -1.992414000000    -0.188325000000     1.007825032230
      Gh(H)          -2.004398000000    -3.102901000000     0.508548000000     1.007825032230

  Charge       = -1
  Multiplicity = 1
  Basis Set: AUG-CC-PVTZ
    Blend: AUG-CC-PVTZ
  Basis Set: (AUG-CC-PVTZ AUX)
    Blend: AUG-CC-PVTZ-JKFIT

    Orbital Energies [Eh]
    ---------------------

    Doubly Occupied:

       1A   -489.722080     2A    -64.861701     3A    -58.216233
       4A    -58.216231     5A    -58.216230     6A     -9.533260
       7A     -7.140599     8A     -7.140587     9A     -7.140575
      10A     -2.882301    11A     -2.882298    12A     -2.882285
      13A     -2.882276    14A     -2.882266    15A     -0.685991
      16A     -0.139336    17A     -0.139335    18A     -0.139330

  @DF-RHF Final Energy: -2572.53372580337236

   => Energetics <=

    Nuclear Repulsion Energy =              0.0000000000000000
    One-Electron Energy =               -3593.6616235769324703
    Two-Electron Energy =                1021.1278977735599938
    Total Energy =                      -2572.5337258033723629
 Dipole X            :          0.0001439            0.0000000            0.0001439
 Dipole Y            :         -0.0002536            0.0000000           -0.0002536
 Dipole Z            :          0.0000142            0.0000000            0.0000142
 Magnitude           :                                                    0.0002919
  Basis Set: (AUG-CC-PVTZ AUX)
    Blend: AUG-CC-PVTZ-RI
	 Reference Energy          =   -2572.5337258033723629 [Eh]
	 Singles Energy            =      -0.0000000000000000 [Eh]
	 Same-Spin Energy          =      -0.0909333382164368 [Eh]
	 Opposite-Spin Energy      =      -0.2116607521338838 [Eh]
	 Correlation Energy        =      -0.3025940903503206 [Eh]
	 Total Energy              =   -2572.8363198937227025 [Eh]

	 ================> DF-SCS-MP2 Energies <==================
	-----------------------------------------------------------
	 SCS Same-Spin Scale       =       0.3333333333333333 [-]
	 SCS Opposite-Spin Scale   =       1.2000000000000000 [-]
	 SCS Same-Spin Energy      =      -0.0303111127388123 [Eh]
	 SCS Opposite-Spin Energy  =      -0.2539929025606605 [Eh]
	 SCS Correlation Energy    =      -0.2843040152994728 [Eh]
	 SCS Total Energy          =   -2572.8180298186716755 [Eh]
	-----------------------------------------------------------

*** Psi4 exiting successfully. Buy a developer a beer!
