                               Psi4 1.8.2 release

  ==> Input File <==

--------------------------------------------------------------------------
MEMORY 60 GB

molecule dimer {
-1 1
Br         0.000000     0.000000     0.000000
O          2.375991     1.403050     1.759821
H          1.608804     1.035722     1.188101
H          3.062120     1.668836     1.129100
O          2.883715    -1.624042    -0.731104
H          3.463684    -1.974029    -0.037743
H          2.061357    -1.406903    -0.251967

units ang
no_reorient
no_com
symmetry c1
}

set {
basis        aug-cc-pVTZ
scf_type     df
}

energy("mp2")
--------------------------------------------------------------------------

    Molecular point group: c1

    Geometry (in Angstrom), charge = -1, multiplicity = 1:

       Center              X                  Y                   Z               Mass
    ------------   -----------------  -----------------  -----------------  -----------------
         BR           0.000000000000     0.000000000000     0.000000000000    78.918337600000
         O            2.375991000000     1.403050000000     1.759821000000    15.994914619570
         H            1.608804000000     1.035722000000     1.188101000000     1.007825032230
         H            3.062120000000     1.668836000000     1.129100000000     1.007825032230
         O            2.883715000000    -1.624042000000    -0.731104000000    15.994914619570
         H            3.463684000000    -1.974029000000    -0.037743000000     1.007825032230
         H            2.061357000000    -1.406903000000    -0.251967000000     1.007825032230

  Charge       = -1
  Multiplicity = 1
  Basis Set: AUG-CC-PVTZ
    Blend: AUG-CC-PVTZ
  Basis Set: (AUG-CC-PVTZ AUX)
    Blend: AUG-CC-PVTZ-JKFIT

    Orbital Energies [Eh]
    ---------------------

    Doubly Occupied:

       1A   -489.755171     2A    -64.895480     3A    -58.249973
       4A    -58.249970     5A    -58.249935     6A    -20.412422
       7A    -20.395000     8A     -9.567890     9A     -7.175490
      10A     -7.175351    11A     -7.175129    12A     -2.917189
      13A     -2.917161    14A     -2.916878    15A     -2.916755
      16A     -2.916697    17A     -1.191096    18A     -1.162174
      19A     -0.729726    20A     -0.552112    21A     -0.527761
      22A     -0.431833    23A     -0.409469    24A     -0.355255
      25A     -0.335076    26A     -0.181627    27A     -0.179379
      28A     -0.175646

  @DF-RHF Final Energy: -2724.67295132647723

   => Energetics <=

    Nuclear Repulsion Energy =            145.9648612087140975
    One-Electron Energy =               -4097.0403306768066614
    Two-Electron Energy =                1226.4025181416157011
    Total Energy =                      -2724.6729513264772322
 Dipole X            :        -99.7149229           98.7828122           -0.9321107
 Dipole Y            :          4.4327323           -4.6190765           -0.1863441
 Dipole Z            :        -19.6491122           19.3833498           -0.2657624
 Magnitude           :                                                    0.9870077
  Basis Set: (AUG-CC-PVTZ AUX)
    Blend: AUG-CC-PVTZ-RI
	 Reference Energy          =   -2724.6729513264772322 [Eh]
	 Singles Energy            =      -0.0000000000000000 [Eh]
	 Same-Spin Energy          =      -0.2320248771984169 [Eh]
	 Opposite-Spin Energy      =      -0.6451525579961943 [Eh]
	 Correlation Energy        =      -0.8771774351946112 [Eh]
	 Total Energy              =   -2725.5501287616716581 [Eh]

	 ================> DF-SCS-MP2 Energies <==================
	-----------------------------------------------------------
	 SCS Same-Spin Scale       =       0.3333333333333333 [-]
	 SCS Opposite-Spin Scale   =       1.2000000000000000 [-]
	 SCS Same-Spin Energy      =      -0.0773416257328056 [Eh]
	 SCS Opposite-Spin Energy  =      -0.7741830695954331 [Eh]
	 SCS Correlation Energy    =      -0.8515246953282387 [Eh]
	 SCS Total Energy          =   -2725.5244760218056399 [Eh]
	-----------------------------------------------------------

*** Psi4 exiting successfully. Buy a developer a beer!
