                               Psi4 1.8.2 release

  ==> Input File <==

--------------------------------------------------------------------------
MEMORY 60 GB

molecule dimer {
-1 1
Br         0.000000     0.000000     0.000000
O          1.331716     2.722509     0.940794
H          0.932553     1.903811     0.578732
H          1.260918     3.403207     0.208378
O         -1.448453     1.321538     2.668376
H         -1.342868     0.760752     1.897082
H         -0.736737     1.048426     3.235516
O         -0.072527    -0.400216    -3.431422
H          0.021822    -0.469284    -2.499082
H          0.767355    -0.131810    -3.808652
O          3.075394     0.425946     1.413502
H          2.911921     1.297669     1.072376
H          2.314786    -0.184850     1.323914
O          2.532006     0.388678    -2.263516
H          2.071157     0.512868    -1.472168
H          2.383790     1.130998    -2.871000

units ang
no_reorient
no_com
symmetry c1
}

set {
basis        aug-cc-pVTZ
scf_type     df
}

energy("mp2")
--------------------------------------------------------------------------

    Molecular point group: c1

    Geometry (in Angstrom), charge = -1, multiplicity = 1:

       Center              X                  Y                   Z               Mass
    ------------   -----------------  -----------------  -----------------  -----------------
         BR           0.000000000000     0.000000000000     0.000000000000    78.918337600000
         O            1.331716000000     2.722509000000     0.940794000000    15.994914619570
         H            0.932553000000     1.903811000000     0.578732000000     1.007825032230
         H            1.260918000000     3.403207000000     0.208378000000     1.007825032230
         O           -1.448453000000     1.321538000000     2.668376000000    15.994914619570
         H           -1.342868000000     0.760752000000     1.897082000000     1.007825032230
         H           -0.736737000000     1.048426000000     3.235516000000     1.007825032230
         O           -0.072527000000    -0.400216000000    -3.431422000000    15.994914619570
         H            0.021822000000    -0.469284000000    -2.499082000000     1.007825032230
         H            0.767355000000    -0.131810000000    -3.808652000000     1.007825032230
         O            3.075394000000     0.425946000000     1.413502000000    15.994914619570
         H            2.911921000000     1.297669000000     1.072376000000     1.007825032230
         H            2.314786000000    -0.184850000000     1.323914000000     1.007825032230
         O            2.532006000000     0.388678000000    -2.263516000000    15.994914619570
         H            2.071157000000     0.512868000000    -1.472168000000     1.007825032230
         H            2.383790000000     1.130998000000    -2.871000000000     1.007825032230

  Charge       = -1
  Multiplicity = 1
  Basis Set: AUG-CC-PVTZ
    Blend: AUG-CC-PVTZ
  Basis Set: (AUG-CC-PVTZ AUX)
    Blend: AUG-CC-PVTZ-JKFIT

    Orbital Energies [Eh]
    ---------------------

    Doubly Occupied:

       1A   -489.797457     2A    -64.938135     3A    -58.292629
       4A    -58.292598     5A    -58.292579     6A    -20.438035
       7A    -20.428730     8A    -20.415032     9A    -20.414247
      10A    -20.404977    11A     -9.610685    12A     -7.218356
      13A     -7.218193    14A     -7.218050    15A     -2.959943
      16A     -2.959904    17A     -2.959787    18A     -2.959546
      19A     -2.959536    20A     -1.234591    21A     -1.208348
      22A     -1.206372    23A     -1.202233    24A     -1.187479
      25A     -0.780559    26A     -0.616123    27A     -0.585219
      28A     -0.581426    29A     -0.568565    30A     -0.564901
      31A     -0.455966    32A     -0.446104    33A     -0.445114
      34A     -0.442868    35A     -0.419998    36A     -0.382671
      37A     -0.370688    38A     -0.365153    39A     -0.359539
      40A     -0.352461    41A     -0.228053    42A     -0.226323
      43A     -0.222215

  @DF-RHF Final Energy: -2952.87451258798046

   => Energetics <=

    Nuclear Repulsion Energy =            456.4913268230673111
    One-Electron Energy =               -5034.2688910887864040
    Two-Electron Energy =                1624.9030516777384037
    Total Energy =                      -2952.8745125879804618
 Dipole X            :       -102.5819104          101.9125237           -0.6693868
 Dipole Y            :        -85.1116809           84.9232093           -0.1884717
 Dipole Z            :         13.9897448          -14.5755181           -0.5857733
 Magnitude           :                                                    0.9092473
  Basis Set: (AUG-CC-PVTZ AUX)
    Blend: AUG-CC-PVTZ-RI
	 Reference Energy          =   -2952.8745125879804618 [Eh]
	 Singles Energy            =      -0.0000000000000000 [Eh]
	 Same-Spin Energy          =      -0.4465726604608396 [Eh]
	 Opposite-Spin Energy      =      -1.3033067681340142 [Eh]
	 Correlation Energy        =      -1.7498794285948538 [Eh]
	 Total Energy              =   -2954.6243920165752570 [Eh]

	 ================> DF-SCS-MP2 Energies <==================
	-----------------------------------------------------------
	 SCS Same-Spin Scale       =       0.3333333333333333 [-]
	 SCS Opposite-Spin Scale   =       1.2000000000000000 [-]
	 SCS Same-Spin Energy      =      -0.1488575534869465 [Eh]
	 SCS Opposite-Spin Energy  =      -1.5639681217608170 [Eh]
	 SCS Correlation Energy    =      -1.7128256752477635 [Eh]
	 SCS Total Energy          =   -2954.5873382632280482 [Eh]
	-----------------------------------------------------------

*** Psi4 exiting successfully. Buy a developer a beer!
