                               Psi4 1.9 release

  ==> Input File <==

--------------------------------------------------------------------------
MEMORY 60 GB

molecule dimer {
-1 1
Br     0.000000     0.000000     0.000000
--
0 1
O     -1.259613    -1.972372    -2.351696
H     -0.860891    -1.435419    -1.661193
H     -2.112677    -2.309575    -2.092339
O     -2.845407     1.529579    -0.341206
H     -3.404442     0.725851    -0.231895
H     -1.918137     1.227655    -0.418924
O      1.203798     0.989340    -2.982723
H      1.383848     1.404532    -2.151666
H      0.917733     0.079877    -2.748949
O     -1.942333    -2.300435     1.090951
H     -1.277267    -1.678503     0.760063
H     -1.677310    -3.142909     0.788314
O      2.995159    -1.396829    -0.963849
H      2.160999    -1.154144    -0.534338
H      3.403321    -0.551585    -1.226511

units ang
no_reorient
no_com
symmetry c1
}

set {
basis        aug-cc-pVTZ
scf_type     df
}

energy("mp2", bsse_type="cp")
--------------------------------------------------------------------------

                               Psi4 1.9 release
    Molecular point group: c1
  Charge       = 0
  Multiplicity = 1
  Basis Set: AUG-CC-PVTZ
    Blend: AUG-CC-PVTZ
  Basis Set: (AUG-CC-PVTZ AUX)
    Blend: AUG-CC-PVTZ-JKFIT
  @DF-RHF Final Energy:  -380.28819507439692
    Total Energy =                       -380.2881950743969242
 Dipole X            :         34.4962693          -34.3400861            0.1561831
 Dipole Y            :         60.1133694          -60.5467419           -0.4333725
 Dipole Z            :        102.8453906         -101.8668622            0.9785283
 Magnitude           :                                                    1.0815372
  Basis Set: (AUG-CC-PVTZ AUX)
    Blend: AUG-CC-PVTZ-RI
	 Reference Energy          =    -380.2881950743969242 [Eh]
	 Singles Energy            =      -0.0000000000000000 [Eh]
	 Same-Spin Energy          =      -0.3441352638202470 [Eh]
	 Opposite-Spin Energy      =      -1.0828810564119811 [Eh]
	 Correlation Energy        =      -1.4270163202322279 [Eh]
	 Total Energy              =    -381.7152113946291365 [Eh]
	 SCS Total Energy          =    -381.7023640966980338 [Eh]
                               Psi4 1.9 release
    Molecular point group: c1
  Multiplicity = 1
  Basis Set: AUG-CC-PVTZ
    Blend: AUG-CC-PVTZ
  Basis Set: (AUG-CC-PVTZ AUX)
    Blend: AUG-CC-PVTZ-JKFIT
  @DF-RHF Final Energy: -2572.53373364346726
    Total Energy =                      -2572.5337336434677127
  Basis Set: (AUG-CC-PVTZ AUX)
	 Singles Energy            =      -0.0000000000000000 [Eh]
	 Same-Spin Energy          =      -0.0917711802168075 [Eh]
	 Opposite-Spin Energy      =      -0.2137414844827910 [Eh]
	 Correlation Energy        =      -0.3055126646995985 [Eh]
	 Total Energy              =   -2572.8392463081668211 [Eh]
	 SCS Total Energy          =   -2572.8208138182521907 [Eh]
                               Psi4 1.9 release
    Molecular point group: c1

    Geometry (in Bohr), charge = -1, multiplicity = 1:

       Center              X                  Y                   Z               Mass
    ------------   -----------------  -----------------  -----------------  -----------------
         BR           0.000000000000     0.000000000000     0.000000000000    78.918337600000
         O           -2.380323594066    -3.727242897522    -4.444061370335    15.994914619570
         H           -1.626848213872    -2.712548785279    -3.139199811528     1.007825032230
         H           -3.992380921554    -4.364464216204    -3.953947671614     1.007825032230
         O           -5.377039945461     2.890485397252    -0.644785892363    15.994914619570
         H           -6.433462990006     1.371659597890    -0.438218039863     1.007825032230
         H           -3.624753601107     2.319931726549    -0.791651627381     1.007825032230
         O            2.274848530374     1.869581644960    -5.636529578104    15.994914619570
         H            2.615093719263     2.654180814442    -4.066059453459     1.007825032230
         H            1.734264026295     0.150945653723    -5.194760742851     1.007825032230
         O           -3.670477414439    -4.347192119418     2.061598606294    15.994914619570
         H           -2.413684819085    -3.171910970759     1.436310908094     1.007825032230
         H           -3.169656527492    -5.939237247237     1.489697560864     1.007825032230
         O            5.660030212200    -2.639624254097    -1.821410636296    15.994914619570
         H            4.083696267388    -2.181016069340    -1.009752478425     1.007825032230
         H            6.431344607019    -1.042344584911    -2.317769879861     1.007825032230

  Charge       = -1
  Multiplicity = 1
  Basis Set: AUG-CC-PVTZ
    Blend: AUG-CC-PVTZ
  Basis Set: (AUG-CC-PVTZ AUX)
    Blend: AUG-CC-PVTZ-JKFIT

    Orbital Energies [Eh]
    ---------------------

    Doubly Occupied:

       1A   -489.806336     2A    -64.947099     3A    -58.301586
       4A    -58.301561     5A    -58.301531     6A    -20.431477
       7A    -20.425726     8A    -20.422894     9A    -20.422198
      10A    -20.415011    11A     -9.619700    12A     -7.227366
      13A     -7.227278    14A     -7.227033    15A     -2.969008
      16A     -2.968973    17A     -2.968716    18A     -2.968572
      19A     -2.968517    20A     -1.218492    21A     -1.211940
      22A     -1.211314    23A     -1.209568    24A     -1.188882
      25A     -0.791662    26A     -0.596900    27A     -0.587642
      28A     -0.577675    29A     -0.574427    30A     -0.560525
      31A     -0.454618    32A     -0.451153    33A     -0.445823
      34A     -0.437742    35A     -0.430276    36A     -0.377734
      37A     -0.374245    38A     -0.370257    39A     -0.368283
      40A     -0.357512    41A     -0.236988    42A     -0.235591
      43A     -0.232362

  @DF-RHF Final Energy: -2952.88323221960582

   => Energetics <=

    Nuclear Repulsion Energy =            454.2124042436034870
    One-Electron Energy =               -5029.3468880668360725
    Two-Electron Energy =                1622.2512516036269972
    Total Energy =                      -2952.8832322196058158
 Dipole X            :         34.8075476          -34.3400861            0.4674614
 Dipole Y            :         60.6329867          -60.5467419            0.0862448
 Dipole Z            :        103.3745334         -101.8668622            1.5076712
 Magnitude           :                                                    1.5808324
  Basis Set: (AUG-CC-PVTZ AUX)
    Blend: AUG-CC-PVTZ-RI
	 Reference Energy          =   -2952.8832322196058158 [Eh]
	 Singles Energy            =      -0.0000000000000000 [Eh]
	 Same-Spin Energy          =      -0.4467953333508231 [Eh]
	 Opposite-Spin Energy      =      -1.3045223919654068 [Eh]
	 Correlation Energy        =      -1.7513177253162300 [Eh]
	 Total Energy              =   -2954.6345499449221279 [Eh]

	 ================> DF-SCS-MP2 Energies <==================
	-----------------------------------------------------------
	 SCS Same-Spin Scale       =       0.3333333333333333 [-]
	 SCS Opposite-Spin Scale   =       1.2000000000000000 [-]
	 SCS Same-Spin Energy      =      -0.1489317777836077 [Eh]
	 SCS Opposite-Spin Energy  =      -1.5654268703584882 [Eh]
	 SCS Correlation Energy    =      -1.7143586481420958 [Eh]
	 SCS Total Energy          =   -2954.5975908677478401 [Eh]
	-----------------------------------------------------------

*** Psi4 exiting successfully. Buy a developer a beer!
