                               Psi4 1.8.2 release

  ==> Input File <==

--------------------------------------------------------------------------
MEMORY 60 GB

molecule dimer {
-1 1
Br         0.000000     0.000000     0.000000
O         -3.203691    -0.706166     0.782016
H         -2.295960    -0.464817     0.667408
H         -3.558639    -0.246998     1.530606
O         -1.688294    -2.239204    -1.689504
H         -1.640223    -2.974459    -1.039912
H         -1.367206    -1.475108    -1.153456
O          1.718343    -2.981602     0.227705
H          1.215621    -3.617408     0.840091
H          1.172353    -2.184568     0.147489
O         -1.023386     2.101542     2.512944
H         -0.754621     1.462034     1.797374
H         -0.259077     2.082588     3.154971

units ang
no_reorient
no_com
symmetry c1
}

set {
basis        aug-cc-pVTZ
scf_type     df
}

energy("mp2")
--------------------------------------------------------------------------

    Molecular point group: c1

    Geometry (in Angstrom), charge = -1, multiplicity = 1:

       Center              X                  Y                   Z               Mass
    ------------   -----------------  -----------------  -----------------  -----------------
         BR           0.000000000000     0.000000000000     0.000000000000    78.918337600000
         O           -3.203691000000    -0.706166000000     0.782016000000    15.994914619570
         H           -2.295960000000    -0.464817000000     0.667408000000     1.007825032230
         H           -3.558639000000    -0.246998000000     1.530606000000     1.007825032230
         O           -1.688294000000    -2.239204000000    -1.689504000000    15.994914619570
         H           -1.640223000000    -2.974459000000    -1.039912000000     1.007825032230
         H           -1.367206000000    -1.475108000000    -1.153456000000     1.007825032230
         O            1.718343000000    -2.981602000000     0.227705000000    15.994914619570
         H            1.215621000000    -3.617408000000     0.840091000000     1.007825032230
         H            1.172353000000    -2.184568000000     0.147489000000     1.007825032230
         O           -1.023386000000     2.101542000000     2.512944000000    15.994914619570
         H           -0.754621000000     1.462034000000     1.797374000000     1.007825032230
         H           -0.259077000000     2.082588000000     3.154971000000     1.007825032230

  Charge       = -1
  Multiplicity = 1
  Basis Set: AUG-CC-PVTZ
    Blend: AUG-CC-PVTZ
  Basis Set: (AUG-CC-PVTZ AUX)
    Blend: AUG-CC-PVTZ-JKFIT

    Orbital Energies [Eh]
    ---------------------

    Doubly Occupied:

       1A   -489.790296     2A    -64.930775     3A    -58.285262
       4A    -58.285256     5A    -58.285245     6A    -20.431709
       7A    -20.428785     8A    -20.413144     9A    -20.404606
      10A     -9.603171    11A     -7.210758    12A     -7.210700
      13A     -7.210497    14A     -2.952399    15A     -2.952386
      16A     -2.952175    17A     -2.952111    18A     -2.952059
      19A     -1.208919    20A     -1.195224    21A     -1.194155
      22A     -1.178209    23A     -0.770173    24A     -0.587981
      25A     -0.563109    26A     -0.557854    27A     -0.536380
      28A     -0.443897    29A     -0.437236    30A     -0.434249
      31A     -0.426451    32A     -0.369227    33A     -0.367084
      34A     -0.363563    35A     -0.345301    36A     -0.219170
      37A     -0.217649    38A     -0.213609

  @DF-RHF Final Energy: -2876.80753721486826

   => Energetics <=

    Nuclear Repulsion Energy =            332.8615727049507313
    One-Electron Energy =               -4681.5766616064956906
    Two-Electron Energy =                1471.9075516866766975
    Total Energy =                      -2876.8075372148678071
 Dipole X            :         78.6739915          -77.5996683            1.0743233
 Dipole Y            :         72.5061925          -71.8514993            0.6546931
 Dipole Z            :        -37.8291323           38.9469890            1.1178567
 Magnitude           :                                                    1.6829727
  Basis Set: (AUG-CC-PVTZ AUX)
    Blend: AUG-CC-PVTZ-RI
	 Reference Energy          =   -2876.8075372148682618 [Eh]
	 Singles Energy            =      -0.0000000000000000 [Eh]
	 Same-Spin Energy          =      -0.3756137771746547 [Eh]
	 Opposite-Spin Energy      =      -1.0874164638174297 [Eh]
	 Correlation Energy        =      -1.4630302409920843 [Eh]
	 Total Energy              =   -2878.2705674558601459 [Eh]

	 ================> DF-SCS-MP2 Energies <==================
	-----------------------------------------------------------
	 SCS Same-Spin Scale       =       0.3333333333333333 [-]
	 SCS Opposite-Spin Scale   =       1.2000000000000000 [-]
	 SCS Same-Spin Energy      =      -0.1252045923915515 [Eh]
	 SCS Opposite-Spin Energy  =      -1.3048997565809157 [Eh]
	 SCS Correlation Energy    =      -1.4301043489724672 [Eh]
	 SCS Total Energy          =   -2878.2376415638409526 [Eh]
	-----------------------------------------------------------

*** Psi4 exiting successfully. Buy a developer a beer!
