                               Psi4 1.8.2 release

  ==> Input File <==

--------------------------------------------------------------------------
MEMORY 60 GB

molecule dimer {
-1 1
Br         0.000000     0.000000     0.000000
O          2.124652     1.964937     2.121179
H          2.172793     1.368654     2.868479
H          1.679122     1.413724     1.418976
O          0.104991     3.249169    -0.182748
H         -0.717800     3.852559    -0.190945
H         -0.198510     2.348694    -0.321779
O          2.981573    -1.290363     1.136769
H          2.140404    -0.909703     0.930704
H          3.672272    -0.882775     0.618927
O         -2.479840     1.517813     1.775784
H         -2.172611     0.572932     1.816703
H         -2.115363     1.956989     2.554860

units ang
no_reorient
no_com
symmetry c1
}

set {
basis        aug-cc-pVTZ
scf_type     df
}

energy("mp2")
--------------------------------------------------------------------------

    Molecular point group: c1

    Geometry (in Angstrom), charge = -1, multiplicity = 1:

       Center              X                  Y                   Z               Mass
    ------------   -----------------  -----------------  -----------------  -----------------
         BR           0.000000000000     0.000000000000     0.000000000000    78.918337600000
         O            2.124652000000     1.964937000000     2.121179000000    15.994914619570
         H            2.172793000000     1.368654000000     2.868479000000     1.007825032230
         H            1.679122000000     1.413724000000     1.418976000000     1.007825032230
         O            0.104991000000     3.249169000000    -0.182748000000    15.994914619570
         H           -0.717800000000     3.852559000000    -0.190945000000     1.007825032230
         H           -0.198510000000     2.348694000000    -0.321779000000     1.007825032230
         O            2.981573000000    -1.290363000000     1.136769000000    15.994914619570
         H            2.140404000000    -0.909703000000     0.930704000000     1.007825032230
         H            3.672272000000    -0.882775000000     0.618927000000     1.007825032230
         O           -2.479840000000     1.517813000000     1.775784000000    15.994914619570
         H           -2.172611000000     0.572932000000     1.816703000000     1.007825032230
         H           -2.115363000000     1.956989000000     2.554860000000     1.007825032230

  Charge       = -1
  Multiplicity = 1
  Basis Set: AUG-CC-PVTZ
    Blend: AUG-CC-PVTZ
  Basis Set: (AUG-CC-PVTZ AUX)
    Blend: AUG-CC-PVTZ-JKFIT

    Orbital Energies [Eh]
    ---------------------

    Doubly Occupied:

       1A   -489.770951     2A    -64.911319     3A    -58.265837
       4A    -58.265818     5A    -58.265757     6A    -20.432923
       7A    -20.413319     8A    -20.410480     9A    -20.404265
      10A     -9.583677    11A     -7.191314    12A     -7.191177
      13A     -7.190922    14A     -2.933042    15A     -2.933016
      16A     -2.932673    17A     -2.932504    18A     -2.932428
      19A     -1.205803    20A     -1.205353    21A     -1.186921
      22A     -1.171933    23A     -0.747440    24A     -0.586937
      25A     -0.573398    26A     -0.548452    27A     -0.541774
      28A     -0.443542    29A     -0.433708    30A     -0.427850
      31A     -0.411689    32A     -0.373956    33A     -0.365029
      34A     -0.351635    35A     -0.341418    36A     -0.199247
      37A     -0.196783    38A     -0.192914

  @DF-RHF Final Energy: -2876.79888967864099

   => Energetics <=

    Nuclear Repulsion Energy =            332.9968779478431316
    One-Electron Energy =               -4682.6571225088564461
    Two-Electron Energy =                1472.8613548823720976
    Total Energy =                      -2876.7988896786409896
 Dipole X            :        -50.7455846           49.7211794           -1.0244053
 Dipole Y            :       -101.7689066          100.6345718           -1.1343348
 Dipole Z            :        -92.1099107           91.6588924           -0.4510183
 Magnitude           :                                                    1.5935931
  Basis Set: (AUG-CC-PVTZ AUX)
    Blend: AUG-CC-PVTZ-RI
	 Reference Energy          =   -2876.7988896786409896 [Eh]
	 Singles Energy            =      -0.0000000000000000 [Eh]
	 Same-Spin Energy          =      -0.3730484056021849 [Eh]
	 Opposite-Spin Energy      =      -1.0825071041712064 [Eh]
	 Correlation Energy        =      -1.4555555097733914 [Eh]
	 Total Energy              =   -2878.2544451884145928 [Eh]

	 ================> DF-SCS-MP2 Energies <==================
	-----------------------------------------------------------
	 SCS Same-Spin Scale       =       0.3333333333333333 [-]
	 SCS Opposite-Spin Scale   =       1.2000000000000000 [-]
	 SCS Same-Spin Energy      =      -0.1243494685340616 [Eh]
	 SCS Opposite-Spin Energy  =      -1.2990085250054477 [Eh]
	 SCS Correlation Energy    =      -1.4233579935395093 [Eh]
	 SCS Total Energy          =   -2878.2222476721804014 [Eh]
	-----------------------------------------------------------

*** Psi4 exiting successfully. Buy a developer a beer!
