                               Psi4 1.9 release

  ==> Input File <==

--------------------------------------------------------------------------
MEMORY 60 GB

molecule dimer {
-1 1
Br     0.000000     0.000000     0.000000
--
0 1
O     -0.532809     1.922738    -2.739100
H     -0.280531     1.490316    -1.875736
H     -0.953311     1.232509    -3.332771
O     -1.825040     1.989986     2.364796
H     -1.476176     1.902850     3.256188
H     -1.117718     1.930523     1.713505
O      1.897897    -0.527032    -2.560802
H      2.254682     0.294757    -2.824082
H      1.284234    -0.440483    -1.819197
O     -3.381797     0.146011    -0.729659
H     -3.647086     0.178508     0.207781
H     -2.420093     0.129388    -0.713625
O     -1.303184    -2.414765    -1.874233
H     -0.735005    -2.478283    -2.608129
H     -1.009543    -1.639149    -1.422000

units ang
no_reorient
no_com
symmetry c1
}

set {
basis        aug-cc-pVTZ
scf_type     df
}

energy("mp2", bsse_type="cp")
--------------------------------------------------------------------------

                               Psi4 1.9 release
    Molecular point group: c1
  Charge       = 0
  Multiplicity = 1
  Basis Set: AUG-CC-PVTZ
    Blend: AUG-CC-PVTZ
  Basis Set: (AUG-CC-PVTZ AUX)
    Blend: AUG-CC-PVTZ-JKFIT
  @DF-RHF Final Energy:  -380.28455252715975
    Total Energy =                       -380.2845525271597467
 Dipole X            :         94.4839906          -93.0879297            1.3960609
 Dipole Y            :        -21.5004689           21.8007121            0.3002431
 Dipole Z            :        102.5517773         -101.5350792            1.0166981
 Magnitude           :                                                    1.7529424
  Basis Set: (AUG-CC-PVTZ AUX)
    Blend: AUG-CC-PVTZ-RI
	 Reference Energy          =    -380.2845525271597467 [Eh]
	 Singles Energy            =      -0.0000000000000000 [Eh]
	 Same-Spin Energy          =      -0.3439896114264323 [Eh]
	 Opposite-Spin Energy      =      -1.0823283690952674 [Eh]
	 Correlation Energy        =      -1.4263179805216997 [Eh]
	 Total Energy              =    -381.7108705076814203 [Eh]
	 SCS Total Energy          =    -381.6980097738828590 [Eh]
                               Psi4 1.9 release
    Molecular point group: c1
  Multiplicity = 1
  Basis Set: AUG-CC-PVTZ
    Blend: AUG-CC-PVTZ
  Basis Set: (AUG-CC-PVTZ AUX)
    Blend: AUG-CC-PVTZ-JKFIT
  @DF-RHF Final Energy: -2572.53373034988999
    Total Energy =                      -2572.5337303498899928
  Basis Set: (AUG-CC-PVTZ AUX)
	 Singles Energy            =      -0.0000000000000000 [Eh]
	 Same-Spin Energy          =      -0.0914233019170718 [Eh]
	 Opposite-Spin Energy      =      -0.2129181343641889 [Eh]
	 Correlation Energy        =      -0.3043414362812607 [Eh]
	 Total Energy              =   -2572.8380717861714402 [Eh]
	 SCS Total Energy          =   -2572.8197065450995069 [Eh]
                               Psi4 1.9 release
    Molecular point group: c1

    Geometry (in Bohr), charge = -1, multiplicity = 1:

       Center              X                  Y                   Z               Mass
    ------------   -----------------  -----------------  -----------------  -----------------
         BR           0.000000000000     0.000000000000     0.000000000000    78.918337600000
         O           -1.006863087179     3.633448231011    -5.176148830242    15.994914619570
         H           -0.530126759701     2.816289080388    -3.544627323662     1.007825032230
         H           -1.801496702386     2.329104457162    -6.298024428868     1.007825032230
         O           -3.448825768006     3.760528533495     4.468816782578    15.994914619570
         H           -2.789568352974     3.595865357827     6.153303533002     1.007825032230
         H           -2.112180905494     3.648159748897     3.238055164603     1.007825032230
         O            3.586505544328    -0.995946139352    -4.839214441525    15.994914619570
         H            4.260731480000     0.557010003562    -5.336741535835     1.007825032230
         H            2.426850541001    -0.832392232920    -3.437784098255     1.007825032230
         O           -6.390670141895     0.275920801304    -1.378855674975    15.994914619570
         H           -6.891993695991     0.337331231203     0.392649184074     1.007825032230
         H           -4.573312968138     0.244507883921    -1.348555806280     1.007825032230
         O           -2.462660851079    -4.563244507341    -3.541787065295    15.994914619570
         H           -1.388958150842    -4.683276131378    -4.928649509864     1.007825032230
         H           -1.907759781873    -3.097542688818    -2.687190550401     1.007825032230

  Charge       = -1
  Multiplicity = 1
  Basis Set: AUG-CC-PVTZ
    Blend: AUG-CC-PVTZ
  Basis Set: (AUG-CC-PVTZ AUX)
    Blend: AUG-CC-PVTZ-JKFIT

    Orbital Energies [Eh]
    ---------------------

    Doubly Occupied:

       1A   -489.800897     2A    -64.941492     3A    -58.295982
       4A    -58.295970     5A    -58.295940     6A    -20.442652
       7A    -20.422888     8A    -20.412324     9A    -20.411966
      10A    -20.409602    11A     -9.613950    12A     -7.221618
      13A     -7.221391    14A     -7.221338    15A     -2.963201
      16A     -2.963146    17A     -2.963060    18A     -2.962815
      19A     -2.962800    20A     -1.225358    21A     -1.214001
      22A     -1.207019    23A     -1.194000    24A     -1.184541
      25A     -0.783438    26A     -0.605496    27A     -0.592857
      28A     -0.579735    29A     -0.559928    30A     -0.558300
      31A     -0.453085    32A     -0.443172    33A     -0.434752
      34A     -0.432609    35A     -0.426763    36A     -0.387729
      37A     -0.368165    38A     -0.363487    39A     -0.357550
      40A     -0.354005    41A     -0.231265    42A     -0.227315
      43A     -0.226622

  @DF-RHF Final Energy: -2952.87848841775121

   => Energetics <=

    Nuclear Repulsion Energy =            447.8542712572496498
    One-Electron Energy =               -5016.9970538646721252
    Two-Electron Energy =                1616.2642941896710909
    Total Energy =                      -2952.8784884177512140
 Dipole X            :         94.8588969          -93.0879297            1.7709672
 Dipole Y            :        -21.6377306           21.8007121            0.1629814
 Dipole Z            :        103.4062866         -101.5350792            1.8712074
 Magnitude           :                                                    2.5815315
  Basis Set: (AUG-CC-PVTZ AUX)
    Blend: AUG-CC-PVTZ-RI
	 Reference Energy          =   -2952.8784884177512140 [Eh]
	 Singles Energy            =      -0.0000000000000000 [Eh]
	 Same-Spin Energy          =      -0.4453481520186420 [Eh]
	 Opposite-Spin Energy      =      -1.3024974087107775 [Eh]
	 Correlation Energy        =      -1.7478455607294194 [Eh]
	 Total Energy              =   -2954.6263339784804884 [Eh]

	 ================> DF-SCS-MP2 Energies <==================
	-----------------------------------------------------------
	 SCS Same-Spin Scale       =       0.3333333333333333 [-]
	 SCS Opposite-Spin Scale   =       1.2000000000000000 [-]
	 SCS Same-Spin Energy      =      -0.1484493840062140 [Eh]
	 SCS Opposite-Spin Energy  =      -1.5629968904529330 [Eh]
	 SCS Correlation Energy    =      -1.7114462744591470 [Eh]
	 SCS Total Energy          =   -2954.5899346922101358 [Eh]
	-----------------------------------------------------------

*** Psi4 exiting successfully. Buy a developer a beer!
