                               Psi4 1.8.2 release

  ==> Input File <==

--------------------------------------------------------------------------
MEMORY 60 GB

molecule dimer {
0 1
Gh(Br)     0.000000     0.000000     0.000000
Gh(O)     -0.999022    -2.679634    -1.724013
Gh(H)     -0.678718    -2.037465    -1.171070
Gh(H)     -1.864558    -2.807700    -1.354503
Gh(O)      2.580843    -1.796834    -1.300260
Gh(H)      2.444330    -2.737774    -1.082597
Gh(H)      1.984606    -1.292710    -0.800320
O          0.716653    -2.040909     2.401316
H          0.606530    -1.564525     1.571865
H          0.320539    -1.488156     3.042768

units ang
no_reorient
no_com
symmetry c1
}

set {
basis        aug-cc-pVTZ
scf_type     df
}

energy("mp2")
--------------------------------------------------------------------------

    Molecular point group: c1

    Geometry (in Angstrom), charge = 0, multiplicity = 1:

       Center              X                  Y                   Z               Mass
    ------------   -----------------  -----------------  -----------------  -----------------
      Gh(BR)          0.000000000000     0.000000000000     0.000000000000    78.918337600000
      Gh(O)          -0.999022000000    -2.679634000000    -1.724013000000    15.994914619570
      Gh(H)          -0.678718000000    -2.037465000000    -1.171070000000     1.007825032230
      Gh(H)          -1.864558000000    -2.807700000000    -1.354503000000     1.007825032230
      Gh(O)           2.580843000000    -1.796834000000    -1.300260000000    15.994914619570
      Gh(H)           2.444330000000    -2.737774000000    -1.082597000000     1.007825032230
      Gh(H)           1.984606000000    -1.292710000000    -0.800320000000     1.007825032230
         O            0.716653000000    -2.040909000000     2.401316000000    15.994914619570
         H            0.606530000000    -1.564525000000     1.571865000000     1.007825032230
         H            0.320539000000    -1.488156000000     3.042768000000     1.007825032230

  Charge       = 0
  Multiplicity = 1
  Basis Set: AUG-CC-PVTZ
    Blend: AUG-CC-PVTZ
  Basis Set: (AUG-CC-PVTZ AUX)
    Blend: AUG-CC-PVTZ-JKFIT

    Orbital Energies [Eh]
    ---------------------

    Doubly Occupied:

       1A    -20.565630     2A     -1.358182     3A     -0.722453
       4A     -0.586509     5A     -0.511078

  @DF-RHF Final Energy:   -76.06063545876198

   => Energetics <=

    Nuclear Repulsion Energy =              9.2780566122752735
    One-Electron Energy =                -123.1896759740327809
    Two-Electron Energy =                  37.8509839029955231
    Total Energy =                        -76.0606354587619791
 Dipole X            :        -12.9257083           12.5861297           -0.3395786
 Dipole Y            :         37.3117123          -36.6228035            0.6889088
 Dipole Z            :        -45.1442354           45.0230292           -0.1212062
 Magnitude           :                                                    0.7775603
  Basis Set: (AUG-CC-PVTZ AUX)
    Blend: AUG-CC-PVTZ-RI
	 Reference Energy          =     -76.0606354587619791 [Eh]
	 Singles Energy            =      -0.0000000000000000 [Eh]
	 Same-Spin Energy          =      -0.0682334803644160 [Eh]
	 Opposite-Spin Energy      =      -0.2153511038542262 [Eh]
	 Correlation Energy        =      -0.2835845842186422 [Eh]
	 Total Energy              =     -76.3442200429806235 [Eh]

	 ================> DF-SCS-MP2 Energies <==================
	-----------------------------------------------------------
	 SCS Same-Spin Scale       =       0.3333333333333333 [-]
	 SCS Opposite-Spin Scale   =       1.2000000000000000 [-]
	 SCS Same-Spin Energy      =      -0.0227444934548053 [Eh]
	 SCS Opposite-Spin Energy  =      -0.2584213246250714 [Eh]
	 SCS Correlation Energy    =      -0.2811658180798768 [Eh]
	 SCS Total Energy          =     -76.3418012768418492 [Eh]
	-----------------------------------------------------------

*** Psi4 exiting successfully. Buy a developer a beer!
