                               Psi4 1.8.2 release

  ==> Input File <==

--------------------------------------------------------------------------
MEMORY 60 GB

molecule dimer {
0 1
Gh(Br)     0.000000     0.000000     0.000000
Gh(O)      3.287674    -0.889413    -0.174356
Gh(H)      2.291823    -0.896161    -0.076636
Gh(H)      3.344902    -0.512476    -1.041446
Gh(O)      0.571519     3.175317    -0.846170
Gh(H)      0.928904     2.305382    -0.539798
Gh(H)      1.302047     3.732851    -1.068660
O          0.642149    -1.354710    -2.748407
H          0.407845    -0.866599    -1.970799
H         -0.147391    -1.177426    -3.323453

units ang
no_reorient
no_com
symmetry c1
}

set {
basis        aug-cc-pVTZ
scf_type     df
}

energy("mp2")
--------------------------------------------------------------------------

    Molecular point group: c1

    Geometry (in Angstrom), charge = 0, multiplicity = 1:

       Center              X                  Y                   Z               Mass
    ------------   -----------------  -----------------  -----------------  -----------------
      Gh(BR)          0.000000000000     0.000000000000     0.000000000000    78.918337600000
      Gh(O)           3.287674000000    -0.889413000000    -0.174356000000    15.994914619570
      Gh(H)           2.291823000000    -0.896161000000    -0.076636000000     1.007825032230
      Gh(H)           3.344902000000    -0.512476000000    -1.041446000000     1.007825032230
      Gh(O)           0.571519000000     3.175317000000    -0.846170000000    15.994914619570
      Gh(H)           0.928904000000     2.305382000000    -0.539798000000     1.007825032230
      Gh(H)           1.302047000000     3.732851000000    -1.068660000000     1.007825032230
         O            0.642149000000    -1.354710000000    -2.748407000000    15.994914619570
         H            0.407845000000    -0.866599000000    -1.970799000000     1.007825032230
         H           -0.147391000000    -1.177426000000    -3.323453000000     1.007825032230

  Charge       = 0
  Multiplicity = 1
  Basis Set: AUG-CC-PVTZ
    Blend: AUG-CC-PVTZ
  Basis Set: (AUG-CC-PVTZ AUX)
    Blend: AUG-CC-PVTZ-JKFIT

    Orbital Energies [Eh]
    ---------------------

    Doubly Occupied:

       1A    -20.570962     2A     -1.350168     3A     -0.703724
       4A     -0.589565     5A     -0.510450

  @DF-RHF Final Energy:   -76.05803756327144

   => Energetics <=

    Nuclear Repulsion Energy =              9.0863056981149164
    One-Electron Energy =                -122.8389451232265372
    Two-Electron Energy =                  37.6946018618401908
    Total Energy =                        -76.0580375632714265
 Dipole X            :        -10.8658165           10.2000727           -0.6657439
 Dipole Y            :         24.7795252          -24.3428945            0.4366307
 Dipole Z            :         51.6950141          -51.5545784            0.1404357
 Magnitude           :                                                    0.8084451
  Basis Set: (AUG-CC-PVTZ AUX)
    Blend: AUG-CC-PVTZ-RI
	 Reference Energy          =     -76.0580375632714407 [Eh]
	 Singles Energy            =      -0.0000000000000000 [Eh]
	 Same-Spin Energy          =      -0.0686970295464608 [Eh]
	 Opposite-Spin Energy      =      -0.2168188488687698 [Eh]
	 Correlation Energy        =      -0.2855158784152306 [Eh]
	 Total Energy              =     -76.3435534416866659 [Eh]

	 ================> DF-SCS-MP2 Energies <==================
	-----------------------------------------------------------
	 SCS Same-Spin Scale       =       0.3333333333333333 [-]
	 SCS Opposite-Spin Scale   =       1.2000000000000000 [-]
	 SCS Same-Spin Energy      =      -0.0228990098488203 [Eh]
	 SCS Opposite-Spin Energy  =      -0.2601826186425237 [Eh]
	 SCS Correlation Energy    =      -0.2830816284913439 [Eh]
	 SCS Total Energy          =     -76.3411191917627860 [Eh]
	-----------------------------------------------------------

*** Psi4 exiting successfully. Buy a developer a beer!
