                               Psi4 1.8.2 release

  ==> Input File <==

--------------------------------------------------------------------------
MEMORY 60 GB

molecule dimer {
-1 1
Br         0.000000     0.000000     0.000000
O         -1.696690     2.934160     0.134506
H         -1.321713     2.170825    -0.262468
H         -2.582990     2.990468    -0.140736
O          2.205792     1.542061    -1.989152
H          1.378254     1.355469    -1.592385
H          1.896691     1.977670    -2.832326
O          2.682266     1.638353     1.709860
H          1.939337     1.329311     1.132545
H          2.900490     2.498860     1.415817

units ang
no_reorient
no_com
symmetry c1
}

set {
basis        aug-cc-pVTZ
scf_type     df
}

energy("mp2")
--------------------------------------------------------------------------

    Molecular point group: c1

    Geometry (in Angstrom), charge = -1, multiplicity = 1:

       Center              X                  Y                   Z               Mass
    ------------   -----------------  -----------------  -----------------  -----------------
         BR           0.000000000000     0.000000000000     0.000000000000    78.918337600000
         O           -1.696690000000     2.934160000000     0.134506000000    15.994914619570
         H           -1.321713000000     2.170825000000    -0.262468000000     1.007825032230
         H           -2.582990000000     2.990468000000    -0.140736000000     1.007825032230
         O            2.205792000000     1.542061000000    -1.989152000000    15.994914619570
         H            1.378254000000     1.355469000000    -1.592385000000     1.007825032230
         H            1.896691000000     1.977670000000    -2.832326000000     1.007825032230
         O            2.682266000000     1.638353000000     1.709860000000    15.994914619570
         H            1.939337000000     1.329311000000     1.132545000000     1.007825032230
         H            2.900490000000     2.498860000000     1.415817000000     1.007825032230

  Charge       = -1
  Multiplicity = 1
  Basis Set: AUG-CC-PVTZ
    Blend: AUG-CC-PVTZ
  Basis Set: (AUG-CC-PVTZ AUX)
    Blend: AUG-CC-PVTZ-JKFIT

    Orbital Energies [Eh]
    ---------------------

    Doubly Occupied:

       1A   -489.760406     2A    -64.900642     3A    -58.255168
       4A    -58.255140     5A    -58.255090     6A    -20.420093
       7A    -20.413966     8A    -20.403045     9A     -9.572921
      10A     -7.180553    11A     -7.180396    12A     -7.180118
      13A     -2.922296    14A     -2.922283    15A     -2.921908
      16A     -2.921729    17A     -2.921647    18A     -1.217828
      19A     -1.203781    20A     -1.188731    21A     -0.734280
      22A     -0.591252    23A     -0.557224    24A     -0.554918
      25A     -0.445827    26A     -0.440025    27A     -0.422332
      28A     -0.366634    29A     -0.363215    30A     -0.348448
      31A     -0.187534    32A     -0.184990    33A     -0.181514

  @DF-RHF Final Energy: -2800.74065069685003

   => Energetics <=

    Nuclear Repulsion Energy =            229.7010372082515062
    One-Electron Energy =               -4370.1315014151732612
    Two-Electron Energy =                1339.6898135100718719
    Total Energy =                      -2800.7406506968500253
 Dipole X            :        -57.8428934           56.2023693           -1.6405242
 Dipole Y            :       -116.3620852          115.7253067           -0.6367785
 Dipole Z            :          5.3523250           -6.4965780           -1.1442529
 Magnitude           :                                                    2.0990763
  Basis Set: (AUG-CC-PVTZ AUX)
    Blend: AUG-CC-PVTZ-RI
	 Reference Energy          =   -2800.7406506968500253 [Eh]
	 Singles Energy            =      -0.0000000000000000 [Eh]
	 Same-Spin Energy          =      -0.3004029211992397 [Eh]
	 Opposite-Spin Energy      =      -0.8593502540479778 [Eh]
	 Correlation Energy        =      -1.1597531752472174 [Eh]
	 Total Energy              =   -2801.9004038720972858 [Eh]

	 ================> DF-SCS-MP2 Energies <==================
	-----------------------------------------------------------
	 SCS Same-Spin Scale       =       0.3333333333333333 [-]
	 SCS Opposite-Spin Scale   =       1.2000000000000000 [-]
	 SCS Same-Spin Energy      =      -0.1001343070664132 [Eh]
	 SCS Opposite-Spin Energy  =      -1.0312203048575734 [Eh]
	 SCS Correlation Energy    =      -1.1313546119239866 [Eh]
	 SCS Total Energy          =   -2801.8720053087740780 [Eh]
	-----------------------------------------------------------

*** Psi4 exiting successfully. Buy a developer a beer!
