                               Psi4 1.8.2 release

  ==> Input File <==

--------------------------------------------------------------------------
MEMORY 60 GB

molecule dimer {
-1 1
Br         0.000000     0.000000     0.000000
O          1.933199     1.986490     1.808234
H          1.215137     1.668912     1.233648
H          2.279603     2.831188     1.447197
O         -2.110295     2.665636     0.091665
H         -1.505616     1.895002     0.152179
H         -1.513127     3.456853    -0.085606
O          0.395690    -0.651139     3.487777
H          0.093477    -0.316228     2.602410
H          0.310350    -1.614550     3.373877

units ang
no_reorient
no_com
symmetry c1
}

set {
basis        aug-cc-pVTZ
scf_type     df
}

energy("mp2")
--------------------------------------------------------------------------

    Molecular point group: c1

    Geometry (in Angstrom), charge = -1, multiplicity = 1:

       Center              X                  Y                   Z               Mass
    ------------   -----------------  -----------------  -----------------  -----------------
         BR           0.000000000000     0.000000000000     0.000000000000    78.918337600000
         O            1.933199000000     1.986490000000     1.808234000000    15.994914619570
         H            1.215137000000     1.668912000000     1.233648000000     1.007825032230
         H            2.279603000000     2.831188000000     1.447197000000     1.007825032230
         O           -2.110295000000     2.665636000000     0.091665000000    15.994914619570
         H           -1.505616000000     1.895002000000     0.152179000000     1.007825032230
         H           -1.513127000000     3.456853000000    -0.085606000000     1.007825032230
         O            0.395690000000    -0.651139000000     3.487777000000    15.994914619570
         H            0.093477000000    -0.316228000000     2.602410000000     1.007825032230
         H            0.310350000000    -1.614550000000     3.373877000000     1.007825032230

  Charge       = -1
  Multiplicity = 1
  Basis Set: AUG-CC-PVTZ
    Blend: AUG-CC-PVTZ
  Basis Set: (AUG-CC-PVTZ AUX)
    Blend: AUG-CC-PVTZ-JKFIT

    Orbital Energies [Eh]
    ---------------------

    Doubly Occupied:

       1A   -489.770699     2A    -64.911003     3A    -58.265517
       4A    -58.265497     5A    -58.265451     6A    -20.417254
       7A    -20.412863     8A    -20.409954     9A     -9.583342
      10A     -7.190982    11A     -7.190776    12A     -7.190596
      13A     -2.932673    14A     -2.932635    15A     -2.932390
      16A     -2.932152    17A     -2.932112    18A     -1.185555
      19A     -1.184250    20A     -1.182436    21A     -0.746003
      22A     -0.560806    23A     -0.547903    24A     -0.541001
      25A     -0.431650    26A     -0.428824    27A     -0.419129
      28A     -0.355684    29A     -0.352431    30A     -0.351786
      31A     -0.198249    32A     -0.194745    33A     -0.192864

  @DF-RHF Final Energy: -2800.73869901785019

   => Energetics <=

    Nuclear Repulsion Energy =            230.9676490593574272
    One-Electron Energy =               -4372.5942667614972379
    Two-Electron Energy =                1340.8879186842896161
    Total Energy =                      -2800.7386990178501947
 Dipole X            :         -4.6338309            4.9672887            0.3334579
 Dipole Y            :        -76.0808135           75.4550124           -0.6258011
 Dipole Z            :        -99.7919064           97.9352700           -1.8566364
 Magnitude           :                                                    1.9874405
  Basis Set: (AUG-CC-PVTZ AUX)
    Blend: AUG-CC-PVTZ-RI
	 Reference Energy          =   -2800.7386990178501947 [Eh]
	 Singles Energy            =      -0.0000000000000000 [Eh]
	 Same-Spin Energy          =      -0.3028920886269708 [Eh]
	 Opposite-Spin Energy      =      -0.8652691776044690 [Eh]
	 Correlation Energy        =      -1.1681612662314398 [Eh]
	 Total Energy              =   -2801.9068602840816311 [Eh]

	 ================> DF-SCS-MP2 Energies <==================
	-----------------------------------------------------------
	 SCS Same-Spin Scale       =       0.3333333333333333 [-]
	 SCS Opposite-Spin Scale   =       1.2000000000000000 [-]
	 SCS Same-Spin Energy      =      -0.1009640295423236 [Eh]
	 SCS Opposite-Spin Energy  =      -1.0383230131253627 [Eh]
	 SCS Correlation Energy    =      -1.1392870426676862 [Eh]
	 SCS Total Energy          =   -2801.8779860605177419 [Eh]
	-----------------------------------------------------------

*** Psi4 exiting successfully. Buy a developer a beer!
