                               Psi4 1.9 release

  ==> Input File <==

--------------------------------------------------------------------------
MEMORY 60 GB

molecule dimer {
-1 1
Br     0.000000     0.000000     0.000000
--
0 1
O      1.500307     0.811394    -3.090514
H      1.680740     0.622734    -2.201421
H      1.748017     1.689370    -3.324807
O      0.724522    -0.831400     3.164447
H      0.313632    -0.838633     2.273180
H      1.443347    -0.198288     3.178378
O     -0.538708    -3.161155    -1.222705
H     -0.911093    -2.966491    -2.155417
H     -0.428745    -2.313873    -0.869458
O     -2.786344     0.234985    -1.999484
H     -2.318369     0.483461    -1.218225
H     -2.131614     0.066966    -2.657688

units ang
no_reorient
no_com
symmetry c1
}

set {
basis        aug-cc-pVTZ
scf_type     df
}

energy("mp2", bsse_type="cp")
--------------------------------------------------------------------------

                               Psi4 1.9 release
    Molecular point group: c1
  Charge       = 0
  Multiplicity = 1
  Basis Set: AUG-CC-PVTZ
    Blend: AUG-CC-PVTZ
  Basis Set: (AUG-CC-PVTZ AUX)
    Blend: AUG-CC-PVTZ-JKFIT
  @DF-RHF Final Energy:  -304.23312956160146
    Total Energy =                       -304.2331295616014586
 Dipole X            :         18.8754169          -17.7745164            1.1009005
 Dipole Y            :         52.7057627          -51.0682650            1.6374978
 Dipole Z            :         60.3350656          -60.7764381           -0.4413726
 Magnitude           :                                                    2.0219275
  Basis Set: (AUG-CC-PVTZ AUX)
    Blend: AUG-CC-PVTZ-RI
	 Reference Energy          =    -304.2331295616014586 [Eh]
	 Singles Energy            =      -0.0000000000000000 [Eh]
	 Same-Spin Energy          =      -0.2735596916725558 [Eh]
	 Opposite-Spin Energy      =      -0.8619694306829432 [Eh]
	 Correlation Energy        =      -1.1355291223554991 [Eh]
	 Total Energy              =    -305.3686586839569372 [Eh]
	 SCS Total Energy          =    -305.3586794423118249 [Eh]
                               Psi4 1.9 release
    Molecular point group: c1
  Multiplicity = 1
  Basis Set: AUG-CC-PVTZ
    Blend: AUG-CC-PVTZ
  Basis Set: (AUG-CC-PVTZ AUX)
    Blend: AUG-CC-PVTZ-JKFIT
  @DF-RHF Final Energy: -2572.53371427100274
    Total Energy =                      -2572.5337142710027365
  Basis Set: (AUG-CC-PVTZ AUX)
	 Singles Energy            =      -0.0000000000000000 [Eh]
	 Same-Spin Energy          =      -0.0899047590909558 [Eh]
	 Opposite-Spin Energy      =      -0.2090206442505234 [Eh]
	 Correlation Energy        =      -0.2989254033414792 [Eh]
	 Total Energy              =   -2572.8326396743441364 [Eh]
	 SCS Total Energy          =   -2572.8145072971337868 [Eh]
                               Psi4 1.9 release
    Molecular point group: c1

    Geometry (in Bohr), charge = -1, multiplicity = 1:

       Center              X                  Y                   Z               Mass
    ------------   -----------------  -----------------  -----------------  -----------------
         BR           0.000000000000     0.000000000000     0.000000000000    78.918337600000
         O            2.835169334107     1.533312439840    -5.840225046893    15.994914619570
         H            3.176138288102     1.176796709011    -4.160082776831     1.007825032230
         H            3.303273392644     3.192446624565    -6.282974650005     1.007825032230
         O            1.369148151869    -1.571118300706     5.979938168527    15.994914619570
         H            0.592678584180    -1.584786689771     4.295687633868     1.007825032230
         H            2.727530534001    -0.374710013965     6.006263943180     1.007825032230
         O           -1.018010581593    -5.973717190122    -2.310577582228    15.994914619570
         H           -1.721716244822    -5.605855543636    -4.073147816156     1.007825032230
         H           -0.810210627659    -4.372586259091    -1.643037497588     1.007825032230
         O           -5.265427051313     0.444057293591    -3.778477152235    15.994914619570
         H           -4.381082467752     0.913608882340    -2.302111609186     1.007825032230
         H           -4.028166665192     0.126547399717    -5.022302446916     1.007825032230

  Charge       = -1
  Multiplicity = 1
  Basis Set: AUG-CC-PVTZ
    Blend: AUG-CC-PVTZ
  Basis Set: (AUG-CC-PVTZ AUX)
    Blend: AUG-CC-PVTZ-JKFIT

    Orbital Energies [Eh]
    ---------------------

    Doubly Occupied:

       1A   -489.777629     2A    -64.918012     3A    -58.272518
       4A    -58.272506     5A    -58.272472     6A    -20.434446
       7A    -20.416790     8A    -20.415558     9A    -20.409235
      10A     -9.590368    11A     -7.197896    12A     -7.197843
      13A     -7.197770    14A     -2.939542    15A     -2.939534
      16A     -2.939408    17A     -2.939338    18A     -2.939312
      19A     -1.235762    20A     -1.212992    21A     -1.196775
      22A     -1.189815    23A     -0.753690    24A     -0.620622
      25A     -0.583358    26A     -0.566844    27A     -0.555620
      28A     -0.452097    29A     -0.443147    30A     -0.437128
      31A     -0.424609    32A     -0.386775    33A     -0.366669
      34A     -0.359192    35A     -0.354655    36A     -0.204252
      37A     -0.203125    38A     -0.202467

  @DF-RHF Final Energy: -2876.81228896317634

   => Energetics <=

    Nuclear Repulsion Energy =            321.5030586587885182
    One-Electron Energy =               -4658.9911483582309302
    Two-Electron Energy =                1460.6758007362664102
    Total Energy =                      -2876.8122889631763428
 Dipole X            :         18.9242554          -17.7745164            1.1497390
 Dipole Y            :         52.9725827          -51.0682650            1.9043178
 Dipole Z            :         60.4835445          -60.7764381           -0.2928936
 Magnitude           :                                                    2.2436828
  Basis Set: (AUG-CC-PVTZ AUX)
    Blend: AUG-CC-PVTZ-RI
	 Reference Energy          =   -2876.8122889631763428 [Eh]
	 Singles Energy            =      -0.0000000000000000 [Eh]
	 Same-Spin Energy          =      -0.3700684948782781 [Eh]
	 Opposite-Spin Energy      =      -1.0759611355011389 [Eh]
	 Correlation Energy        =      -1.4460296303794169 [Eh]
	 Total Energy              =   -2878.2583185935559413 [Eh]

	 ================> DF-SCS-MP2 Energies <==================
	-----------------------------------------------------------
	 SCS Same-Spin Scale       =       0.3333333333333333 [-]
	 SCS Opposite-Spin Scale   =       1.2000000000000000 [-]
	 SCS Same-Spin Energy      =      -0.1233561649594260 [Eh]
	 SCS Opposite-Spin Energy  =      -1.2911533626013667 [Eh]
	 SCS Correlation Energy    =      -1.4145095275607926 [Eh]
	 SCS Total Energy          =   -2878.2267984907371101 [Eh]
	-----------------------------------------------------------

*** Psi4 exiting successfully. Buy a developer a beer!
