                               Psi4 1.8.2 release

  ==> Input File <==

--------------------------------------------------------------------------
MEMORY 60 GB

molecule dimer {
-1 1
Br         0.000000     0.000000     0.000000
O         -2.781824     0.954914     1.546349
H         -2.079798     0.629798     0.983421
H         -2.569173     1.860935     1.801428
O          0.417110     1.164103     2.920605
H         -0.279275     0.933093     3.573898
H          0.289615     0.628287     2.138627
O         -1.161290     3.255151    -0.272712
H         -0.718022     2.402898    -0.139574
H         -0.489651     3.796101    -0.744628
O          3.058295     1.334047    -0.433045
H          2.146353     1.140968    -0.250352
H          3.046948     2.024410    -1.133360
O         -1.361860     1.474861    -2.856186
H         -1.202291     1.027410    -1.978617
H         -0.871594     2.343189    -2.876970

units ang
no_reorient
no_com
symmetry c1
}

set {
basis        aug-cc-pVTZ
scf_type     df
}

energy("mp2")
--------------------------------------------------------------------------

    Molecular point group: c1

    Geometry (in Angstrom), charge = -1, multiplicity = 1:

       Center              X                  Y                   Z               Mass
    ------------   -----------------  -----------------  -----------------  -----------------
         BR           0.000000000000     0.000000000000     0.000000000000    78.918337600000
         O           -2.781824000000     0.954914000000     1.546349000000    15.994914619570
         H           -2.079798000000     0.629798000000     0.983421000000     1.007825032230
         H           -2.569173000000     1.860935000000     1.801428000000     1.007825032230
         O            0.417110000000     1.164103000000     2.920605000000    15.994914619570
         H           -0.279275000000     0.933093000000     3.573898000000     1.007825032230
         H            0.289615000000     0.628287000000     2.138627000000     1.007825032230
         O           -1.161290000000     3.255151000000    -0.272712000000    15.994914619570
         H           -0.718022000000     2.402898000000    -0.139574000000     1.007825032230
         H           -0.489651000000     3.796101000000    -0.744628000000     1.007825032230
         O            3.058295000000     1.334047000000    -0.433045000000    15.994914619570
         H            2.146353000000     1.140968000000    -0.250352000000     1.007825032230
         H            3.046948000000     2.024410000000    -1.133360000000     1.007825032230
         O           -1.361860000000     1.474861000000    -2.856186000000    15.994914619570
         H           -1.202291000000     1.027410000000    -1.978617000000     1.007825032230
         H           -0.871594000000     2.343189000000    -2.876970000000     1.007825032230

  Charge       = -1
  Multiplicity = 1
  Basis Set: AUG-CC-PVTZ
    Blend: AUG-CC-PVTZ
  Basis Set: (AUG-CC-PVTZ AUX)
    Blend: AUG-CC-PVTZ-JKFIT

    Orbital Energies [Eh]
    ---------------------

    Doubly Occupied:

       1A   -489.802335     2A    -64.942982     3A    -58.297479
       4A    -58.297452     5A    -58.297420     6A    -20.441278
       7A    -20.428956     8A    -20.426866     9A    -20.412308
      10A    -20.411725    11A     -9.615465    12A     -7.223066
      13A     -7.222973    14A     -7.222873    15A     -2.964695
      16A     -2.964681    17A     -2.964497    18A     -2.964370
      19A     -2.964347    20A     -1.219335    21A     -1.211349
      22A     -1.199184    23A     -1.194148    24A     -1.189028
      25A     -0.786049    26A     -0.582945    27A     -0.579424
      28A     -0.573724    29A     -0.570752    30A     -0.563136
      31A     -0.461735    32A     -0.447471    33A     -0.433866
      34A     -0.433197    35A     -0.427252    36A     -0.384568
      37A     -0.373065    38A     -0.363413    39A     -0.361150
      40A     -0.354273    41A     -0.232021    42A     -0.230644
      43A     -0.228915

  @DF-RHF Final Energy: -2952.87264267593491

   => Energetics <=

    Nuclear Repulsion Energy =            455.1010085112202432
    One-Electron Energy =               -5031.4144704846203240
    Two-Electron Energy =                1623.4408192974653957
    Total Energy =                      -2952.8726426759349124
 Dipole X            :         33.5680899          -32.8121462            0.7559437
 Dipole Y            :       -156.0548427          155.4331807           -0.6216620
 Dipole Z            :        -16.6845312           16.2780271           -0.4065040
 Magnitude           :                                                    1.0597924
  Basis Set: (AUG-CC-PVTZ AUX)
    Blend: AUG-CC-PVTZ-RI
	 Reference Energy          =   -2952.8726426759349124 [Eh]
	 Singles Energy            =      -0.0000000000000000 [Eh]
	 Same-Spin Energy          =      -0.4477753594210469 [Eh]
	 Opposite-Spin Energy      =      -1.3077501418391382 [Eh]
	 Correlation Energy        =      -1.7555255012601851 [Eh]
	 Total Energy              =   -2954.6281681771952208 [Eh]

	 ================> DF-SCS-MP2 Energies <==================
	-----------------------------------------------------------
	 SCS Same-Spin Scale       =       0.3333333333333333 [-]
	 SCS Opposite-Spin Scale   =       1.2000000000000000 [-]
	 SCS Same-Spin Energy      =      -0.1492584531403490 [Eh]
	 SCS Opposite-Spin Energy  =      -1.5693001702069658 [Eh]
	 SCS Correlation Energy    =      -1.7185586233473147 [Eh]
	 SCS Total Energy          =   -2954.5912012992821474 [Eh]
	-----------------------------------------------------------

*** Psi4 exiting successfully. Buy a developer a beer!
