                               Psi4 1.8.2 release

  ==> Input File <==

--------------------------------------------------------------------------
MEMORY 60 GB

molecule dimer {
0 1
Gh(Br)     0.000000     0.000000     0.000000
O         -0.532809     1.922738    -2.739100
H         -0.280531     1.490316    -1.875736
H         -0.953311     1.232509    -3.332771
Gh(O)     -1.825040     1.989986     2.364796
Gh(H)     -1.476176     1.902850     3.256188
Gh(H)     -1.117718     1.930523     1.713505
Gh(O)      1.897897    -0.527032    -2.560802
Gh(H)      2.254682     0.294757    -2.824082
Gh(H)      1.284234    -0.440483    -1.819197
Gh(O)     -3.381797     0.146011    -0.729659
Gh(H)     -3.647086     0.178508     0.207781
Gh(H)     -2.420093     0.129388    -0.713625
Gh(O)     -1.303184    -2.414765    -1.874233
Gh(H)     -0.735005    -2.478283    -2.608129
Gh(H)     -1.009543    -1.639149    -1.422000

units ang
no_reorient
no_com
symmetry c1
}

set {
basis        aug-cc-pVTZ
scf_type     df
}

energy("mp2")
--------------------------------------------------------------------------

    Molecular point group: c1

    Geometry (in Angstrom), charge = 0, multiplicity = 1:

       Center              X                  Y                   Z               Mass
    ------------   -----------------  -----------------  -----------------  -----------------
      Gh(BR)          0.000000000000     0.000000000000     0.000000000000    78.918337600000
         O           -0.532809000000     1.922738000000    -2.739100000000    15.994914619570
         H           -0.280531000000     1.490316000000    -1.875736000000     1.007825032230
         H           -0.953311000000     1.232509000000    -3.332771000000     1.007825032230
      Gh(O)          -1.825040000000     1.989986000000     2.364796000000    15.994914619570
      Gh(H)          -1.476176000000     1.902850000000     3.256188000000     1.007825032230
      Gh(H)          -1.117718000000     1.930523000000     1.713505000000     1.007825032230
      Gh(O)           1.897897000000    -0.527032000000    -2.560802000000    15.994914619570
      Gh(H)           2.254682000000     0.294757000000    -2.824082000000     1.007825032230
      Gh(H)           1.284234000000    -0.440483000000    -1.819197000000     1.007825032230
      Gh(O)          -3.381797000000     0.146011000000    -0.729659000000    15.994914619570
      Gh(H)          -3.647086000000     0.178508000000     0.207781000000     1.007825032230
      Gh(H)          -2.420093000000     0.129388000000    -0.713625000000     1.007825032230
      Gh(O)          -1.303184000000    -2.414765000000    -1.874233000000    15.994914619570
      Gh(H)          -0.735005000000    -2.478283000000    -2.608129000000     1.007825032230
      Gh(H)          -1.009543000000    -1.639149000000    -1.422000000000     1.007825032230

  Charge       = 0
  Multiplicity = 1
  Basis Set: AUG-CC-PVTZ
    Blend: AUG-CC-PVTZ
  Basis Set: (AUG-CC-PVTZ AUX)
    Blend: AUG-CC-PVTZ-JKFIT

    Orbital Energies [Eh]
    ---------------------

    Doubly Occupied:

       1A    -20.572501     2A     -1.329677     3A     -0.701904
       4A     -0.568730     5A     -0.505614

  @DF-RHF Final Energy:   -76.05402595032847

   => Energetics <=

    Nuclear Repulsion Energy =              8.7888440268662009
    One-Electron Energy =                -122.3288866851594889
    Two-Electron Energy =                  37.4860167079648363
    Total Energy =                        -76.0540259503284517
 Dipole X            :         10.2766326          -10.3865282           -0.1098955
 Dipole Y            :        -34.9488134           34.2129794           -0.7358340
 Dipole Z            :         51.4296877          -51.2518424            0.1778453
 Magnitude           :                                                    0.7649560
  Basis Set: (AUG-CC-PVTZ AUX)
    Blend: AUG-CC-PVTZ-RI
	 Reference Energy          =     -76.0540259503284659 [Eh]
	 Singles Energy            =      -0.0000000000000000 [Eh]
	 Same-Spin Energy          =      -0.0690805911389705 [Eh]
	 Opposite-Spin Energy      =      -0.2180582843566521 [Eh]
	 Correlation Energy        =      -0.2871388754956226 [Eh]
	 Total Energy              =     -76.3411648258240945 [Eh]

	 ================> DF-SCS-MP2 Energies <==================
	-----------------------------------------------------------
	 SCS Same-Spin Scale       =       0.3333333333333333 [-]
	 SCS Opposite-Spin Scale   =       1.2000000000000000 [-]
	 SCS Same-Spin Energy      =      -0.0230268637129902 [Eh]
	 SCS Opposite-Spin Energy  =      -0.2616699412279825 [Eh]
	 SCS Correlation Energy    =      -0.2846968049409727 [Eh]
	 SCS Total Energy          =     -76.3387227552694441 [Eh]
	-----------------------------------------------------------

*** Psi4 exiting successfully. Buy a developer a beer!
