                               Psi4 1.8.2 release

  ==> Input File <==

--------------------------------------------------------------------------
MEMORY 60 GB

molecule dimer {
-1 1
Br         0.000000     0.000000     0.000000
Gh(O)      1.943362     2.492757     1.142910
Gh(H)      2.853656     2.365277     0.915650
Gh(H)      1.414503     1.767381     0.739501
Gh(O)      2.828599    -1.316138    -0.243498
Gh(H)      1.991575    -1.027562     0.115147
Gh(H)      2.923425    -0.868601    -1.085454
Gh(O)     -1.187233    -3.096829    -0.068719
Gh(H)     -1.015863    -2.191810     0.131593
Gh(H)     -0.434378    -3.240086    -0.566381
Gh(O)     -1.630611     1.500183     2.569503
Gh(H)     -1.143522     1.019930     1.833037
Gh(H)     -1.089551     2.321043     2.728925
Gh(O)      0.795952     1.602190    -3.133141
Gh(H)      1.463263     0.954500    -2.826078
Gh(H)     -0.107599     1.347855    -3.018310

units ang
no_reorient
no_com
symmetry c1
}

set {
basis        aug-cc-pVTZ
scf_type     df
}

energy("mp2")
--------------------------------------------------------------------------

    Molecular point group: c1

    Geometry (in Angstrom), charge = -1, multiplicity = 1:

       Center              X                  Y                   Z               Mass
    ------------   -----------------  -----------------  -----------------  -----------------
         BR           0.000000000000     0.000000000000     0.000000000000    78.918337600000
      Gh(O)           1.943362000000     2.492757000000     1.142910000000    15.994914619570
      Gh(H)           2.853656000000     2.365277000000     0.915650000000     1.007825032230
      Gh(H)           1.414503000000     1.767381000000     0.739501000000     1.007825032230
      Gh(O)           2.828599000000    -1.316138000000    -0.243498000000    15.994914619570
      Gh(H)           1.991575000000    -1.027562000000     0.115147000000     1.007825032230
      Gh(H)           2.923425000000    -0.868601000000    -1.085454000000     1.007825032230
      Gh(O)          -1.187233000000    -3.096829000000    -0.068719000000    15.994914619570
      Gh(H)          -1.015863000000    -2.191810000000     0.131593000000     1.007825032230
      Gh(H)          -0.434378000000    -3.240086000000    -0.566381000000     1.007825032230
      Gh(O)          -1.630611000000     1.500183000000     2.569503000000    15.994914619570
      Gh(H)          -1.143522000000     1.019930000000     1.833037000000     1.007825032230
      Gh(H)          -1.089551000000     2.321043000000     2.728925000000     1.007825032230
      Gh(O)           0.795952000000     1.602190000000    -3.133141000000    15.994914619570
      Gh(H)           1.463263000000     0.954500000000    -2.826078000000     1.007825032230
      Gh(H)          -0.107599000000     1.347855000000    -3.018310000000     1.007825032230

  Charge       = -1
  Multiplicity = 1
  Basis Set: AUG-CC-PVTZ
    Blend: AUG-CC-PVTZ
  Basis Set: (AUG-CC-PVTZ AUX)
    Blend: AUG-CC-PVTZ-JKFIT

    Orbital Energies [Eh]
    ---------------------

    Doubly Occupied:

       1A   -489.722311     2A    -64.861865     3A    -58.216404
       4A    -58.216402     5A    -58.216401     6A     -9.533313
       7A     -7.140650     8A     -7.140630     9A     -7.140626
      10A     -2.882354    11A     -2.882350    12A     -2.882343
      13A     -2.882342    14A     -2.882307    15A     -0.685989
      16A     -0.139337    17A     -0.139331    18A     -0.139328

  @DF-RHF Final Energy: -2572.53373124642440

   => Energetics <=

    Nuclear Repulsion Energy =              0.0000000000000000
    One-Electron Energy =               -3593.6588956733085070
    Two-Electron Energy =                1021.1251644268841119
    Total Energy =                      -2572.5337312464243951
 Dipole X            :         -0.0000038            0.0000000           -0.0000038
 Dipole Y            :         -0.0000037            0.0000000           -0.0000037
 Dipole Z            :          0.0001943            0.0000000            0.0001943
 Magnitude           :                                                    0.0001944
  Basis Set: (AUG-CC-PVTZ AUX)
    Blend: AUG-CC-PVTZ-RI
	 Reference Energy          =   -2572.5337312464243951 [Eh]
	 Singles Energy            =      -0.0000000000000000 [Eh]
	 Same-Spin Energy          =      -0.0915263159989417 [Eh]
	 Opposite-Spin Energy      =      -0.2131089331694770 [Eh]
	 Correlation Energy        =      -0.3046352491684187 [Eh]
	 Total Energy              =   -2572.8383664955927088 [Eh]

	 ================> DF-SCS-MP2 Energies <==================
	-----------------------------------------------------------
	 SCS Same-Spin Scale       =       0.3333333333333333 [-]
	 SCS Opposite-Spin Scale   =       1.2000000000000000 [-]
	 SCS Same-Spin Energy      =      -0.0305087719996472 [Eh]
	 SCS Opposite-Spin Energy  =      -0.2557307198033724 [Eh]
	 SCS Correlation Energy    =      -0.2862394918030196 [Eh]
	 SCS Total Energy          =   -2572.8199707382273118 [Eh]
	-----------------------------------------------------------

*** Psi4 exiting successfully. Buy a developer a beer!
