                               Psi4 1.9 release

  ==> Input File <==

--------------------------------------------------------------------------
MEMORY 60 GB

molecule dimer {
-1 1
Br     0.000000     0.000000     0.000000
--
0 1
O     -0.999022    -2.679634    -1.724013
H     -0.678718    -2.037465    -1.171070
H     -1.864558    -2.807700    -1.354503
O      2.580843    -1.796834    -1.300260
H      2.444330    -2.737774    -1.082597
H      1.984606    -1.292710    -0.800320
O      0.716653    -2.040909     2.401316
H      0.606530    -1.564525     1.571865
H      0.320539    -1.488156     3.042768

units ang
no_reorient
no_com
symmetry c1
}

set {
basis        aug-cc-pVTZ
scf_type     df
}

energy("mp2", bsse_type="cp")
--------------------------------------------------------------------------

                               Psi4 1.9 release
    Molecular point group: c1
  Charge       = 0
  Multiplicity = 1
  Basis Set: AUG-CC-PVTZ
    Blend: AUG-CC-PVTZ
  Basis Set: (AUG-CC-PVTZ AUX)
    Blend: AUG-CC-PVTZ-JKFIT
  @DF-RHF Final Energy:  -228.17495973944415
    Total Energy =                       -228.1749597394441480
 Dipole X            :        -41.2424161           40.0631784           -1.1792376
 Dipole Y            :        121.7622458         -121.0697375            0.6925082
 Dipole Z            :         10.0072025           -9.0281911            0.9790114
 Magnitude           :                                                    1.6818539
  Basis Set: (AUG-CC-PVTZ AUX)
    Blend: AUG-CC-PVTZ-RI
	 Reference Energy          =    -228.1749597394441480 [Eh]
	 Singles Energy            =      -0.0000000000000000 [Eh]
	 Same-Spin Energy          =      -0.2049195573756509 [Eh]
	 Opposite-Spin Energy      =      -0.6459269104986383 [Eh]
	 Correlation Energy        =      -0.8508464678742892 [Eh]
	 Total Energy              =    -229.0258062073184249 [Eh]
	 SCS Total Energy          =    -229.0183785511677286 [Eh]
                               Psi4 1.9 release
    Molecular point group: c1
  Multiplicity = 1
  Basis Set: AUG-CC-PVTZ
    Blend: AUG-CC-PVTZ
  Basis Set: (AUG-CC-PVTZ AUX)
    Blend: AUG-CC-PVTZ-JKFIT
  @DF-RHF Final Energy: -2572.53370969621074
    Total Energy =                      -2572.5337096962107353
  Basis Set: (AUG-CC-PVTZ AUX)
	 Singles Energy            =      -0.0000000000000000 [Eh]
	 Same-Spin Energy          =      -0.0899011368813895 [Eh]
	 Opposite-Spin Energy      =      -0.2091504726680105 [Eh]
	 Correlation Energy        =      -0.2990516095494000 [Eh]
	 Total Energy              =   -2572.8327613057599592 [Eh]
	 SCS Total Energy          =   -2572.8146573090393758 [Eh]
                               Psi4 1.9 release
    Molecular point group: c1

    Geometry (in Bohr), charge = -1, multiplicity = 1:

       Center              X                  Y                   Z               Mass
    ------------   -----------------  -----------------  -----------------  -----------------
         BR           0.000000000000     0.000000000000     0.000000000000    78.918337600000
         O           -1.887877973307    -5.063774376465    -3.257912406729    15.994914619570
         H           -1.282591136418    -3.850250840206    -2.213001573740     1.007825032230
         H           -3.523503965031    -5.305784042448    -2.559639706111     1.007825032230
         O            4.877086442805    -3.395524152911    -2.457135291888    15.994914619570
         H            4.619114260240    -5.173643053399    -2.045811834242     1.007825032230
         H            3.750361806940    -2.442867859641    -1.512385612726     1.007825032230
         O            1.354277896988    -3.856759056982     4.537829580680    15.994914619570
         H            1.146175586874    -2.956523766432     2.970394356193     1.007825032230
         H            0.605730922528    -2.812207271957     5.749998183307     1.007825032230

  Charge       = -1
  Multiplicity = 1
  Basis Set: AUG-CC-PVTZ
    Blend: AUG-CC-PVTZ
  Basis Set: (AUG-CC-PVTZ AUX)
    Blend: AUG-CC-PVTZ-JKFIT

    Orbital Energies [Eh]
    ---------------------

    Doubly Occupied:

       1A   -489.770915     2A    -64.911354     3A    -58.265853
       4A    -58.265835     5A    -58.265809     6A    -20.407029
       7A    -20.403606     8A    -20.401340     9A     -9.583800
      10A     -7.191443    11A     -7.191218    12A     -7.191140
      13A     -2.933072    14A     -2.933016    15A     -2.932896
      16A     -2.932651    17A     -2.932638    18A     -1.218844
      19A     -1.198865    20A     -1.195942    21A     -0.748885
      22A     -0.572770    23A     -0.570860    24A     -0.564713
      25A     -0.449075    26A     -0.433705    27A     -0.424349
      28A     -0.361560    29A     -0.353239    30A     -0.351857
      31A     -0.200060    32A     -0.195827    33A     -0.194909

  @DF-RHF Final Energy: -2800.74767031994725

   => Energetics <=

    Nuclear Repulsion Energy =            239.6837746300271590
    One-Electron Energy =               -4389.7647344472770783
    Two-Electron Energy =                1349.3332894973027578
    Total Energy =                      -2800.7476703199472468
 Dipole X            :        -41.4524880           40.0631784           -1.3893096
 Dipole Y            :        122.5689054         -121.0697375            1.4991679
 Dipole Z            :          9.8720904           -9.0281911            0.8438992
 Magnitude           :                                                    2.2113008
  Basis Set: (AUG-CC-PVTZ AUX)
    Blend: AUG-CC-PVTZ-RI
	 Reference Energy          =   -2800.7476703199472468 [Eh]
	 Singles Energy            =      -0.0000000000000000 [Eh]
	 Same-Spin Energy          =      -0.3013292299394122 [Eh]
	 Opposite-Spin Energy      =      -0.8600482116306902 [Eh]
	 Correlation Energy        =      -1.1613774415701026 [Eh]
	 Total Energy              =   -2801.9090477615172858 [Eh]

	 ================> DF-SCS-MP2 Energies <==================
	-----------------------------------------------------------
	 SCS Same-Spin Scale       =       0.3333333333333333 [-]
	 SCS Opposite-Spin Scale   =       1.2000000000000000 [-]
	 SCS Same-Spin Energy      =      -0.1004430766464707 [Eh]
	 SCS Opposite-Spin Energy  =      -1.0320578539568281 [Eh]
	 SCS Correlation Energy    =      -1.1325009306032989 [Eh]
	 SCS Total Energy          =   -2801.8801712505505748 [Eh]
	-----------------------------------------------------------

*** Psi4 exiting successfully. Buy a developer a beer!
