                               Psi4 1.8.2 release

  ==> Input File <==

--------------------------------------------------------------------------
MEMORY 60 GB

molecule dimer {
0 1
Gh(Br)     0.000000     0.000000     0.000000
Gh(O)      1.877253    -0.925629    -2.503878
Gh(H)      1.568959    -0.369866    -1.756608
Gh(H)      1.769866    -1.829815    -2.152507
Gh(O)      0.170065     2.901916    -1.500734
Gh(H)     -0.216467     2.541833    -2.272789
Gh(H)      0.178509     2.130837    -0.924963
Gh(O)      0.283163    -1.282719     3.211734
Gh(H)      0.144151    -0.907789     2.345728
Gh(H)     -0.490220    -1.053040     3.745017
Gh(O)      3.272579    -0.761567     0.566827
Gh(H)      2.477722    -0.224904     0.466952
Gh(H)      2.968580    -1.638178     0.298848
Gh(O)      0.955461     2.446042     2.162195
Gh(H)      0.814632     1.637742     1.624264
Gh(H)      0.875880     2.278959     3.123204
O         -1.258581    -1.316716    -3.035756
H         -2.002288    -0.752139    -3.089390
H         -0.819194    -1.250416    -2.138434

units ang
no_reorient
no_com
symmetry c1
}

set {
basis        aug-cc-pVTZ
scf_type     df
}

energy("mp2")
--------------------------------------------------------------------------

    Molecular point group: c1

    Geometry (in Angstrom), charge = 0, multiplicity = 1:

       Center              X                  Y                   Z               Mass
    ------------   -----------------  -----------------  -----------------  -----------------
      Gh(BR)          0.000000000000     0.000000000000     0.000000000000    78.918337600000
      Gh(O)           1.877253000000    -0.925629000000    -2.503878000000    15.994914619570
      Gh(H)           1.568959000000    -0.369866000000    -1.756608000000     1.007825032230
      Gh(H)           1.769866000000    -1.829815000000    -2.152507000000     1.007825032230
      Gh(O)           0.170065000000     2.901916000000    -1.500734000000    15.994914619570
      Gh(H)          -0.216467000000     2.541833000000    -2.272789000000     1.007825032230
      Gh(H)           0.178509000000     2.130837000000    -0.924963000000     1.007825032230
      Gh(O)           0.283163000000    -1.282719000000     3.211734000000    15.994914619570
      Gh(H)           0.144151000000    -0.907789000000     2.345728000000     1.007825032230
      Gh(H)          -0.490220000000    -1.053040000000     3.745017000000     1.007825032230
      Gh(O)           3.272579000000    -0.761567000000     0.566827000000    15.994914619570
      Gh(H)           2.477722000000    -0.224904000000     0.466952000000     1.007825032230
      Gh(H)           2.968580000000    -1.638178000000     0.298848000000     1.007825032230
      Gh(O)           0.955461000000     2.446042000000     2.162195000000    15.994914619570
      Gh(H)           0.814632000000     1.637742000000     1.624264000000     1.007825032230
      Gh(H)           0.875880000000     2.278959000000     3.123204000000     1.007825032230
         O           -1.258581000000    -1.316716000000    -3.035756000000    15.994914619570
         H           -2.002288000000    -0.752139000000    -3.089390000000     1.007825032230
         H           -0.819194000000    -1.250416000000    -2.138434000000     1.007825032230

  Charge       = 0
  Multiplicity = 1
  Basis Set: AUG-CC-PVTZ
    Blend: AUG-CC-PVTZ
  Basis Set: (AUG-CC-PVTZ AUX)
    Blend: AUG-CC-PVTZ-JKFIT

    Orbital Energies [Eh]
    ---------------------

    Doubly Occupied:

       1A    -20.565709     2A     -1.344404     3A     -0.724006
       4A     -0.569718     5A     -0.507479

  @DF-RHF Final Energy:   -76.05684174774214

   => Energetics <=

    Nuclear Repulsion Energy =              9.0854952423552238
    One-Electron Energy =                -122.8620372912488676
    Two-Electron Energy =                  37.7197003011514980
    Total Energy =                        -76.0568417477421406
 Dipole X            :         24.1468135          -24.3588154           -0.2120020
 Dipole Y            :         24.1185632          -23.6901415            0.4284217
 Dipole Z            :         56.3374755          -55.7731350            0.5643406
 Magnitude           :                                                    0.7395744
  Basis Set: (AUG-CC-PVTZ AUX)
    Blend: AUG-CC-PVTZ-RI
	 Reference Energy          =     -76.0568417477421406 [Eh]
	 Singles Energy            =      -0.0000000000000000 [Eh]
	 Same-Spin Energy          =      -0.0684885188731279 [Eh]
	 Opposite-Spin Energy      =      -0.2160299161734009 [Eh]
	 Correlation Energy        =      -0.2845184350465288 [Eh]
	 Total Energy              =     -76.3413601827886623 [Eh]

	 ================> DF-SCS-MP2 Energies <==================
	-----------------------------------------------------------
	 SCS Same-Spin Scale       =       0.3333333333333333 [-]
	 SCS Opposite-Spin Scale   =       1.2000000000000000 [-]
	 SCS Same-Spin Energy      =      -0.0228295062910426 [Eh]
	 SCS Opposite-Spin Energy  =      -0.2592358994080811 [Eh]
	 SCS Correlation Energy    =      -0.2820654056991237 [Eh]
	 SCS Total Energy          =     -76.3389071534412693 [Eh]
	-----------------------------------------------------------

*** Psi4 exiting successfully. Buy a developer a beer!
