                               Psi4 1.9 release

  ==> Input File <==

--------------------------------------------------------------------------
MEMORY 60 GB

molecule dimer {
-1 1
Br     0.000000     0.000000     0.000000
--
0 1
O      2.375991     1.403050     1.759821
H      1.608804     1.035722     1.188101
H      3.062120     1.668836     1.129100
O      2.883715    -1.624042    -0.731104
H      3.463684    -1.974029    -0.037743
H      2.061357    -1.406903    -0.251967

units ang
no_reorient
no_com
symmetry c1
}

set {
basis        aug-cc-pVTZ
scf_type     df
}

energy("mp2", bsse_type="cp")
--------------------------------------------------------------------------

                               Psi4 1.9 release
    Molecular point group: c1
  Charge       = 0
  Multiplicity = 1
  Basis Set: AUG-CC-PVTZ
    Blend: AUG-CC-PVTZ
  Basis Set: (AUG-CC-PVTZ AUX)
    Blend: AUG-CC-PVTZ-JKFIT
  @DF-RHF Final Energy:  -152.11326005424374
    Total Energy =                       -152.1132600542437388
 Dipole X            :        -98.9604187           98.7828122           -0.1776065
 Dipole Y            :          4.4701510           -4.6190765           -0.1489254
 Dipole Z            :        -19.3952201           19.3833498           -0.0118702
 Magnitude           :                                                    0.2320857
  Basis Set: (AUG-CC-PVTZ AUX)
    Blend: AUG-CC-PVTZ-RI
	 Reference Energy          =    -152.1132600542437388 [Eh]
	 Singles Energy            =      -0.0000000000000000 [Eh]
	 Same-Spin Energy          =      -0.1378772104977068 [Eh]
	 Opposite-Spin Energy      =      -0.4343398432494581 [Eh]
	 Correlation Energy        =      -0.5722170537471649 [Eh]
	 Total Energy              =    -152.6854771079908915 [Eh]
	 SCS Total Energy          =    -152.6804269363090043 [Eh]
                               Psi4 1.9 release
    Molecular point group: c1
  Multiplicity = 1
  Basis Set: AUG-CC-PVTZ
    Blend: AUG-CC-PVTZ
  Basis Set: (AUG-CC-PVTZ AUX)
    Blend: AUG-CC-PVTZ-JKFIT
  @DF-RHF Final Energy: -2572.53369684569498
    Total Energy =                      -2572.5336968456945215
  Basis Set: (AUG-CC-PVTZ AUX)
	 Singles Energy            =      -0.0000000000000000 [Eh]
	 Same-Spin Energy          =      -0.0889584022854695 [Eh]
	 Opposite-Spin Energy      =      -0.2068093621126284 [Eh]
	 Correlation Energy        =      -0.2957677643980979 [Eh]
	 Total Energy              =   -2572.8294646100930549 [Eh]
	 SCS Total Energy          =   -2572.8115208809917931 [Eh]
                               Psi4 1.9 release
    Molecular point group: c1

    Geometry (in Bohr), charge = -1, multiplicity = 1:

       Center              X                  Y                   Z               Mass
    ------------   -----------------  -----------------  -----------------  -----------------
         BR           0.000000000000     0.000000000000     0.000000000000    78.918337600000
         O            4.489972266553     2.651380240324     3.325579719829    15.994914619570
         H            3.040198949541     1.957230922111     2.245185499383     1.007825032230
         H            5.786568163287     3.153642988305     2.133689768254     1.007825032230
         O            5.449431573875    -3.068994596241    -1.381586329227    15.994914619570
         H            6.545414145130    -3.730374173711    -0.071323933153     1.007825032230
         H            3.895400176795    -2.658661355085    -0.476148622653     1.007825032230

  Charge       = -1
  Multiplicity = 1
  Basis Set: AUG-CC-PVTZ
    Blend: AUG-CC-PVTZ
  Basis Set: (AUG-CC-PVTZ AUX)
    Blend: AUG-CC-PVTZ-JKFIT

    Orbital Energies [Eh]
    ---------------------

    Doubly Occupied:

       1A   -489.755171     2A    -64.895480     3A    -58.249973
       4A    -58.249970     5A    -58.249935     6A    -20.412422
       7A    -20.395000     8A     -9.567890     9A     -7.175490
      10A     -7.175351    11A     -7.175129    12A     -2.917189
      13A     -2.917161    14A     -2.916878    15A     -2.916755
      16A     -2.916697    17A     -1.191096    18A     -1.162174
      19A     -0.729726    20A     -0.552112    21A     -0.527761
      22A     -0.431833    23A     -0.409469    24A     -0.355255
      25A     -0.335076    26A     -0.181627    27A     -0.179379
      28A     -0.175646

  @DF-RHF Final Energy: -2724.67295132605796

   => Energetics <=

    Nuclear Repulsion Energy =            145.9648612087140975
    One-Electron Energy =               -4097.0403306764874287
    Two-Electron Energy =                1226.4025181417155181
    Total Energy =                      -2724.6729513260579552
 Dipole X            :        -99.7149229           98.7828122           -0.9321107
 Dipole Y            :          4.4327323           -4.6190765           -0.1863441
 Dipole Z            :        -19.6491122           19.3833498           -0.2657624
 Magnitude           :                                                    0.9870077
  Basis Set: (AUG-CC-PVTZ AUX)
    Blend: AUG-CC-PVTZ-RI
	 Reference Energy          =   -2724.6729513260579552 [Eh]
	 Singles Energy            =      -0.0000000000000000 [Eh]
	 Same-Spin Energy          =      -0.2320248771986184 [Eh]
	 Opposite-Spin Energy      =      -0.6451525579962585 [Eh]
	 Correlation Energy        =      -0.8771774351948769 [Eh]
	 Total Energy              =   -2725.5501287612528358 [Eh]

	 ================> DF-SCS-MP2 Energies <==================
	-----------------------------------------------------------
	 SCS Same-Spin Scale       =       0.3333333333333333 [-]
	 SCS Opposite-Spin Scale   =       1.2000000000000000 [-]
	 SCS Same-Spin Energy      =      -0.0773416257328728 [Eh]
	 SCS Opposite-Spin Energy  =      -0.7741830695955102 [Eh]
	 SCS Correlation Energy    =      -0.8515246953283830 [Eh]
	 SCS Total Energy          =   -2725.5244760213863628 [Eh]
	-----------------------------------------------------------

*** Psi4 exiting successfully. Buy a developer a beer!
