                               Psi4 1.8.2 release

  ==> Input File <==

--------------------------------------------------------------------------
MEMORY 60 GB

molecule dimer {
0 1
Gh(Br)     0.000000     0.000000     0.000000
Gh(O)     -2.021869    -2.179823     1.217412
Gh(H)     -2.921871    -1.867399     1.198558
Gh(H)     -1.513540    -1.451927     0.815047
O         -2.961999     0.929139    -1.272353
H         -2.728774     1.887839    -1.108211
H         -2.207349     0.482925    -0.838278
Gh(O)     -2.117015     1.588878     2.246208
Gh(H)     -1.423790     1.453822     1.551659
Gh(H)     -1.773078     0.949786     2.896329
Gh(O)     -0.330378    -1.158355    -3.243256
Gh(H)     -0.343064    -0.673188    -2.378621
Gh(H)     -0.323750    -2.040751    -2.892653

units ang
no_reorient
no_com
symmetry c1
}

set {
basis        aug-cc-pVTZ
scf_type     df
}

energy("mp2")
--------------------------------------------------------------------------

    Molecular point group: c1

    Geometry (in Angstrom), charge = 0, multiplicity = 1:

       Center              X                  Y                   Z               Mass
    ------------   -----------------  -----------------  -----------------  -----------------
      Gh(BR)          0.000000000000     0.000000000000     0.000000000000    78.918337600000
      Gh(O)          -2.021869000000    -2.179823000000     1.217412000000    15.994914619570
      Gh(H)          -2.921871000000    -1.867399000000     1.198558000000     1.007825032230
      Gh(H)          -1.513540000000    -1.451927000000     0.815047000000     1.007825032230
         O           -2.961999000000     0.929139000000    -1.272353000000    15.994914619570
         H           -2.728774000000     1.887839000000    -1.108211000000     1.007825032230
         H           -2.207349000000     0.482925000000    -0.838278000000     1.007825032230
      Gh(O)          -2.117015000000     1.588878000000     2.246208000000    15.994914619570
      Gh(H)          -1.423790000000     1.453822000000     1.551659000000     1.007825032230
      Gh(H)          -1.773078000000     0.949786000000     2.896329000000     1.007825032230
      Gh(O)          -0.330378000000    -1.158355000000    -3.243256000000    15.994914619570
      Gh(H)          -0.343064000000    -0.673188000000    -2.378621000000     1.007825032230
      Gh(H)          -0.323750000000    -2.040751000000    -2.892653000000     1.007825032230

  Charge       = 0
  Multiplicity = 1
  Basis Set: AUG-CC-PVTZ
    Blend: AUG-CC-PVTZ
  Basis Set: (AUG-CC-PVTZ AUX)
    Blend: AUG-CC-PVTZ-JKFIT

    Orbital Energies [Eh]
    ---------------------

    Doubly Occupied:

       1A    -20.574345     2A     -1.340362     3A     -0.693364
       4A     -0.586165     5A     -0.508993

  @DF-RHF Final Energy:   -76.05610871600288

   => Energetics <=

    Nuclear Repulsion Energy =              8.9074389566293330
    One-Electron Energy =                -122.5206332361273383
    Two-Electron Energy =                  37.5570855634951144
    Total Energy =                        -76.0561087160028819
 Dipole X            :         54.7457244          -54.1068557            0.6388687
 Dipole Y            :        -18.2001746           18.5266406            0.3264660
 Dipole Z            :         23.3004240          -22.9135208            0.3869032
 Magnitude           :                                                    0.8151241
  Basis Set: (AUG-CC-PVTZ AUX)
    Blend: AUG-CC-PVTZ-RI
	 Reference Energy          =     -76.0561087160028819 [Eh]
	 Singles Energy            =      -0.0000000000000000 [Eh]
	 Same-Spin Energy          =      -0.0690537927909332 [Eh]
	 Opposite-Spin Energy      =      -0.2179043075209751 [Eh]
	 Correlation Energy        =      -0.2869581003119083 [Eh]
	 Total Energy              =     -76.3430668163147885 [Eh]

	 ================> DF-SCS-MP2 Energies <==================
	-----------------------------------------------------------
	 SCS Same-Spin Scale       =       0.3333333333333333 [-]
	 SCS Opposite-Spin Scale   =       1.2000000000000000 [-]
	 SCS Same-Spin Energy      =      -0.0230179309303111 [Eh]
	 SCS Opposite-Spin Energy  =      -0.2614851690251701 [Eh]
	 SCS Correlation Energy    =      -0.2845030999554812 [Eh]
	 SCS Total Energy          =     -76.3406118159583684 [Eh]
	-----------------------------------------------------------

*** Psi4 exiting successfully. Buy a developer a beer!
