                               Psi4 1.8.2 release

  ==> Input File <==

--------------------------------------------------------------------------
MEMORY 60 GB

molecule dimer {
-1 1
Br         0.000000     0.000000     0.000000
O          0.782416    -0.121722     3.451600
H          0.936067    -0.092172     2.515779
H          1.418512     0.518629     3.809706
O          1.279830    -3.033150    -0.407853
H          0.932121    -2.105125    -0.536490
H          0.609558    -3.519657    -0.884449
O          1.071152     0.493703    -3.362487
H          0.775103     0.547864    -2.430413
H          1.344659     1.412062    -3.545358
O          3.119203     1.381929    -0.509772
H          2.304215     1.804893    -0.549245
H          2.978825     0.669854     0.131836
O         -2.613665     2.025634    -0.945890
H         -1.791721     1.633691    -0.632163
H         -3.281718     1.715110    -0.285048
O          1.070902     3.348536    -0.645640
H          1.491858     4.117923    -0.937238
H          0.258142     3.643921    -0.280463

units ang
no_reorient
no_com
symmetry c1
}

set {
basis        aug-cc-pVTZ
scf_type     df
}

energy("mp2")
--------------------------------------------------------------------------

    Molecular point group: c1

    Geometry (in Angstrom), charge = -1, multiplicity = 1:

       Center              X                  Y                   Z               Mass
    ------------   -----------------  -----------------  -----------------  -----------------
         BR           0.000000000000     0.000000000000     0.000000000000    78.918337600000
         O            0.782416000000    -0.121722000000     3.451600000000    15.994914619570
         H            0.936067000000    -0.092172000000     2.515779000000     1.007825032230
         H            1.418512000000     0.518629000000     3.809706000000     1.007825032230
         O            1.279830000000    -3.033150000000    -0.407853000000    15.994914619570
         H            0.932121000000    -2.105125000000    -0.536490000000     1.007825032230
         H            0.609558000000    -3.519657000000    -0.884449000000     1.007825032230
         O            1.071152000000     0.493703000000    -3.362487000000    15.994914619570
         H            0.775103000000     0.547864000000    -2.430413000000     1.007825032230
         H            1.344659000000     1.412062000000    -3.545358000000     1.007825032230
         O            3.119203000000     1.381929000000    -0.509772000000    15.994914619570
         H            2.304215000000     1.804893000000    -0.549245000000     1.007825032230
         H            2.978825000000     0.669854000000     0.131836000000     1.007825032230
         O           -2.613665000000     2.025634000000    -0.945890000000    15.994914619570
         H           -1.791721000000     1.633691000000    -0.632163000000     1.007825032230
         H           -3.281718000000     1.715110000000    -0.285048000000     1.007825032230
         O            1.070902000000     3.348536000000    -0.645640000000    15.994914619570
         H            1.491858000000     4.117923000000    -0.937238000000     1.007825032230
         H            0.258142000000     3.643921000000    -0.280463000000     1.007825032230

  Charge       = -1
  Multiplicity = 1
  Basis Set: AUG-CC-PVTZ
    Blend: AUG-CC-PVTZ
  Basis Set: (AUG-CC-PVTZ AUX)
    Blend: AUG-CC-PVTZ-JKFIT

    Orbital Energies [Eh]
    ---------------------

    Doubly Occupied:

       1A   -489.785531     2A    -64.925970     3A    -58.280479
       4A    -58.280476     5A    -58.280426     6A    -20.469476
       7A    -20.433719     8A    -20.433127     9A    -20.417985
      10A    -20.411848    11A    -20.405023    12A     -9.598276
      13A     -7.205952    14A     -7.205819    15A     -7.205536
      16A     -2.947639    17A     -2.947629    18A     -2.947260
      19A     -2.947136    20A     -2.947050    21A     -1.276889
      22A     -1.219817    23A     -1.209674    24A     -1.205348
      25A     -1.193531    26A     -1.191019    27A     -0.764174
      28A     -0.641056    29A     -0.581978    30A     -0.577780
      31A     -0.571239    32A     -0.551926    33A     -0.542540
      34A     -0.496804    35A     -0.455471    36A     -0.452776
      37A     -0.439104    38A     -0.438396    39A     -0.436230
      40A     -0.420755    41A     -0.378258    42A     -0.375340
      43A     -0.362660    44A     -0.354377    45A     -0.352922
      46A     -0.215358    47A     -0.213076    48A     -0.208804

  @DF-RHF Final Energy: -3028.93754638378323

   => Energetics <=

    Nuclear Repulsion Energy =            550.4655359330279225
    One-Electron Energy =               -5328.3988351881052949
    Two-Electron Energy =                1748.9957528712941439
    Total Energy =                      -3028.9375463837832285
 Dipole X            :        -87.5302441           86.2741707           -1.2560734
 Dipole Y            :        -80.0344951           81.4593526            1.4248575
 Dipole Z            :         44.3922190          -43.4332423            0.9589768
 Magnitude           :                                                    2.1278101
  Basis Set: (AUG-CC-PVTZ AUX)
    Blend: AUG-CC-PVTZ-RI
	 Reference Energy          =   -3028.9375463837832285 [Eh]
	 Singles Energy            =      -0.0000000000000000 [Eh]
	 Same-Spin Energy          =      -0.5136446380959963 [Eh]
	 Opposite-Spin Energy      =      -1.5177647015194038 [Eh]
	 Correlation Energy        =      -2.0314093396153998 [Eh]
	 Total Energy              =   -3030.9689557233987216 [Eh]

	 ================> DF-SCS-MP2 Energies <==================
	-----------------------------------------------------------
	 SCS Same-Spin Scale       =       0.3333333333333333 [-]
	 SCS Opposite-Spin Scale   =       1.2000000000000000 [-]
	 SCS Same-Spin Energy      =      -0.1712148793653321 [Eh]
	 SCS Opposite-Spin Energy  =      -1.8213176418232844 [Eh]
	 SCS Correlation Energy    =      -1.9925325211886165 [Eh]
	 SCS Total Energy          =   -3030.9300789049716514 [Eh]
	-----------------------------------------------------------

*** Psi4 exiting successfully. Buy a developer a beer!
