                               Psi4 1.8.2 release

  ==> Input File <==

--------------------------------------------------------------------------
MEMORY 60 GB

molecule dimer {
-1 1
Br         0.000000     0.000000     0.000000
O          0.735787    -1.007456    -3.069810
H          0.644497    -0.834554    -2.122033
H          0.006923    -0.466036    -3.438270
O         -1.018718    -3.113955    -0.290668
H         -0.721929    -2.218123    -0.066292
H         -1.485195    -3.443926     0.484674
O          0.210699    -0.756624     3.212958
H         -0.457413    -0.410318     3.755700
H         -0.069501    -0.614574     2.311108
O         -2.962023    -1.017792    -1.096322
H         -3.354668    -1.449903    -0.277945
H         -2.162494    -0.558488    -0.874702
O          2.892807    -1.828066    -0.264556
H          2.681291    -1.012210     0.216583
H          2.150125    -2.389570    -0.124064

units ang
no_reorient
no_com
symmetry c1
}

set {
basis        aug-cc-pVTZ
scf_type     df
}

energy("mp2")
--------------------------------------------------------------------------

    Molecular point group: c1

    Geometry (in Angstrom), charge = -1, multiplicity = 1:

       Center              X                  Y                   Z               Mass
    ------------   -----------------  -----------------  -----------------  -----------------
         BR           0.000000000000     0.000000000000     0.000000000000    78.918337600000
         O            0.735787000000    -1.007456000000    -3.069810000000    15.994914619570
         H            0.644497000000    -0.834554000000    -2.122033000000     1.007825032230
         H            0.006923000000    -0.466036000000    -3.438270000000     1.007825032230
         O           -1.018718000000    -3.113955000000    -0.290668000000    15.994914619570
         H           -0.721929000000    -2.218123000000    -0.066292000000     1.007825032230
         H           -1.485195000000    -3.443926000000     0.484674000000     1.007825032230
         O            0.210699000000    -0.756624000000     3.212958000000    15.994914619570
         H           -0.457413000000    -0.410318000000     3.755700000000     1.007825032230
         H           -0.069501000000    -0.614574000000     2.311108000000     1.007825032230
         O           -2.962023000000    -1.017792000000    -1.096322000000    15.994914619570
         H           -3.354668000000    -1.449903000000    -0.277945000000     1.007825032230
         H           -2.162494000000    -0.558488000000    -0.874702000000     1.007825032230
         O            2.892807000000    -1.828066000000    -0.264556000000    15.994914619570
         H            2.681291000000    -1.012210000000     0.216583000000     1.007825032230
         H            2.150125000000    -2.389570000000    -0.124064000000     1.007825032230

  Charge       = -1
  Multiplicity = 1
  Basis Set: AUG-CC-PVTZ
    Blend: AUG-CC-PVTZ
  Basis Set: (AUG-CC-PVTZ AUX)
    Blend: AUG-CC-PVTZ-JKFIT

    Orbital Energies [Eh]
    ---------------------

    Doubly Occupied:

       1A   -489.800483     2A    -64.941165     3A    -58.295654
       4A    -58.295623     5A    -58.295617     6A    -20.428430
       7A    -20.417780     8A    -20.417073     9A    -20.416974
      10A    -20.405974    11A     -9.613694    12A     -7.221321
      13A     -7.221216    14A     -7.221084    15A     -2.962914
      16A     -2.962885    17A     -2.962764    18A     -2.962600
      19A     -2.962586    20A     -1.229051    21A     -1.206481
      22A     -1.203795    23A     -1.192980    24A     -1.185611
      25A     -0.784135    26A     -0.600029    27A     -0.576678
      28A     -0.571907    29A     -0.569300    30A     -0.543281
      31A     -0.455665    32A     -0.441374    33A     -0.439818
      34A     -0.431248    35A     -0.426394    36A     -0.380138
      37A     -0.378056    38A     -0.364366    39A     -0.348795
      40A     -0.345965    41A     -0.230441    42A     -0.229033
      43A     -0.226539

  @DF-RHF Final Energy: -2952.87235440279619

   => Energetics <=

    Nuclear Repulsion Energy =            455.9374686485431880
    One-Electron Energy =               -5033.2858050147369795
    Two-Electron Energy =                1624.4759819633973166
    Total Energy =                      -2952.8723544027961907
 Dipole X            :          6.0184571           -7.3698336           -1.3513765
 Dipole Y            :        144.1163312         -142.0863266            2.0300045
 Dipole Z            :         24.9189122          -23.0592413            1.8596708
 Magnitude           :                                                    3.0668408
  Basis Set: (AUG-CC-PVTZ AUX)
    Blend: AUG-CC-PVTZ-RI
	 Reference Energy          =   -2952.8723544027961907 [Eh]
	 Singles Energy            =      -0.0000000000000000 [Eh]
	 Same-Spin Energy          =      -0.4463395540508028 [Eh]
	 Opposite-Spin Energy      =      -1.3042575565495393 [Eh]
	 Correlation Energy        =      -1.7505971106003422 [Eh]
	 Total Energy              =   -2954.6229515133964014 [Eh]

	 ================> DF-SCS-MP2 Energies <==================
	-----------------------------------------------------------
	 SCS Same-Spin Scale       =       0.3333333333333333 [-]
	 SCS Opposite-Spin Scale   =       1.2000000000000000 [-]
	 SCS Same-Spin Energy      =      -0.1487798513502676 [Eh]
	 SCS Opposite-Spin Energy  =      -1.5651090678594473 [Eh]
	 SCS Correlation Energy    =      -1.7138889192097149 [Eh]
	 SCS Total Energy          =   -2954.5862433220058847 [Eh]
	-----------------------------------------------------------

*** Psi4 exiting successfully. Buy a developer a beer!
