                               Psi4 1.8.2 release

  ==> Input File <==

--------------------------------------------------------------------------
MEMORY 60 GB

molecule dimer {
0 1
Gh(Br)     0.000000     0.000000     0.000000
Gh(O)      0.827585    -0.673228     3.345565
Gh(H)      1.608849    -1.256143     3.487856
Gh(H)      0.809009    -0.281301     2.433452
O         -0.064610     2.592766     1.902330
H         -0.769192     3.247236     1.817366
H         -0.304759     1.892666     1.320770
Gh(O)      2.158632    -2.165332    -1.610499
Gh(H)      1.952538    -1.333555    -1.224842
Gh(H)      3.138913    -2.262052    -1.619831
Gh(O)      3.156044     1.337992    -0.732851
Gh(H)      3.306466     0.506097    -0.217667
Gh(H)      2.230436     1.255178    -0.739111

units ang
no_reorient
no_com
symmetry c1
}

set {
basis        aug-cc-pVTZ
scf_type     df
}

energy("mp2")
--------------------------------------------------------------------------

    Molecular point group: c1

    Geometry (in Angstrom), charge = 0, multiplicity = 1:

       Center              X                  Y                   Z               Mass
    ------------   -----------------  -----------------  -----------------  -----------------
      Gh(BR)          0.000000000000     0.000000000000     0.000000000000    78.918337600000
      Gh(O)           0.827585000000    -0.673228000000     3.345565000000    15.994914619570
      Gh(H)           1.608849000000    -1.256143000000     3.487856000000     1.007825032230
      Gh(H)           0.809009000000    -0.281301000000     2.433452000000     1.007825032230
         O           -0.064610000000     2.592766000000     1.902330000000    15.994914619570
         H           -0.769192000000     3.247236000000     1.817366000000     1.007825032230
         H           -0.304759000000     1.892666000000     1.320770000000     1.007825032230
      Gh(O)           2.158632000000    -2.165332000000    -1.610499000000    15.994914619570
      Gh(H)           1.952538000000    -1.333555000000    -1.224842000000     1.007825032230
      Gh(H)           3.138913000000    -2.262052000000    -1.619831000000     1.007825032230
      Gh(O)           3.156044000000     1.337992000000    -0.732851000000    15.994914619570
      Gh(H)           3.306466000000     0.506097000000    -0.217667000000     1.007825032230
      Gh(H)           2.230436000000     1.255178000000    -0.739111000000     1.007825032230

  Charge       = 0
  Multiplicity = 1
  Basis Set: AUG-CC-PVTZ
    Blend: AUG-CC-PVTZ
  Basis Set: (AUG-CC-PVTZ AUX)
    Blend: AUG-CC-PVTZ-JKFIT

    Orbital Energies [Eh]
    ---------------------

    Doubly Occupied:

       1A    -20.566106     2A     -1.355187     3A     -0.721521
       4A     -0.584092     5A     -0.510468

  @DF-RHF Final Energy:   -76.06061670946642

   => Energetics <=

    Nuclear Repulsion Energy =              9.2317871506231537
    One-Electron Energy =                -123.1100572514240525
    Two-Electron Energy =                  37.8176533913345025
    Total Energy =                        -76.0606167094664016
 Dipole X            :          2.3754102           -3.0062349           -0.6308247
 Dipole Y            :        -48.9442903           48.9099483           -0.0343420
 Dipole Z            :        -35.1364934           34.6892792           -0.4472142
 Magnitude           :                                                    0.7740283
  Basis Set: (AUG-CC-PVTZ AUX)
    Blend: AUG-CC-PVTZ-RI
	 Reference Energy          =     -76.0606167094664158 [Eh]
	 Singles Energy            =      -0.0000000000000000 [Eh]
	 Same-Spin Energy          =      -0.0682987702908562 [Eh]
	 Opposite-Spin Energy      =      -0.2154409281168290 [Eh]
	 Correlation Energy        =      -0.2837396984076852 [Eh]
	 Total Energy              =     -76.3443564078741019 [Eh]

	 ================> DF-SCS-MP2 Energies <==================
	-----------------------------------------------------------
	 SCS Same-Spin Scale       =       0.3333333333333333 [-]
	 SCS Opposite-Spin Scale   =       1.2000000000000000 [-]
	 SCS Same-Spin Energy      =      -0.0227662567636187 [Eh]
	 SCS Opposite-Spin Energy  =      -0.2585291137401948 [Eh]
	 SCS Correlation Energy    =      -0.2812953705038135 [Eh]
	 SCS Total Energy          =     -76.3419120799702284 [Eh]
	-----------------------------------------------------------

*** Psi4 exiting successfully. Buy a developer a beer!
