                               Psi4 1.8.2 release

  ==> Input File <==

--------------------------------------------------------------------------
MEMORY 60 GB

molecule dimer {
-1 1
Br         0.000000     0.000000     0.000000
Gh(O)      2.375991     1.403050     1.759821
Gh(H)      1.608804     1.035722     1.188101
Gh(H)      3.062120     1.668836     1.129100
Gh(O)      2.883715    -1.624042    -0.731104
Gh(H)      3.463684    -1.974029    -0.037743
Gh(H)      2.061357    -1.406903    -0.251967

units ang
no_reorient
no_com
symmetry c1
}

set {
basis        aug-cc-pVTZ
scf_type     df
}

energy("mp2")
--------------------------------------------------------------------------

    Molecular point group: c1

    Geometry (in Angstrom), charge = -1, multiplicity = 1:

       Center              X                  Y                   Z               Mass
    ------------   -----------------  -----------------  -----------------  -----------------
         BR           0.000000000000     0.000000000000     0.000000000000    78.918337600000
      Gh(O)           2.375991000000     1.403050000000     1.759821000000    15.994914619570
      Gh(H)           1.608804000000     1.035722000000     1.188101000000     1.007825032230
      Gh(H)           3.062120000000     1.668836000000     1.129100000000     1.007825032230
      Gh(O)           2.883715000000    -1.624042000000    -0.731104000000    15.994914619570
      Gh(H)           3.463684000000    -1.974029000000    -0.037743000000     1.007825032230
      Gh(H)           2.061357000000    -1.406903000000    -0.251967000000     1.007825032230

  Charge       = -1
  Multiplicity = 1
  Basis Set: AUG-CC-PVTZ
    Blend: AUG-CC-PVTZ
  Basis Set: (AUG-CC-PVTZ AUX)
    Blend: AUG-CC-PVTZ-JKFIT

    Orbital Energies [Eh]
    ---------------------

    Doubly Occupied:

       1A   -489.721270     2A    -64.861096     3A    -58.215603
       4A    -58.215601     5A    -58.215600     6A     -9.533055
       7A     -7.140409     8A     -7.140390     9A     -7.140384
      10A     -2.882090    11A     -2.882088    12A     -2.882085
      13A     -2.882077    14A     -2.882058    15A     -0.685998
      16A     -0.139341    17A     -0.139339    18A     -0.139337

  @DF-RHF Final Energy: -2572.53369684612517

   => Energetics <=

    Nuclear Repulsion Energy =              0.0000000000000000
    One-Electron Energy =               -3593.6717477281586071
    Two-Electron Energy =                1021.1380508820334398
    Total Energy =                      -2572.5336968461251672
 Dipole X            :          0.0001380            0.0000000            0.0001380
 Dipole Y            :         -0.0000595            0.0000000           -0.0000595
 Dipole Z            :          0.0001007            0.0000000            0.0001007
 Magnitude           :                                                    0.0001809
  Basis Set: (AUG-CC-PVTZ AUX)
    Blend: AUG-CC-PVTZ-RI
	 Reference Energy          =   -2572.5336968461251672 [Eh]
	 Singles Energy            =      -0.0000000000000000 [Eh]
	 Same-Spin Energy          =      -0.0889584022852519 [Eh]
	 Opposite-Spin Energy      =      -0.2068093621119852 [Eh]
	 Correlation Energy        =      -0.2957677643972371 [Eh]
	 Total Energy              =   -2572.8294646105223364 [Eh]

	 ================> DF-SCS-MP2 Energies <==================
	-----------------------------------------------------------
	 SCS Same-Spin Scale       =       0.3333333333333333 [-]
	 SCS Opposite-Spin Scale   =       1.2000000000000000 [-]
	 SCS Same-Spin Energy      =      -0.0296528007617506 [Eh]
	 SCS Opposite-Spin Energy  =      -0.2481712345343822 [Eh]
	 SCS Correlation Energy    =      -0.2778240352961328 [Eh]
	 SCS Total Energy          =   -2572.8115208814210746 [Eh]
	-----------------------------------------------------------

*** Psi4 exiting successfully. Buy a developer a beer!
