                               Psi4 1.8.2 release

  ==> Input File <==

--------------------------------------------------------------------------
MEMORY 60 GB

molecule dimer {
0 1
Gh(Br)     0.000000     0.000000     0.000000
O         -1.911432     2.433986     1.070897
H         -1.555279     3.089706     1.640643
H         -1.224968     1.718194     1.109894
Gh(O)     -1.401665     2.429875    -1.811153
Gh(H)     -1.959056     2.676358    -1.041095
Gh(H)     -0.686385     1.866479    -1.500724
Gh(O)     -1.794280    -2.241072     2.073482
Gh(H)     -1.722283    -2.617890     2.966158
Gh(H)     -1.034366    -1.621705     2.007902
Gh(O)      2.505713    -0.505921     1.723979
Gh(H)      1.700403    -0.507406     1.113190
Gh(H)      2.107247    -0.320223     2.595222
Gh(O)      2.946339    -0.264625    -1.581763
Gh(H)      3.334716     0.559035    -1.244785
Gh(H)      2.261634    -0.356773    -0.924585

units ang
no_reorient
no_com
symmetry c1
}

set {
basis        aug-cc-pVTZ
scf_type     df
}

energy("mp2")
--------------------------------------------------------------------------

    Molecular point group: c1

    Geometry (in Angstrom), charge = 0, multiplicity = 1:

       Center              X                  Y                   Z               Mass
    ------------   -----------------  -----------------  -----------------  -----------------
      Gh(BR)          0.000000000000     0.000000000000     0.000000000000    78.918337600000
         O           -1.911432000000     2.433986000000     1.070897000000    15.994914619570
         H           -1.555279000000     3.089706000000     1.640643000000     1.007825032230
         H           -1.224968000000     1.718194000000     1.109894000000     1.007825032230
      Gh(O)          -1.401665000000     2.429875000000    -1.811153000000    15.994914619570
      Gh(H)          -1.959056000000     2.676358000000    -1.041095000000     1.007825032230
      Gh(H)          -0.686385000000     1.866479000000    -1.500724000000     1.007825032230
      Gh(O)          -1.794280000000    -2.241072000000     2.073482000000    15.994914619570
      Gh(H)          -1.722283000000    -2.617890000000     2.966158000000     1.007825032230
      Gh(H)          -1.034366000000    -1.621705000000     2.007902000000     1.007825032230
      Gh(O)           2.505713000000    -0.505921000000     1.723979000000    15.994914619570
      Gh(H)           1.700403000000    -0.507406000000     1.113190000000     1.007825032230
      Gh(H)           2.107247000000    -0.320223000000     2.595222000000     1.007825032230
      Gh(O)           2.946339000000    -0.264625000000    -1.581763000000    15.994914619570
      Gh(H)           3.334716000000     0.559035000000    -1.244785000000     1.007825032230
      Gh(H)           2.261634000000    -0.356773000000    -0.924585000000     1.007825032230

  Charge       = 0
  Multiplicity = 1
  Basis Set: AUG-CC-PVTZ
    Blend: AUG-CC-PVTZ
  Basis Set: (AUG-CC-PVTZ AUX)
    Blend: AUG-CC-PVTZ-JKFIT

    Orbital Energies [Eh]
    ---------------------

    Doubly Occupied:

       1A    -20.569219     2A     -1.351255     3A     -0.709623
       4A     -0.586772     5A     -0.510284

  @DF-RHF Final Energy:   -76.05845467718008

   => Energetics <=

    Nuclear Repulsion Energy =              9.1255637136438370
    One-Electron Energy =                -122.9137284826192200
    Two-Electron Energy =                  37.7297100917953045
    Total Energy =                        -76.0584546771800660
 Dipole X            :         34.8343453          -34.1505693            0.6837760
 Dipole Y            :        -45.9131316           45.8821497           -0.0309819
 Dipole Z            :        -20.9830809           21.3873779            0.4042971
 Magnitude           :                                                    0.7949627
  Basis Set: (AUG-CC-PVTZ AUX)
    Blend: AUG-CC-PVTZ-RI
	 Reference Energy          =     -76.0584546771800802 [Eh]
	 Singles Energy            =      -0.0000000000000000 [Eh]
	 Same-Spin Energy          =      -0.0686005931000870 [Eh]
	 Opposite-Spin Energy      =      -0.2165011925200460 [Eh]
	 Correlation Energy        =      -0.2851017856201330 [Eh]
	 Total Energy              =     -76.3435564628002084 [Eh]

	 ================> DF-SCS-MP2 Energies <==================
	-----------------------------------------------------------
	 SCS Same-Spin Scale       =       0.3333333333333333 [-]
	 SCS Opposite-Spin Scale   =       1.2000000000000000 [-]
	 SCS Same-Spin Energy      =      -0.0228668643666957 [Eh]
	 SCS Opposite-Spin Energy  =      -0.2598014310240552 [Eh]
	 SCS Correlation Energy    =      -0.2826682953907509 [Eh]
	 SCS Total Energy          =     -76.3411229725708296 [Eh]
	-----------------------------------------------------------

*** Psi4 exiting successfully. Buy a developer a beer!
