                               Psi4 1.8.2 release

  ==> Input File <==

--------------------------------------------------------------------------
MEMORY 60 GB

molecule dimer {
0 1
Gh(Br)     0.000000     0.000000     0.000000
Gh(O)      3.099023     0.340281     1.397133
Gh(H)      2.306734     0.381405     0.878260
Gh(H)      3.844115     0.047231     0.936605
Gh(O)      1.127680     3.159671     0.522464
Gh(H)      1.378824     3.076014     1.435986
Gh(H)      0.893393     2.283071     0.250242
O          0.153067    -3.161383    -1.487612
H          0.216689    -2.247035    -1.168259
H          0.001661    -3.027025    -2.433230
Gh(O)     -2.154109     1.418877    -2.303659
Gh(H)     -2.330310     0.966645    -3.084746
Gh(H)     -1.379206     0.970868    -1.937812
Gh(O)     -0.699327     0.060744     3.039694
Gh(H)     -0.594770     0.380454     2.170591
Gh(H)      0.152358    -0.312270     3.329137
Gh(O)      0.885237     0.524743    -3.039093
Gh(H)      0.866842     0.462270    -2.115711
Gh(H)      0.908147     1.420376    -3.360499

units ang
no_reorient
no_com
symmetry c1
}

set {
basis        aug-cc-pVTZ
scf_type     df
}

energy("mp2")
--------------------------------------------------------------------------

    Molecular point group: c1

    Geometry (in Angstrom), charge = 0, multiplicity = 1:

       Center              X                  Y                   Z               Mass
    ------------   -----------------  -----------------  -----------------  -----------------
      Gh(BR)          0.000000000000     0.000000000000     0.000000000000    78.918337600000
      Gh(O)           3.099023000000     0.340281000000     1.397133000000    15.994914619570
      Gh(H)           2.306734000000     0.381405000000     0.878260000000     1.007825032230
      Gh(H)           3.844115000000     0.047231000000     0.936605000000     1.007825032230
      Gh(O)           1.127680000000     3.159671000000     0.522464000000    15.994914619570
      Gh(H)           1.378824000000     3.076014000000     1.435986000000     1.007825032230
      Gh(H)           0.893393000000     2.283071000000     0.250242000000     1.007825032230
         O            0.153067000000    -3.161383000000    -1.487612000000    15.994914619570
         H            0.216689000000    -2.247035000000    -1.168259000000     1.007825032230
         H            0.001661000000    -3.027025000000    -2.433230000000     1.007825032230
      Gh(O)          -2.154109000000     1.418877000000    -2.303659000000    15.994914619570
      Gh(H)          -2.330310000000     0.966645000000    -3.084746000000     1.007825032230
      Gh(H)          -1.379206000000     0.970868000000    -1.937812000000     1.007825032230
      Gh(O)          -0.699327000000     0.060744000000     3.039694000000    15.994914619570
      Gh(H)          -0.594770000000     0.380454000000     2.170591000000     1.007825032230
      Gh(H)           0.152358000000    -0.312270000000     3.329137000000     1.007825032230
      Gh(O)           0.885237000000     0.524743000000    -3.039093000000    15.994914619570
      Gh(H)           0.866842000000     0.462270000000    -2.115711000000     1.007825032230
      Gh(H)           0.908147000000     1.420376000000    -3.360499000000     1.007825032230

  Charge       = 0
  Multiplicity = 1
  Basis Set: AUG-CC-PVTZ
    Blend: AUG-CC-PVTZ
  Basis Set: (AUG-CC-PVTZ AUX)
    Blend: AUG-CC-PVTZ-JKFIT

    Orbital Energies [Eh]
    ---------------------

    Doubly Occupied:

       1A    -20.570486     2A     -1.349737     3A     -0.705853
       4A     -0.588383     5A     -0.510258

  @DF-RHF Final Energy:   -76.05928817082648

   => Energetics <=

    Nuclear Repulsion Energy =              9.0917569162929102
    One-Electron Energy =                -122.8526534419472966
    Two-Electron Energy =                  37.7016083548279184
    Total Energy =                        -76.0592881708264770
 Dipole X            :         -2.7841517            2.7266594           -0.0574923
 Dipole Y            :         58.4468077          -57.7597134            0.6870944
 Dipole Z            :         28.8844467          -29.2952619           -0.4108153
 Magnitude           :                                                    0.8026040
  Basis Set: (AUG-CC-PVTZ AUX)
    Blend: AUG-CC-PVTZ-RI
	 Reference Energy          =     -76.0592881708264770 [Eh]
	 Singles Energy            =      -0.0000000000000000 [Eh]
	 Same-Spin Energy          =      -0.0686512086728696 [Eh]
	 Opposite-Spin Energy      =      -0.2165540935122279 [Eh]
	 Correlation Energy        =      -0.2852053021850975 [Eh]
	 Total Energy              =     -76.3444934730115676 [Eh]

	 ================> DF-SCS-MP2 Energies <==================
	-----------------------------------------------------------
	 SCS Same-Spin Scale       =       0.3333333333333333 [-]
	 SCS Opposite-Spin Scale   =       1.2000000000000000 [-]
	 SCS Same-Spin Energy      =      -0.0228837362242899 [Eh]
	 SCS Opposite-Spin Energy  =      -0.2598649122146734 [Eh]
	 SCS Correlation Energy    =      -0.2827486484389633 [Eh]
	 SCS Total Energy          =     -76.3420368192654450 [Eh]
	-----------------------------------------------------------

*** Psi4 exiting successfully. Buy a developer a beer!
