                               Psi4 1.8.2 release

  ==> Input File <==

--------------------------------------------------------------------------
MEMORY 60 GB

molecule dimer {
0 1
Gh(Br)     0.000000     0.000000     0.000000
O          2.964962     1.491294    -0.232552
H          3.167346     2.329112     0.134912
H          2.039397     1.199057     0.005168
Gh(O)      2.467355    -1.133067     2.039740
Gh(H)      1.833343    -1.067852     1.347526
Gh(H)      2.278611    -1.962652     2.509428
Gh(O)      1.685230    -2.489969    -1.505692
Gh(H)      1.129809    -1.865417    -1.040823
Gh(H)      2.217802    -1.919562    -2.100617
Gh(O)     -1.693532    -0.769404     2.754182
Gh(H)     -2.198821    -0.054616     3.172365
Gh(H)     -1.091690    -0.339489     2.159721

units ang
no_reorient
no_com
symmetry c1
}

set {
basis        aug-cc-pVTZ
scf_type     df
}

energy("mp2")
--------------------------------------------------------------------------

    Molecular point group: c1

    Geometry (in Angstrom), charge = 0, multiplicity = 1:

       Center              X                  Y                   Z               Mass
    ------------   -----------------  -----------------  -----------------  -----------------
      Gh(BR)          0.000000000000     0.000000000000     0.000000000000    78.918337600000
         O            2.964962000000     1.491294000000    -0.232552000000    15.994914619570
         H            3.167346000000     2.329112000000     0.134912000000     1.007825032230
         H            2.039397000000     1.199057000000     0.005168000000     1.007825032230
      Gh(O)           2.467355000000    -1.133067000000     2.039740000000    15.994914619570
      Gh(H)           1.833343000000    -1.067852000000     1.347526000000     1.007825032230
      Gh(H)           2.278611000000    -1.962652000000     2.509428000000     1.007825032230
      Gh(O)           1.685230000000    -2.489969000000    -1.505692000000    15.994914619570
      Gh(H)           1.129809000000    -1.865417000000    -1.040823000000     1.007825032230
      Gh(H)           2.217802000000    -1.919562000000    -2.100617000000     1.007825032230
      Gh(O)          -1.693532000000    -0.769404000000     2.754182000000    15.994914619570
      Gh(H)          -2.198821000000    -0.054616000000     3.172365000000     1.007825032230
      Gh(H)          -1.091690000000    -0.339489000000     2.159721000000     1.007825032230

  Charge       = 0
  Multiplicity = 1
  Basis Set: AUG-CC-PVTZ
    Blend: AUG-CC-PVTZ
  Basis Set: (AUG-CC-PVTZ AUX)
    Blend: AUG-CC-PVTZ-JKFIT

    Orbital Energies [Eh]
    ---------------------

    Doubly Occupied:

       1A    -20.565535     2A     -1.344084     3A     -0.724936
       4A     -0.568895     5A     -0.507333

  @DF-RHF Final Energy:   -76.05691769099269

   => Energetics <=

    Nuclear Repulsion Energy =              9.0849196479697500
    One-Electron Energy =                -122.8621049480302787
    Two-Electron Energy =                  37.7202676090678324
    Total Energy =                        -76.0569176909926910
 Dipole X            :        -55.1464599           54.6630475           -0.4834124
 Dipole Y            :        -28.8373935           29.2123710            0.3749775
 Dipole Z            :          3.6606935           -3.2509639            0.4097296
 Magnitude           :                                                    0.7363246
  Basis Set: (AUG-CC-PVTZ AUX)
    Blend: AUG-CC-PVTZ-RI
	 Reference Energy          =     -76.0569176909926910 [Eh]
	 Singles Energy            =      -0.0000000000000000 [Eh]
	 Same-Spin Energy          =      -0.0684811606387585 [Eh]
	 Opposite-Spin Energy      =      -0.2159372631313372 [Eh]
	 Correlation Energy        =      -0.2844184237700956 [Eh]
	 Total Energy              =     -76.3413361147627825 [Eh]

	 ================> DF-SCS-MP2 Energies <==================
	-----------------------------------------------------------
	 SCS Same-Spin Scale       =       0.3333333333333333 [-]
	 SCS Opposite-Spin Scale   =       1.2000000000000000 [-]
	 SCS Same-Spin Energy      =      -0.0228270535462528 [Eh]
	 SCS Opposite-Spin Energy  =      -0.2591247157576046 [Eh]
	 SCS Correlation Energy    =      -0.2819517693038574 [Eh]
	 SCS Total Energy          =     -76.3388694602965501 [Eh]
	-----------------------------------------------------------

*** Psi4 exiting successfully. Buy a developer a beer!
