                               Psi4 1.8.2 release

  ==> Input File <==

--------------------------------------------------------------------------
MEMORY 60 GB

molecule dimer {
0 1
Gh(Br)     0.000000     0.000000     0.000000
Gh(O)      0.781449    -0.807907    -3.361660
Gh(H)      1.592848    -1.345644    -3.304069
Gh(H)      0.648406    -0.568569    -2.400584
Gh(O)      2.510193    -1.908503     0.397343
Gh(H)      1.800244    -1.321266     0.041421
Gh(H)      2.224768    -2.811754     0.197244
O          1.731416    -0.150931     2.710083
H          2.460238     0.314986     2.378625
H          1.139946    -0.218518     1.919575
Gh(O)      2.207844     2.294641     0.275850
Gh(H)      1.617671     1.545812     0.305669
Gh(H)      2.353701     2.388285    -0.692227

units ang
no_reorient
no_com
symmetry c1
}

set {
basis        aug-cc-pVTZ
scf_type     df
}

energy("mp2")
--------------------------------------------------------------------------

    Molecular point group: c1

    Geometry (in Angstrom), charge = 0, multiplicity = 1:

       Center              X                  Y                   Z               Mass
    ------------   -----------------  -----------------  -----------------  -----------------
      Gh(BR)          0.000000000000     0.000000000000     0.000000000000    78.918337600000
      Gh(O)           0.781449000000    -0.807907000000    -3.361660000000    15.994914619570
      Gh(H)           1.592848000000    -1.345644000000    -3.304069000000     1.007825032230
      Gh(H)           0.648406000000    -0.568569000000    -2.400584000000     1.007825032230
      Gh(O)           2.510193000000    -1.908503000000     0.397343000000    15.994914619570
      Gh(H)           1.800244000000    -1.321266000000     0.041421000000     1.007825032230
      Gh(H)           2.224768000000    -2.811754000000     0.197244000000     1.007825032230
         O            1.731416000000    -0.150931000000     2.710083000000    15.994914619570
         H            2.460238000000     0.314986000000     2.378625000000     1.007825032230
         H            1.139946000000    -0.218518000000     1.919575000000     1.007825032230
      Gh(O)           2.207844000000     2.294641000000     0.275850000000    15.994914619570
      Gh(H)           1.617671000000     1.545812000000     0.305669000000     1.007825032230
      Gh(H)           2.353701000000     2.388285000000    -0.692227000000     1.007825032230

  Charge       = 0
  Multiplicity = 1
  Basis Set: AUG-CC-PVTZ
    Blend: AUG-CC-PVTZ
  Basis Set: (AUG-CC-PVTZ AUX)
    Blend: AUG-CC-PVTZ-JKFIT

    Orbital Energies [Eh]
    ---------------------

    Doubly Occupied:

       1A    -20.567851     2A     -1.355498     3A     -0.714041
       4A     -0.588069     5A     -0.510899

  @DF-RHF Final Energy:   -76.05842043864217

   => Energetics <=

    Nuclear Repulsion Energy =              9.2015943262214606
    One-Electron Energy =                -123.0473118593591124
    Two-Electron Energy =                  37.7872970944954858
    Total Energy =                        -76.0584204386421590
 Dipole X            :        -32.8776798           32.9785782            0.1008984
 Dipole Y            :          2.3671926           -2.0994479            0.2677447
 Dipole Z            :        -49.8318421           49.0929380           -0.7389041
 Magnitude           :                                                    0.7923679
  Basis Set: (AUG-CC-PVTZ AUX)
    Blend: AUG-CC-PVTZ-RI
	 Reference Energy          =     -76.0584204386421732 [Eh]
	 Singles Energy            =      -0.0000000000000000 [Eh]
	 Same-Spin Energy          =      -0.0684389647127503 [Eh]
	 Opposite-Spin Energy      =      -0.2161851065954174 [Eh]
	 Correlation Energy        =      -0.2846240713081677 [Eh]
	 Total Energy              =     -76.3430445099503459 [Eh]

	 ================> DF-SCS-MP2 Energies <==================
	-----------------------------------------------------------
	 SCS Same-Spin Scale       =       0.3333333333333333 [-]
	 SCS Opposite-Spin Scale   =       1.2000000000000000 [-]
	 SCS Same-Spin Energy      =      -0.0228129882375834 [Eh]
	 SCS Opposite-Spin Energy  =      -0.2594221279145009 [Eh]
	 SCS Correlation Energy    =      -0.2822351161520844 [Eh]
	 SCS Total Energy          =     -76.3406555547942531 [Eh]
	-----------------------------------------------------------

*** Psi4 exiting successfully. Buy a developer a beer!
