                               Psi4 1.8.2 release

  ==> Input File <==

--------------------------------------------------------------------------
MEMORY 60 GB

molecule dimer {
0 1
Gh(Br)     0.000000     0.000000     0.000000
O          0.537883    -2.592701     1.926681
H         -0.386009    -2.598137     2.112065
H          0.722606    -1.933912     1.307501
Gh(O)      1.291657    -2.839776    -1.063081
Gh(H)      0.556916    -2.277466    -0.805116
Gh(H)      1.883573    -2.161705    -1.372666
Gh(O)     -1.874314    -0.408243     2.636827
Gh(H)     -1.328717    -0.039733     1.938784
Gh(H)     -2.727285    -0.453675     2.229542

units ang
no_reorient
no_com
symmetry c1
}

set {
basis        aug-cc-pVTZ
scf_type     df
}

energy("mp2")
--------------------------------------------------------------------------

    Molecular point group: c1

    Geometry (in Angstrom), charge = 0, multiplicity = 1:

       Center              X                  Y                   Z               Mass
    ------------   -----------------  -----------------  -----------------  -----------------
      Gh(BR)          0.000000000000     0.000000000000     0.000000000000    78.918337600000
         O            0.537883000000    -2.592701000000     1.926681000000    15.994914619570
         H           -0.386009000000    -2.598137000000     2.112065000000     1.007825032230
         H            0.722606000000    -1.933912000000     1.307501000000     1.007825032230
      Gh(O)           1.291657000000    -2.839776000000    -1.063081000000    15.994914619570
      Gh(H)           0.556916000000    -2.277466000000    -0.805116000000     1.007825032230
      Gh(H)           1.883573000000    -2.161705000000    -1.372666000000     1.007825032230
      Gh(O)          -1.874314000000    -0.408243000000     2.636827000000    15.994914619570
      Gh(H)          -1.328717000000    -0.039733000000     1.938784000000     1.007825032230
      Gh(H)          -2.727285000000    -0.453675000000     2.229542000000     1.007825032230

  Charge       = 0
  Multiplicity = 1
  Basis Set: AUG-CC-PVTZ
    Blend: AUG-CC-PVTZ
  Basis Set: (AUG-CC-PVTZ AUX)
    Blend: AUG-CC-PVTZ-JKFIT

    Orbital Energies [Eh]
    ---------------------

    Doubly Occupied:

       1A    -20.560488     2A     -1.363173     3A     -0.741297
       4A     -0.579922     5A     -0.511091

  @DF-RHF Final Energy:   -76.06069578228833

   => Energetics <=

    Nuclear Repulsion Energy =              9.4278525292745652
    One-Electron Energy =                -123.4651518769867238
    Two-Electron Energy =                  37.9766035654238294
    Total Energy =                        -76.0606957822883345
 Dipole X            :         -9.2726374            8.7676886           -0.5049488
 Dipole Y            :         48.2102161          -47.7602899            0.4499262
 Dipole Z            :        -35.8884736           35.5892386           -0.2992351
 Magnitude           :                                                    0.7395596
  Basis Set: (AUG-CC-PVTZ AUX)
    Blend: AUG-CC-PVTZ-RI
	 Reference Energy          =     -76.0606957822883345 [Eh]
	 Singles Energy            =      -0.0000000000000000 [Eh]
	 Same-Spin Energy          =      -0.0679065982081563 [Eh]
	 Opposite-Spin Energy      =      -0.2143972885997656 [Eh]
	 Correlation Energy        =      -0.2823038868079219 [Eh]
	 Total Energy              =     -76.3429996690962582 [Eh]

	 ================> DF-SCS-MP2 Energies <==================
	-----------------------------------------------------------
	 SCS Same-Spin Scale       =       0.3333333333333333 [-]
	 SCS Opposite-Spin Scale   =       1.2000000000000000 [-]
	 SCS Same-Spin Energy      =      -0.0226355327360521 [Eh]
	 SCS Opposite-Spin Energy  =      -0.2572767463197187 [Eh]
	 SCS Correlation Energy    =      -0.2799122790557708 [Eh]
	 SCS Total Energy          =     -76.3406080613440992 [Eh]
	-----------------------------------------------------------

*** Psi4 exiting successfully. Buy a developer a beer!
