                               Psi4 1.8.2 release

  ==> Input File <==

--------------------------------------------------------------------------
MEMORY 60 GB

molecule dimer {
0 1
Gh(Br)     0.000000     0.000000     0.000000
O         -2.276881    -1.899460     1.400580
H         -2.198589    -1.582245     2.312148
H         -1.483800    -1.556681     0.911434
Gh(O)      0.558217    -1.514625     3.077996
Gh(H)      0.481697    -2.382991     2.719831
Gh(H)      0.514443    -0.980773     2.257969
Gh(O)     -3.207653     0.544694    -0.640069
Gh(H)     -2.307200     0.537132    -0.484230
Gh(H)     -3.309605     1.334027    -1.206248
Gh(O)     -1.719668     1.404403     2.550898
Gh(H)     -0.978194     1.949422     2.833464
Gh(H)     -1.447545     0.991534     1.688828

units ang
no_reorient
no_com
symmetry c1
}

set {
basis        aug-cc-pVTZ
scf_type     df
}

energy("mp2")
--------------------------------------------------------------------------

    Molecular point group: c1

    Geometry (in Angstrom), charge = 0, multiplicity = 1:

       Center              X                  Y                   Z               Mass
    ------------   -----------------  -----------------  -----------------  -----------------
      Gh(BR)          0.000000000000     0.000000000000     0.000000000000    78.918337600000
         O           -2.276881000000    -1.899460000000     1.400580000000    15.994914619570
         H           -2.198589000000    -1.582245000000     2.312148000000     1.007825032230
         H           -1.483800000000    -1.556681000000     0.911434000000     1.007825032230
      Gh(O)           0.558217000000    -1.514625000000     3.077996000000    15.994914619570
      Gh(H)           0.481697000000    -2.382991000000     2.719831000000     1.007825032230
      Gh(H)           0.514443000000    -0.980773000000     2.257969000000     1.007825032230
      Gh(O)          -3.207653000000     0.544694000000    -0.640069000000    15.994914619570
      Gh(H)          -2.307200000000     0.537132000000    -0.484230000000     1.007825032230
      Gh(H)          -3.309605000000     1.334027000000    -1.206248000000     1.007825032230
      Gh(O)          -1.719668000000     1.404403000000     2.550898000000    15.994914619570
      Gh(H)          -0.978194000000     1.949422000000     2.833464000000     1.007825032230
      Gh(H)          -1.447545000000     0.991534000000     1.688828000000     1.007825032230

  Charge       = 0
  Multiplicity = 1
  Basis Set: AUG-CC-PVTZ
    Blend: AUG-CC-PVTZ
  Basis Set: (AUG-CC-PVTZ AUX)
    Blend: AUG-CC-PVTZ-JKFIT

    Orbital Energies [Eh]
    ---------------------

    Doubly Occupied:

       1A    -20.570132     2A     -1.340469     3A     -0.709037
       4A     -0.576261     5A     -0.507811

  @DF-RHF Final Energy:   -76.05783489524595

   => Energetics <=

    Nuclear Repulsion Energy =              8.9721578515372027
    One-Electron Energy =                -122.6525598812704061
    Two-Electron Energy =                  37.6225671344872623
    Total Energy =                        -76.0578348952459464
 Dipole X            :         41.9534428          -41.3801588            0.5732840
 Dipole Y            :         35.0825371          -34.6473840            0.4351532
 Dipole Z            :        -26.9833690           27.2653881            0.2820191
 Magnitude           :                                                    0.7730121
  Basis Set: (AUG-CC-PVTZ AUX)
    Blend: AUG-CC-PVTZ-RI
	 Reference Energy          =     -76.0578348952459464 [Eh]
	 Singles Energy            =      -0.0000000000000000 [Eh]
	 Same-Spin Energy          =      -0.0687765138244329 [Eh]
	 Opposite-Spin Energy      =      -0.2170864053843913 [Eh]
	 Correlation Energy        =      -0.2858629192088242 [Eh]
	 Total Energy              =     -76.3436978144547709 [Eh]

	 ================> DF-SCS-MP2 Energies <==================
	-----------------------------------------------------------
	 SCS Same-Spin Scale       =       0.3333333333333333 [-]
	 SCS Opposite-Spin Scale   =       1.2000000000000000 [-]
	 SCS Same-Spin Energy      =      -0.0229255046081443 [Eh]
	 SCS Opposite-Spin Energy  =      -0.2605036864612695 [Eh]
	 SCS Correlation Energy    =      -0.2834291910694138 [Eh]
	 SCS Total Energy          =     -76.3412640863153626 [Eh]
	-----------------------------------------------------------

*** Psi4 exiting successfully. Buy a developer a beer!
