                               Psi4 1.8.2 release

  ==> Input File <==

--------------------------------------------------------------------------
MEMORY 60 GB

molecule dimer {
-1 1
Br         0.000000     0.000000     0.000000
Gh(O)     -2.443613    -2.360774    -0.255856
Gh(H)     -1.986974    -1.574922    -0.584686
Gh(H)     -3.201224    -2.434475    -0.842092
Gh(O)      3.066514    -0.605083     1.353026
Gh(H)      2.141438    -0.713791     1.099239
Gh(H)      3.086047    -0.698339     2.294813
Gh(O)      0.367047    -3.332711     0.754569
Gh(H)      1.227098    -3.062496     0.463316
Gh(H)     -0.190689    -2.686798     0.393415
Gh(O)      0.333694    -0.332488    -3.479360
Gh(H)      0.357208    -0.153407    -2.541475
Gh(H)     -0.280528    -1.086508    -3.536513
Gh(O)     -0.545829     2.707927     1.712656
Gh(H)     -1.489040     2.571515     1.590886
Gh(H)     -0.104623     1.938941     1.344831

units ang
no_reorient
no_com
symmetry c1
}

set {
basis        aug-cc-pVTZ
scf_type     df
}

energy("mp2")
--------------------------------------------------------------------------

    Molecular point group: c1

    Geometry (in Angstrom), charge = -1, multiplicity = 1:

       Center              X                  Y                   Z               Mass
    ------------   -----------------  -----------------  -----------------  -----------------
         BR           0.000000000000     0.000000000000     0.000000000000    78.918337600000
      Gh(O)          -2.443613000000    -2.360774000000    -0.255856000000    15.994914619570
      Gh(H)          -1.986974000000    -1.574922000000    -0.584686000000     1.007825032230
      Gh(H)          -3.201224000000    -2.434475000000    -0.842092000000     1.007825032230
      Gh(O)           3.066514000000    -0.605083000000     1.353026000000    15.994914619570
      Gh(H)           2.141438000000    -0.713791000000     1.099239000000     1.007825032230
      Gh(H)           3.086047000000    -0.698339000000     2.294813000000     1.007825032230
      Gh(O)           0.367047000000    -3.332711000000     0.754569000000    15.994914619570
      Gh(H)           1.227098000000    -3.062496000000     0.463316000000     1.007825032230
      Gh(H)          -0.190689000000    -2.686798000000     0.393415000000     1.007825032230
      Gh(O)           0.333694000000    -0.332488000000    -3.479360000000    15.994914619570
      Gh(H)           0.357208000000    -0.153407000000    -2.541475000000     1.007825032230
      Gh(H)          -0.280528000000    -1.086508000000    -3.536513000000     1.007825032230
      Gh(O)          -0.545829000000     2.707927000000     1.712656000000    15.994914619570
      Gh(H)          -1.489040000000     2.571515000000     1.590886000000     1.007825032230
      Gh(H)          -0.104623000000     1.938941000000     1.344831000000     1.007825032230

  Charge       = -1
  Multiplicity = 1
  Basis Set: AUG-CC-PVTZ
    Blend: AUG-CC-PVTZ
  Basis Set: (AUG-CC-PVTZ AUX)
    Blend: AUG-CC-PVTZ-JKFIT

    Orbital Energies [Eh]
    ---------------------

    Doubly Occupied:

       1A   -489.722095     2A    -64.861712     3A    -58.216242
       4A    -58.216242     5A    -58.216241     6A     -9.533261
       7A     -7.140596     8A     -7.140587     9A     -7.140576
      10A     -2.882301    11A     -2.882293    12A     -2.882286
      13A     -2.882276    14A     -2.882270    15A     -0.685989
      16A     -0.139334    17A     -0.139332    18A     -0.139329

  @DF-RHF Final Energy: -2572.53372826007671

   => Energetics <=

    Nuclear Repulsion Energy =              0.0000000000000000
    One-Electron Energy =               -3593.6615274414430132
    Two-Electron Energy =                1021.1277991813662993
    Total Energy =                      -2572.5337282600767139
 Dipole X            :          0.0001579            0.0000000            0.0001579
 Dipole Y            :          0.0000113            0.0000000            0.0000113
 Dipole Z            :         -0.0000074            0.0000000           -0.0000074
 Magnitude           :                                                    0.0001585
  Basis Set: (AUG-CC-PVTZ AUX)
    Blend: AUG-CC-PVTZ-RI
	 Reference Energy          =   -2572.5337282600767139 [Eh]
	 Singles Energy            =      -0.0000000000000000 [Eh]
	 Same-Spin Energy          =      -0.0910122415804401 [Eh]
	 Opposite-Spin Energy      =      -0.2117818536480326 [Eh]
	 Correlation Energy        =      -0.3027940952284727 [Eh]
	 Total Energy              =   -2572.8365223553050782 [Eh]

	 ================> DF-SCS-MP2 Energies <==================
	-----------------------------------------------------------
	 SCS Same-Spin Scale       =       0.3333333333333333 [-]
	 SCS Opposite-Spin Scale   =       1.2000000000000000 [-]
	 SCS Same-Spin Energy      =      -0.0303374138601467 [Eh]
	 SCS Opposite-Spin Energy  =      -0.2541382243776391 [Eh]
	 SCS Correlation Energy    =      -0.2844756382377858 [Eh]
	 SCS Total Energy          =   -2572.8182038983145503 [Eh]
	-----------------------------------------------------------

*** Psi4 exiting successfully. Buy a developer a beer!
