                               Psi4 1.8.2 release

  ==> Input File <==

--------------------------------------------------------------------------
MEMORY 60 GB

molecule dimer {
-1 1
Br         0.000000     0.000000     0.000000
Gh(O)      2.468166    -1.725257    -1.468911
Gh(H)      2.008711    -1.796399    -2.336402
Gh(H)      1.933235    -1.232159    -0.838800
Gh(O)     -1.184606    -3.402731     0.278725
Gh(H)     -0.353106    -3.499588     0.783401
Gh(H)     -1.108456    -2.501841    -0.036643
Gh(O)     -1.124259    -1.651488    -2.915811
Gh(H)     -0.354710    -2.056374    -3.284914
Gh(H)     -0.779463    -1.098095    -2.188563
Gh(O)     -2.680953     1.703746    -1.441367
Gh(H)     -2.245764     1.022923    -0.880588
Gh(H)     -2.101163     1.772878    -2.243374

units ang
no_reorient
no_com
symmetry c1
}

set {
basis        aug-cc-pVTZ
scf_type     df
}

energy("mp2")
--------------------------------------------------------------------------

    Molecular point group: c1

    Geometry (in Angstrom), charge = -1, multiplicity = 1:

       Center              X                  Y                   Z               Mass
    ------------   -----------------  -----------------  -----------------  -----------------
         BR           0.000000000000     0.000000000000     0.000000000000    78.918337600000
      Gh(O)           2.468166000000    -1.725257000000    -1.468911000000    15.994914619570
      Gh(H)           2.008711000000    -1.796399000000    -2.336402000000     1.007825032230
      Gh(H)           1.933235000000    -1.232159000000    -0.838800000000     1.007825032230
      Gh(O)          -1.184606000000    -3.402731000000     0.278725000000    15.994914619570
      Gh(H)          -0.353106000000    -3.499588000000     0.783401000000     1.007825032230
      Gh(H)          -1.108456000000    -2.501841000000    -0.036643000000     1.007825032230
      Gh(O)          -1.124259000000    -1.651488000000    -2.915811000000    15.994914619570
      Gh(H)          -0.354710000000    -2.056374000000    -3.284914000000     1.007825032230
      Gh(H)          -0.779463000000    -1.098095000000    -2.188563000000     1.007825032230
      Gh(O)          -2.680953000000     1.703746000000    -1.441367000000    15.994914619570
      Gh(H)          -2.245764000000     1.022923000000    -0.880588000000     1.007825032230
      Gh(H)          -2.101163000000     1.772878000000    -2.243374000000     1.007825032230

  Charge       = -1
  Multiplicity = 1
  Basis Set: AUG-CC-PVTZ
    Blend: AUG-CC-PVTZ
  Basis Set: (AUG-CC-PVTZ AUX)
    Blend: AUG-CC-PVTZ-JKFIT

    Orbital Energies [Eh]
    ---------------------

    Doubly Occupied:

       1A   -489.721691     2A    -64.861411     3A    -58.215931
       4A    -58.215930     5A    -58.215928     6A     -9.533159
       7A     -7.140506     8A     -7.140490     9A     -7.140482
      10A     -2.882200    11A     -2.882198    12A     -2.882188
      13A     -2.882179    14A     -2.882159    15A     -0.685992
      16A     -0.139337    17A     -0.139334    18A     -0.139332

  @DF-RHF Final Energy: -2572.53371451425664

   => Energetics <=

    Nuclear Repulsion Energy =              0.0000000000000000
    One-Electron Energy =               -3593.6665312296599950
    Two-Electron Energy =                1021.1328167154033508
    Total Energy =                      -2572.5337145142566442
 Dipole X            :         -0.0001181            0.0000000           -0.0001181
 Dipole Y            :         -0.0001450            0.0000000           -0.0001450
 Dipole Z            :         -0.0002282            0.0000000           -0.0002282
 Magnitude           :                                                    0.0002951
  Basis Set: (AUG-CC-PVTZ AUX)
    Blend: AUG-CC-PVTZ-RI
	 Reference Energy          =   -2572.5337145142566442 [Eh]
	 Singles Energy            =      -0.0000000000000000 [Eh]
	 Same-Spin Energy          =      -0.0899448852610912 [Eh]
	 Opposite-Spin Energy      =      -0.2091180953632311 [Eh]
	 Correlation Energy        =      -0.2990629806243223 [Eh]
	 Total Energy              =   -2572.8327774948811566 [Eh]

	 ================> DF-SCS-MP2 Energies <==================
	-----------------------------------------------------------
	 SCS Same-Spin Scale       =       0.3333333333333333 [-]
	 SCS Opposite-Spin Scale   =       1.2000000000000000 [-]
	 SCS Same-Spin Energy      =      -0.0299816284203637 [Eh]
	 SCS Opposite-Spin Energy  =      -0.2509417144358774 [Eh]
	 SCS Correlation Energy    =      -0.2809233428562411 [Eh]
	 SCS Total Energy          =   -2572.8146378571127570 [Eh]
	-----------------------------------------------------------

*** Psi4 exiting successfully. Buy a developer a beer!
