                               Psi4 1.8.2 release

  ==> Input File <==

--------------------------------------------------------------------------
MEMORY 60 GB

molecule dimer {
0 1
Gh(Br)     0.000000     0.000000     0.000000
Gh(O)     -1.098908    -3.071508    -0.487534
Gh(H)     -0.293885    -3.421066    -1.019080
Gh(H)     -0.905828    -2.104128    -0.516759
O          1.164874    -2.706180     2.071644
H          1.253804    -2.143184     2.914441
H          0.471840    -2.302890     1.514895
Gh(O)      0.575450    -0.529067    -2.994827
Gh(H)      0.141283    -0.085171    -2.247597
Gh(H)      1.099265    -1.253083    -2.580112
Gh(O)     -0.792664     1.020897     3.205548
Gh(H)      0.118432     0.983099     2.910144
Gh(H)     -0.793424     1.323019     4.123454
Gh(O)      3.168574    -1.492021    -0.608818
Gh(H)      3.582456    -1.338518     0.262661
Gh(H)      2.354410    -0.982806    -0.504585

units ang
no_reorient
no_com
symmetry c1
}

set {
basis        aug-cc-pVTZ
scf_type     df
}

energy("mp2")
--------------------------------------------------------------------------

    Molecular point group: c1

    Geometry (in Angstrom), charge = 0, multiplicity = 1:

       Center              X                  Y                   Z               Mass
    ------------   -----------------  -----------------  -----------------  -----------------
      Gh(BR)          0.000000000000     0.000000000000     0.000000000000    78.918337600000
      Gh(O)          -1.098908000000    -3.071508000000    -0.487534000000    15.994914619570
      Gh(H)          -0.293885000000    -3.421066000000    -1.019080000000     1.007825032230
      Gh(H)          -0.905828000000    -2.104128000000    -0.516759000000     1.007825032230
         O            1.164874000000    -2.706180000000     2.071644000000    15.994914619570
         H            1.253804000000    -2.143184000000     2.914441000000     1.007825032230
         H            0.471840000000    -2.302890000000     1.514895000000     1.007825032230
      Gh(O)           0.575450000000    -0.529067000000    -2.994827000000    15.994914619570
      Gh(H)           0.141283000000    -0.085171000000    -2.247597000000     1.007825032230
      Gh(H)           1.099265000000    -1.253083000000    -2.580112000000     1.007825032230
      Gh(O)          -0.792664000000     1.020897000000     3.205548000000    15.994914619570
      Gh(H)           0.118432000000     0.983099000000     2.910144000000     1.007825032230
      Gh(H)          -0.793424000000     1.323019000000     4.123454000000     1.007825032230
      Gh(O)           3.168574000000    -1.492021000000    -0.608818000000    15.994914619570
      Gh(H)           3.582456000000    -1.338518000000     0.262661000000     1.007825032230
      Gh(H)           2.354410000000    -0.982806000000    -0.504585000000     1.007825032230

  Charge       = 0
  Multiplicity = 1
  Basis Set: AUG-CC-PVTZ
    Blend: AUG-CC-PVTZ
  Basis Set: (AUG-CC-PVTZ AUX)
    Blend: AUG-CC-PVTZ-JKFIT

    Orbital Energies [Eh]
    ---------------------

    Doubly Occupied:

       1A    -20.572209     2A     -1.332251     3A     -0.702554
       4A     -0.570845     5A     -0.506213

  @DF-RHF Final Energy:   -76.05431896502962

   => Energetics <=

    Nuclear Repulsion Energy =              8.8260759782248925
    One-Electron Energy =                -122.3926442539151509
    Two-Electron Energy =                  37.5122493106606427
    Total Energy =                        -76.0543189650296085
 Dipole X            :        -21.2709097           20.8713372           -0.3995725
 Dipole Y            :         49.9460533          -49.3133746            0.6326788
 Dipole Z            :        -39.5070288           39.6889503            0.1819215
 Magnitude           :                                                    0.7700883
  Basis Set: (AUG-CC-PVTZ AUX)
    Blend: AUG-CC-PVTZ-RI
	 Reference Energy          =     -76.0543189650296227 [Eh]
	 Singles Energy            =      -0.0000000000000000 [Eh]
	 Same-Spin Energy          =      -0.0690183820198890 [Eh]
	 Opposite-Spin Energy      =      -0.2176447332259310 [Eh]
	 Correlation Energy        =      -0.2866631152458200 [Eh]
	 Total Energy              =     -76.3409820802754382 [Eh]

	 ================> DF-SCS-MP2 Energies <==================
	-----------------------------------------------------------
	 SCS Same-Spin Scale       =       0.3333333333333333 [-]
	 SCS Opposite-Spin Scale   =       1.2000000000000000 [-]
	 SCS Same-Spin Energy      =      -0.0230061273399630 [Eh]
	 SCS Opposite-Spin Energy  =      -0.2611736798711172 [Eh]
	 SCS Correlation Energy    =      -0.2841798072110802 [Eh]
	 SCS Total Energy          =     -76.3384987722406976 [Eh]
	-----------------------------------------------------------

*** Psi4 exiting successfully. Buy a developer a beer!
