                               Psi4 1.8.2 release

  ==> Input File <==

--------------------------------------------------------------------------
MEMORY 60 GB

molecule dimer {
0 1
Gh(Br)     0.000000     0.000000     0.000000
O          1.746665    -1.522862     2.344313
H          1.302761    -1.244800     1.535866
H          1.477658    -0.946620     3.043779
Gh(O)     -0.155414     2.367422     2.373797
Gh(H)      0.139736     1.933532     1.509779
Gh(H)      0.044268     3.347623     2.380588
Gh(O)     -0.953764    -2.860809     1.638351
Gh(H)     -0.679006    -1.912495     1.469971
Gh(H)     -1.756172    -2.763420     2.109332
Gh(O)      2.595437     2.106666    -1.112278
Gh(H)      3.150772     2.235622    -0.338113
Gh(H)      1.872541     1.501902    -0.905209
Gh(O)     -3.071740    -0.470450    -1.805587
Gh(H)     -2.939395    -1.394781    -2.194465
Gh(H)     -2.208285    -0.394983    -1.343831

units ang
no_reorient
no_com
symmetry c1
}

set {
basis        aug-cc-pVTZ
scf_type     df
}

energy("mp2")
--------------------------------------------------------------------------

    Molecular point group: c1

    Geometry (in Angstrom), charge = 0, multiplicity = 1:

       Center              X                  Y                   Z               Mass
    ------------   -----------------  -----------------  -----------------  -----------------
      Gh(BR)          0.000000000000     0.000000000000     0.000000000000    78.918337600000
         O            1.746665000000    -1.522862000000     2.344313000000    15.994914619570
         H            1.302761000000    -1.244800000000     1.535866000000     1.007825032230
         H            1.477658000000    -0.946620000000     3.043779000000     1.007825032230
      Gh(O)          -0.155414000000     2.367422000000     2.373797000000    15.994914619570
      Gh(H)           0.139736000000     1.933532000000     1.509779000000     1.007825032230
      Gh(H)           0.044268000000     3.347623000000     2.380588000000     1.007825032230
      Gh(O)          -0.953764000000    -2.860809000000     1.638351000000    15.994914619570
      Gh(H)          -0.679006000000    -1.912495000000     1.469971000000     1.007825032230
      Gh(H)          -1.756172000000    -2.763420000000     2.109332000000     1.007825032230
      Gh(O)           2.595437000000     2.106666000000    -1.112278000000    15.994914619570
      Gh(H)           3.150772000000     2.235622000000    -0.338113000000     1.007825032230
      Gh(H)           1.872541000000     1.501902000000    -0.905209000000     1.007825032230
      Gh(O)          -3.071740000000    -0.470450000000    -1.805587000000    15.994914619570
      Gh(H)          -2.939395000000    -1.394781000000    -2.194465000000     1.007825032230
      Gh(H)          -2.208285000000    -0.394983000000    -1.343831000000     1.007825032230

  Charge       = 0
  Multiplicity = 1
  Basis Set: AUG-CC-PVTZ
    Blend: AUG-CC-PVTZ
  Basis Set: (AUG-CC-PVTZ AUX)
    Blend: AUG-CC-PVTZ-JKFIT

    Orbital Energies [Eh]
    ---------------------

    Doubly Occupied:

       1A    -20.564889     2A     -1.352432     3A     -0.726609
       4A     -0.578045     5A     -0.509463

  @DF-RHF Final Energy:   -76.06058609178272

   => Energetics <=

    Nuclear Repulsion Energy =              9.2149267037655491
    One-Electron Energy =                -123.0881479934401455
    Two-Electron Energy =                  37.8126351978918791
    Total Energy =                        -76.0605860917827243
 Dipole X            :        -32.1402998           31.6599783           -0.4803215
 Dipole Y            :         27.7401302          -27.1635205            0.5766097
 Dipole Z            :        -44.1662790           44.0951510           -0.0711280
 Magnitude           :                                                    0.7538214
  Basis Set: (AUG-CC-PVTZ AUX)
    Blend: AUG-CC-PVTZ-RI
	 Reference Energy          =     -76.0605860917827243 [Eh]
	 Singles Energy            =      -0.0000000000000000 [Eh]
	 Same-Spin Energy          =      -0.0682885778265776 [Eh]
	 Opposite-Spin Energy      =      -0.2156466148951783 [Eh]
	 Correlation Energy        =      -0.2839351927217559 [Eh]
	 Total Energy              =     -76.3445212845044807 [Eh]

	 ================> DF-SCS-MP2 Energies <==================
	-----------------------------------------------------------
	 SCS Same-Spin Scale       =       0.3333333333333333 [-]
	 SCS Opposite-Spin Scale   =       1.2000000000000000 [-]
	 SCS Same-Spin Energy      =      -0.0227628592755259 [Eh]
	 SCS Opposite-Spin Energy  =      -0.2587759378742140 [Eh]
	 SCS Correlation Energy    =      -0.2815387971497398 [Eh]
	 SCS Total Energy          =     -76.3421248889324602 [Eh]
	-----------------------------------------------------------

*** Psi4 exiting successfully. Buy a developer a beer!
