                               Psi4 1.9 release

  ==> Input File <==

--------------------------------------------------------------------------
MEMORY 60 GB

molecule dimer {
-1 1
Br     0.000000     0.000000     0.000000
--
0 1
O      0.648956     3.052833    -0.910767
H      0.221036     2.238654    -0.688052
H      0.274889     3.810621    -0.399241
O     -3.547804     0.036909     0.397669
H     -3.709002     0.859644     0.826066
H     -2.626536    -0.211847     0.219525
O     -1.365510     1.033202    -2.554714
H     -0.976789     1.936597    -2.537138
H     -1.154285     0.547997    -1.730847
O      1.788958    -0.833292    -2.658545
H      1.515672    -0.412503    -3.446617
H      1.281287    -0.326220    -1.983247
O     -0.063313     2.516803     2.353453
H      0.132725     1.913084     1.615962
H     -0.436989     3.341547     2.033875

units ang
no_reorient
no_com
symmetry c1
}

set {
basis        aug-cc-pVTZ
scf_type     df
}

energy("mp2", bsse_type="cp")
--------------------------------------------------------------------------

                               Psi4 1.9 release
    Molecular point group: c1
  Charge       = 0
  Multiplicity = 1
  Basis Set: AUG-CC-PVTZ
    Blend: AUG-CC-PVTZ
  Basis Set: (AUG-CC-PVTZ AUX)
    Blend: AUG-CC-PVTZ-JKFIT
  @DF-RHF Final Energy:  -380.27798190396561
    Total Energy =                       -380.2779819039656104
 Dipole X            :         48.4761580          -48.7316828           -0.2555248
 Dipole Y            :       -112.1645940          113.6655411            1.5009472
 Dipole Z            :         62.8855060          -62.4988101            0.3866959
 Magnitude           :                                                    1.5708816
  Basis Set: (AUG-CC-PVTZ AUX)
    Blend: AUG-CC-PVTZ-RI
	 Reference Energy          =    -380.2779819039656104 [Eh]
	 Singles Energy            =      -0.0000000000000000 [Eh]
	 Same-Spin Energy          =      -0.3448628320119670 [Eh]
	 Opposite-Spin Energy      =      -1.0835334609375273 [Eh]
	 Correlation Energy        =      -1.4283962929494942 [Eh]
	 Total Energy              =    -381.7063781969151250 [Eh]
	 SCS Total Energy          =    -381.6931763344279602 [Eh]
                               Psi4 1.9 release
    Molecular point group: c1
  Multiplicity = 1
  Basis Set: AUG-CC-PVTZ
    Blend: AUG-CC-PVTZ
  Basis Set: (AUG-CC-PVTZ AUX)
    Blend: AUG-CC-PVTZ-JKFIT
  @DF-RHF Final Energy: -2572.53373574704528
    Total Energy =                      -2572.5337357470452844
  Basis Set: (AUG-CC-PVTZ AUX)
	 Singles Energy            =      -0.0000000000000000 [Eh]
	 Same-Spin Energy          =      -0.0918862301023008 [Eh]
	 Opposite-Spin Energy      =      -0.2141119012962968 [Eh]
	 Correlation Energy        =      -0.3059981313985976 [Eh]
	 Total Energy              =   -2572.8397338784438944 [Eh]
	 SCS Total Energy          =   -2572.8212987719684861 [Eh]
                               Psi4 1.9 release
    Molecular point group: c1

    Geometry (in Bohr), charge = -1, multiplicity = 1:

       Center              X                  Y                   Z               Mass
    ------------   -----------------  -----------------  -----------------  -----------------
         BR           0.000000000000     0.000000000000     0.000000000000    78.918337600000
         O            1.226349107473     5.769018276760    -1.721100194105    15.994914619570
         H            0.417697503867     4.230442949661    -1.300229840074     1.007825032230
         H            0.519464924901     7.201030057918    -0.754456148054     1.007825032230
         O           -6.704377906804     0.069747901565     0.751485498585    15.994914619570
         H           -7.008997978775     1.624491725393     1.561038501552     1.007825032230
         H           -4.963433698656    -0.400332810500     0.414842127691     1.007825032230
         O           -2.580439921574     1.952468812275    -4.827709788873    15.994914619570
         H           -1.845863692360     3.659637945383    -4.794495962492     1.007825032230
         H           -2.181282520724     1.035564247573    -3.270826795070     1.007825032230
         O            3.380640669947    -1.574693662535    -5.023921942205    15.994914619570
         H            2.864204976025    -0.779517695930    -6.513162189347     1.007825032230
         H            2.421281518109    -0.616466456647    -3.747793669136     1.007825032230
         O           -0.119644230181     4.756068381731     4.447381619137    15.994914619570
         H            0.250813900001     3.615204814995     3.053725609147     1.007825032230
         H           -0.825789529838     6.314608665345     3.843466723416     1.007825032230

  Charge       = -1
  Multiplicity = 1
  Basis Set: AUG-CC-PVTZ
    Blend: AUG-CC-PVTZ
  Basis Set: (AUG-CC-PVTZ AUX)
    Blend: AUG-CC-PVTZ-JKFIT

    Orbital Energies [Eh]
    ---------------------

    Doubly Occupied:

       1A   -489.801006     2A    -64.941770     3A    -58.296246
       4A    -58.296227     5A    -58.296204     6A    -20.440670
       7A    -20.436328     8A    -20.422694     9A    -20.411307
      10A    -20.406355    11A     -9.614367    12A     -7.221957
      13A     -7.221911    14A     -7.221772    15A     -2.963556
      16A     -2.963536    17A     -2.963387    18A     -2.963303
      19A     -2.963285    20A     -1.224490    21A     -1.217323
      22A     -1.209577    23A     -1.201651    24A     -1.183808
      25A     -0.787357    26A     -0.608293    27A     -0.605997
      28A     -0.597608    29A     -0.564491    30A     -0.558072
      31A     -0.459476    32A     -0.441650    33A     -0.440429
      34A     -0.427776    35A     -0.424045    36A     -0.386890
      37A     -0.378887    38A     -0.371777    39A     -0.358761
      40A     -0.351194    41A     -0.231212    42A     -0.228884
      43A     -0.228069

  @DF-RHF Final Energy: -2952.86670149693600

   => Energetics <=

    Nuclear Repulsion Energy =            455.6455157144649775
    One-Electron Energy =               -5032.3572259472439328
    Two-Electron Energy =                1623.8450087358435212
    Total Energy =                      -2952.8667014969360025
 Dipole X            :         48.8419542          -48.7316828            0.1102714
 Dipole Y            :       -113.0328051          113.6655411            0.6327361
 Dipole Z            :         63.4175058          -62.4988101            0.9186957
 Magnitude           :                                                    1.1209444
  Basis Set: (AUG-CC-PVTZ AUX)
    Blend: AUG-CC-PVTZ-RI
	 Reference Energy          =   -2952.8667014969360025 [Eh]
	 Singles Energy            =      -0.0000000000000000 [Eh]
	 Same-Spin Energy          =      -0.4481665041837788 [Eh]
	 Opposite-Spin Energy      =      -1.3064207440695901 [Eh]
	 Correlation Energy        =      -1.7545872482533689 [Eh]
	 Total Energy              =   -2954.6212887451893039 [Eh]

	 ================> DF-SCS-MP2 Energies <==================
	-----------------------------------------------------------
	 SCS Same-Spin Scale       =       0.3333333333333333 [-]
	 SCS Opposite-Spin Scale   =       1.2000000000000000 [-]
	 SCS Same-Spin Energy      =      -0.1493888347279263 [Eh]
	 SCS Opposite-Spin Energy  =      -1.5677048928835080 [Eh]
	 SCS Correlation Energy    =      -1.7170937276114342 [Eh]
	 SCS Total Energy          =   -2954.5837952245474298 [Eh]
	-----------------------------------------------------------

*** Psi4 exiting successfully. Buy a developer a beer!
