                               Psi4 1.8.2 release

  ==> Input File <==

--------------------------------------------------------------------------
MEMORY 60 GB

molecule dimer {
-1 1
Br         0.000000     0.000000     0.000000
Gh(O)      2.503250     1.309100    -1.941613
Gh(H)      1.693555     1.376407    -1.484593
Gh(H)      2.297101     0.825735    -2.742119
Gh(O)     -3.001212     0.171636     1.161661
Gh(H)     -2.095584     0.222145     0.811440
Gh(H)     -3.311681     1.091997     1.388500
Gh(O)      0.694505    -1.649884    -3.009010
Gh(H)      1.348391    -1.016594    -3.241515
Gh(H)      0.489087    -1.363055    -2.138119
Gh(O)     -1.346088     2.952246    -0.232248
Gh(H)     -0.998482     2.049470    -0.375845
Gh(H)     -2.085144     2.836345     0.344825
Gh(O)      1.132621     1.535541     2.844400
Gh(H)      0.751306     1.043572     2.062688
Gh(H)      1.972007     2.061134     2.749098

units ang
no_reorient
no_com
symmetry c1
}

set {
basis        aug-cc-pVTZ
scf_type     df
}

energy("mp2")
--------------------------------------------------------------------------

    Molecular point group: c1

    Geometry (in Angstrom), charge = -1, multiplicity = 1:

       Center              X                  Y                   Z               Mass
    ------------   -----------------  -----------------  -----------------  -----------------
         BR           0.000000000000     0.000000000000     0.000000000000    78.918337600000
      Gh(O)           2.503250000000     1.309100000000    -1.941613000000    15.994914619570
      Gh(H)           1.693555000000     1.376407000000    -1.484593000000     1.007825032230
      Gh(H)           2.297101000000     0.825735000000    -2.742119000000     1.007825032230
      Gh(O)          -3.001212000000     0.171636000000     1.161661000000    15.994914619570
      Gh(H)          -2.095584000000     0.222145000000     0.811440000000     1.007825032230
      Gh(H)          -3.311681000000     1.091997000000     1.388500000000     1.007825032230
      Gh(O)           0.694505000000    -1.649884000000    -3.009010000000    15.994914619570
      Gh(H)           1.348391000000    -1.016594000000    -3.241515000000     1.007825032230
      Gh(H)           0.489087000000    -1.363055000000    -2.138119000000     1.007825032230
      Gh(O)          -1.346088000000     2.952246000000    -0.232248000000    15.994914619570
      Gh(H)          -0.998482000000     2.049470000000    -0.375845000000     1.007825032230
      Gh(H)          -2.085144000000     2.836345000000     0.344825000000     1.007825032230
      Gh(O)           1.132621000000     1.535541000000     2.844400000000    15.994914619570
      Gh(H)           0.751306000000     1.043572000000     2.062688000000     1.007825032230
      Gh(H)           1.972007000000     2.061134000000     2.749098000000     1.007825032230

  Charge       = -1
  Multiplicity = 1
  Basis Set: AUG-CC-PVTZ
    Blend: AUG-CC-PVTZ
  Basis Set: (AUG-CC-PVTZ AUX)
    Blend: AUG-CC-PVTZ-JKFIT

    Orbital Energies [Eh]
    ---------------------

    Doubly Occupied:

       1A   -489.722311     2A    -64.861864     3A    -58.216402
       4A    -58.216402     5A    -58.216399     6A     -9.533313
       7A     -7.140643     8A     -7.140639     9A     -7.140624
      10A     -2.882358    11A     -2.882354    12A     -2.882337
      13A     -2.882329    14A     -2.882320    15A     -0.685989
      16A     -0.139334    17A     -0.139333    18A     -0.139329

  @DF-RHF Final Energy: -2572.53373261964089

   => Energetics <=

    Nuclear Repulsion Energy =              0.0000000000000000
    One-Electron Energy =               -3593.6589082879095258
    Two-Electron Energy =                1021.1251756682681844
    Total Energy =                      -2572.5337326196413414
 Dipole X            :         -0.0000521            0.0000000           -0.0000521
 Dipole Y            :          0.0001033            0.0000000            0.0001033
 Dipole Z            :         -0.0000747            0.0000000           -0.0000747
 Magnitude           :                                                    0.0001377
  Basis Set: (AUG-CC-PVTZ AUX)
    Blend: AUG-CC-PVTZ-RI
	 Reference Energy          =   -2572.5337326196408867 [Eh]
	 Singles Energy            =      -0.0000000000000000 [Eh]
	 Same-Spin Energy          =      -0.0915855335356083 [Eh]
	 Opposite-Spin Energy      =      -0.2133100313604053 [Eh]
	 Correlation Energy        =      -0.3048955648960135 [Eh]
	 Total Energy              =   -2572.8386281845369012 [Eh]

	 ================> DF-SCS-MP2 Energies <==================
	-----------------------------------------------------------
	 SCS Same-Spin Scale       =       0.3333333333333333 [-]
	 SCS Opposite-Spin Scale   =       1.2000000000000000 [-]
	 SCS Same-Spin Energy      =      -0.0305285111785361 [Eh]
	 SCS Opposite-Spin Energy  =      -0.2559720376324863 [Eh]
	 SCS Correlation Energy    =      -0.2865005488110224 [Eh]
	 SCS Total Energy          =   -2572.8202331684519777 [Eh]
	-----------------------------------------------------------

*** Psi4 exiting successfully. Buy a developer a beer!
