                               Psi4 1.8.2 release

  ==> Input File <==

--------------------------------------------------------------------------
MEMORY 60 GB

molecule dimer {
0 1
Gh(Br)     0.000000     0.000000     0.000000
O          3.157564    -0.938804     1.002837
H          2.741539    -1.572686     1.601074
H          2.435256    -0.515105     0.528841
Gh(O)     -1.178261     3.348443    -0.543747
Gh(H)     -0.877405     4.142222    -0.123462
Gh(H)     -0.618048     2.578310    -0.290120
Gh(O)     -0.155000     1.255906    -3.193252
Gh(H)     -0.202310     0.622118    -3.920435
Gh(H)     -0.213318     0.808213    -2.353788
Gh(O)      0.562600     1.647077     2.887295
Gh(H)      0.576374     0.972541     2.201725
Gh(H)     -0.160115     1.355841     3.512740
Gh(O)      1.977093     2.382932     0.020064
Gh(H)      1.569982     3.008419     0.619026
Gh(H)      1.465597     1.557824     0.009689

units ang
no_reorient
no_com
symmetry c1
}

set {
basis        aug-cc-pVTZ
scf_type     df
}

energy("mp2")
--------------------------------------------------------------------------

    Molecular point group: c1

    Geometry (in Angstrom), charge = 0, multiplicity = 1:

       Center              X                  Y                   Z               Mass
    ------------   -----------------  -----------------  -----------------  -----------------
      Gh(BR)          0.000000000000     0.000000000000     0.000000000000    78.918337600000
         O            3.157564000000    -0.938804000000     1.002837000000    15.994914619570
         H            2.741539000000    -1.572686000000     1.601074000000     1.007825032230
         H            2.435256000000    -0.515105000000     0.528841000000     1.007825032230
      Gh(O)          -1.178261000000     3.348443000000    -0.543747000000    15.994914619570
      Gh(H)          -0.877405000000     4.142222000000    -0.123462000000     1.007825032230
      Gh(H)          -0.618048000000     2.578310000000    -0.290120000000     1.007825032230
      Gh(O)          -0.155000000000     1.255906000000    -3.193252000000    15.994914619570
      Gh(H)          -0.202310000000     0.622118000000    -3.920435000000     1.007825032230
      Gh(H)          -0.213318000000     0.808213000000    -2.353788000000     1.007825032230
      Gh(O)           0.562600000000     1.647077000000     2.887295000000    15.994914619570
      Gh(H)           0.576374000000     0.972541000000     2.201725000000     1.007825032230
      Gh(H)          -0.160115000000     1.355841000000     3.512740000000     1.007825032230
      Gh(O)           1.977093000000     2.382932000000     0.020064000000    15.994914619570
      Gh(H)           1.569982000000     3.008419000000     0.619026000000     1.007825032230
      Gh(H)           1.465597000000     1.557824000000     0.009689000000     1.007825032230

  Charge       = 0
  Multiplicity = 1
  Basis Set: AUG-CC-PVTZ
    Blend: AUG-CC-PVTZ
  Basis Set: (AUG-CC-PVTZ AUX)
    Blend: AUG-CC-PVTZ-JKFIT

    Orbital Energies [Eh]
    ---------------------

    Doubly Occupied:

       1A    -20.567756     2A     -1.349196     3A     -0.716333
       4A     -0.581234     5A     -0.509421

  @DF-RHF Final Energy:   -76.06017317666500

   => Energetics <=

    Nuclear Repulsion Energy =              9.1271525910743083
    One-Electron Energy =                -122.9267685936250416
    Two-Electron Energy =                  37.7394428258857388
    Total Energy =                        -76.0601731766649891
 Dipole X            :        -58.2753663           57.5181742           -0.7571920
 Dipole Y            :         17.9987753          -18.1380128           -0.1392375
 Dipole Z            :        -19.1038545           19.1856542            0.0817998
 Magnitude           :                                                    0.7742209
  Basis Set: (AUG-CC-PVTZ AUX)
    Blend: AUG-CC-PVTZ-RI
	 Reference Energy          =     -76.0601731766650033 [Eh]
	 Singles Energy            =      -0.0000000000000000 [Eh]
	 Same-Spin Energy          =      -0.0684874500391811 [Eh]
	 Opposite-Spin Energy      =      -0.2161103250806262 [Eh]
	 Correlation Energy        =      -0.2845977751198073 [Eh]
	 Total Energy              =     -76.3447709517848097 [Eh]

	 ================> DF-SCS-MP2 Energies <==================
	-----------------------------------------------------------
	 SCS Same-Spin Scale       =       0.3333333333333333 [-]
	 SCS Opposite-Spin Scale   =       1.2000000000000000 [-]
	 SCS Same-Spin Energy      =      -0.0228291500130604 [Eh]
	 SCS Opposite-Spin Energy  =      -0.2593323900967515 [Eh]
	 SCS Correlation Energy    =      -0.2821615401098118 [Eh]
	 SCS Total Energy          =     -76.3423347167748148 [Eh]
	-----------------------------------------------------------

*** Psi4 exiting successfully. Buy a developer a beer!
