                               Psi4 1.8.2 release

  ==> Input File <==

--------------------------------------------------------------------------
MEMORY 60 GB

molecule dimer {
0 1
Gh(Br)     0.000000     0.000000     0.000000
Gh(O)      3.157564    -0.938804     1.002837
Gh(H)      2.741539    -1.572686     1.601074
Gh(H)      2.435256    -0.515105     0.528841
Gh(O)     -1.178261     3.348443    -0.543747
Gh(H)     -0.877405     4.142222    -0.123462
Gh(H)     -0.618048     2.578310    -0.290120
Gh(O)     -0.155000     1.255906    -3.193252
Gh(H)     -0.202310     0.622118    -3.920435
Gh(H)     -0.213318     0.808213    -2.353788
Gh(O)      0.562600     1.647077     2.887295
Gh(H)      0.576374     0.972541     2.201725
Gh(H)     -0.160115     1.355841     3.512740
O          1.977093     2.382932     0.020064
H          1.569982     3.008419     0.619026
H          1.465597     1.557824     0.009689

units ang
no_reorient
no_com
symmetry c1
}

set {
basis        aug-cc-pVTZ
scf_type     df
}

energy("mp2")
--------------------------------------------------------------------------

    Molecular point group: c1

    Geometry (in Angstrom), charge = 0, multiplicity = 1:

       Center              X                  Y                   Z               Mass
    ------------   -----------------  -----------------  -----------------  -----------------
      Gh(BR)          0.000000000000     0.000000000000     0.000000000000    78.918337600000
      Gh(O)           3.157564000000    -0.938804000000     1.002837000000    15.994914619570
      Gh(H)           2.741539000000    -1.572686000000     1.601074000000     1.007825032230
      Gh(H)           2.435256000000    -0.515105000000     0.528841000000     1.007825032230
      Gh(O)          -1.178261000000     3.348443000000    -0.543747000000    15.994914619570
      Gh(H)          -0.877405000000     4.142222000000    -0.123462000000     1.007825032230
      Gh(H)          -0.618048000000     2.578310000000    -0.290120000000     1.007825032230
      Gh(O)          -0.155000000000     1.255906000000    -3.193252000000    15.994914619570
      Gh(H)          -0.202310000000     0.622118000000    -3.920435000000     1.007825032230
      Gh(H)          -0.213318000000     0.808213000000    -2.353788000000     1.007825032230
      Gh(O)           0.562600000000     1.647077000000     2.887295000000    15.994914619570
      Gh(H)           0.576374000000     0.972541000000     2.201725000000     1.007825032230
      Gh(H)          -0.160115000000     1.355841000000     3.512740000000     1.007825032230
         O            1.977093000000     2.382932000000     0.020064000000    15.994914619570
         H            1.569982000000     3.008419000000     0.619026000000     1.007825032230
         H            1.465597000000     1.557824000000     0.009689000000     1.007825032230

  Charge       = 0
  Multiplicity = 1
  Basis Set: AUG-CC-PVTZ
    Blend: AUG-CC-PVTZ
  Basis Set: (AUG-CC-PVTZ AUX)
    Blend: AUG-CC-PVTZ-JKFIT

    Orbital Energies [Eh]
    ---------------------

    Doubly Occupied:

       1A    -20.565779     2A     -1.346467     3A     -0.723794
       4A     -0.573385     5A     -0.508183

  @DF-RHF Final Energy:   -76.05969214566113

   => Energetics <=

    Nuclear Repulsion Energy =              9.1200702112030445
    One-Electron Energy =                -122.9243029471809479
    Two-Electron Energy =                  37.7445405903167597
    Total Energy =                        -76.0596921456611454
 Dipole X            :        -36.2440310           35.6257273           -0.6183038
 Dipole Y            :        -44.7863830           44.6536595           -0.1327235
 Dipole Z            :         -1.0945704            1.4914229            0.3968525
 Magnitude           :                                                    0.7465969
  Basis Set: (AUG-CC-PVTZ AUX)
    Blend: AUG-CC-PVTZ-RI
	 Reference Energy          =     -76.0596921456611312 [Eh]
	 Singles Energy            =      -0.0000000000000000 [Eh]
	 Same-Spin Energy          =      -0.0684777975454075 [Eh]
	 Opposite-Spin Energy      =      -0.2164476634541513 [Eh]
	 Correlation Energy        =      -0.2849254609995588 [Eh]
	 Total Energy              =     -76.3446176066606910 [Eh]

	 ================> DF-SCS-MP2 Energies <==================
	-----------------------------------------------------------
	 SCS Same-Spin Scale       =       0.3333333333333333 [-]
	 SCS Opposite-Spin Scale   =       1.2000000000000000 [-]
	 SCS Same-Spin Energy      =      -0.0228259325151358 [Eh]
	 SCS Opposite-Spin Energy  =      -0.2597371961449816 [Eh]
	 SCS Correlation Energy    =      -0.2825631286601174 [Eh]
	 SCS Total Energy          =     -76.3422552743212464 [Eh]
	-----------------------------------------------------------

*** Psi4 exiting successfully. Buy a developer a beer!
