                               Psi4 1.8.2 release

  ==> Input File <==

--------------------------------------------------------------------------
MEMORY 60 GB

molecule dimer {
-1 1
Br         0.000000     0.000000     0.000000
O         -2.443613    -2.360774    -0.255856
H         -1.986974    -1.574922    -0.584686
H         -3.201224    -2.434475    -0.842092
O          3.066514    -0.605083     1.353026
H          2.141438    -0.713791     1.099239
H          3.086047    -0.698339     2.294813
O          0.367047    -3.332711     0.754569
H          1.227098    -3.062496     0.463316
H         -0.190689    -2.686798     0.393415
O          0.333694    -0.332488    -3.479360
H          0.357208    -0.153407    -2.541475
H         -0.280528    -1.086508    -3.536513
O         -0.545829     2.707927     1.712656
H         -1.489040     2.571515     1.590886
H         -0.104623     1.938941     1.344831

units ang
no_reorient
no_com
symmetry c1
}

set {
basis        aug-cc-pVTZ
scf_type     df
}

energy("mp2")
--------------------------------------------------------------------------

    Molecular point group: c1

    Geometry (in Angstrom), charge = -1, multiplicity = 1:

       Center              X                  Y                   Z               Mass
    ------------   -----------------  -----------------  -----------------  -----------------
         BR           0.000000000000     0.000000000000     0.000000000000    78.918337600000
         O           -2.443613000000    -2.360774000000    -0.255856000000    15.994914619570
         H           -1.986974000000    -1.574922000000    -0.584686000000     1.007825032230
         H           -3.201224000000    -2.434475000000    -0.842092000000     1.007825032230
         O            3.066514000000    -0.605083000000     1.353026000000    15.994914619570
         H            2.141438000000    -0.713791000000     1.099239000000     1.007825032230
         H            3.086047000000    -0.698339000000     2.294813000000     1.007825032230
         O            0.367047000000    -3.332711000000     0.754569000000    15.994914619570
         H            1.227098000000    -3.062496000000     0.463316000000     1.007825032230
         H           -0.190689000000    -2.686798000000     0.393415000000     1.007825032230
         O            0.333694000000    -0.332488000000    -3.479360000000    15.994914619570
         H            0.357208000000    -0.153407000000    -2.541475000000     1.007825032230
         H           -0.280528000000    -1.086508000000    -3.536513000000     1.007825032230
         O           -0.545829000000     2.707927000000     1.712656000000    15.994914619570
         H           -1.489040000000     2.571515000000     1.590886000000     1.007825032230
         H           -0.104623000000     1.938941000000     1.344831000000     1.007825032230

  Charge       = -1
  Multiplicity = 1
  Basis Set: AUG-CC-PVTZ
    Blend: AUG-CC-PVTZ
  Basis Set: (AUG-CC-PVTZ AUX)
    Blend: AUG-CC-PVTZ-JKFIT

    Orbital Energies [Eh]
    ---------------------

    Doubly Occupied:

       1A   -489.794212     2A    -64.934738     3A    -58.289253
       4A    -58.289214     5A    -58.289192     6A    -20.446044
       7A    -20.431929     8A    -20.426003     9A    -20.413209
      10A    -20.412828    11A     -9.607135    12A     -7.214869
      13A     -7.214600    14A     -7.214436    15A     -2.956497
      16A     -2.956433    17A     -2.956247    18A     -2.955914
      19A     -2.955895    20A     -1.231704    21A     -1.216340
      22A     -1.216099    23A     -1.215285    24A     -1.200751
      25A     -0.774037    26A     -0.595919    27A     -0.583651
      28A     -0.575989    29A     -0.574968    30A     -0.571935
      31A     -0.467508    32A     -0.456457    33A     -0.449273
      34A     -0.446143    35A     -0.436444    36A     -0.390793
      37A     -0.376334    38A     -0.373630    39A     -0.364190
      40A     -0.360857    41A     -0.225347    42A     -0.220656
      43A     -0.218835

  @DF-RHF Final Energy: -2952.88584696193811

   => Energetics <=

    Nuclear Repulsion Energy =            435.3008914120598547
    One-Electron Energy =               -4991.7698897815234886
    Two-Electron Energy =                1603.5831514075252926
    Total Energy =                      -2952.8858469619381140
 Dipole X            :        -12.2958584           10.9249168           -1.3709416
 Dipole Y            :         74.4677381          -74.2384804            0.2292577
 Dipole Z            :         -0.9515841            0.6841073           -0.2674768
 Magnitude           :                                                    1.4154801
  Basis Set: (AUG-CC-PVTZ AUX)
    Blend: AUG-CC-PVTZ-RI
	 Reference Energy          =   -2952.8858469619381140 [Eh]
	 Singles Energy            =      -0.0000000000000000 [Eh]
	 Same-Spin Energy          =      -0.4432019795024000 [Eh]
	 Opposite-Spin Energy      =      -1.2986250726847683 [Eh]
	 Correlation Energy        =      -1.7418270521871684 [Eh]
	 Total Energy              =   -2954.6276740141252048 [Eh]

	 ================> DF-SCS-MP2 Energies <==================
	-----------------------------------------------------------
	 SCS Same-Spin Scale       =       0.3333333333333333 [-]
	 SCS Opposite-Spin Scale   =       1.2000000000000000 [-]
	 SCS Same-Spin Energy      =      -0.1477339931674667 [Eh]
	 SCS Opposite-Spin Energy  =      -1.5583500872217220 [Eh]
	 SCS Correlation Energy    =      -1.7060840803891886 [Eh]
	 SCS Total Energy          =   -2954.5919310423273600 [Eh]
	-----------------------------------------------------------

*** Psi4 exiting successfully. Buy a developer a beer!
