                               Psi4 1.8.2 release

  ==> Input File <==

--------------------------------------------------------------------------
MEMORY 60 GB

molecule dimer {
-1 1
Br         0.000000     0.000000     0.000000
Gh(O)     -0.088017     2.381552    -2.261185
Gh(H)      0.085852     1.513908    -1.878612
Gh(H)     -0.607832     2.226833    -3.041716
Gh(O)      3.292755    -0.049072    -1.394388
Gh(H)      3.313770     0.293662    -0.438862
Gh(H)      3.329681    -1.029261    -1.327193
Gh(O)     -1.887489    -1.542891     2.210978
Gh(H)     -1.391426    -1.135169     1.456088
Gh(H)     -2.055481    -2.392826     1.818252
Gh(O)     -1.984809     2.487522     0.009885
Gh(H)     -1.495227     1.853035    -0.535053
Gh(H)     -2.258934     2.039837     0.854695
Gh(O)     -2.275006    -1.329324    -2.141041
Gh(H)     -1.778768    -1.181051    -2.948824
Gh(H)     -1.760804    -0.928569    -1.475808

units ang
no_reorient
no_com
symmetry c1
}

set {
basis        aug-cc-pVTZ
scf_type     df
}

energy("mp2")
--------------------------------------------------------------------------

    Molecular point group: c1

    Geometry (in Angstrom), charge = -1, multiplicity = 1:

       Center              X                  Y                   Z               Mass
    ------------   -----------------  -----------------  -----------------  -----------------
         BR           0.000000000000     0.000000000000     0.000000000000    78.918337600000
      Gh(O)          -0.088017000000     2.381552000000    -2.261185000000    15.994914619570
      Gh(H)           0.085852000000     1.513908000000    -1.878612000000     1.007825032230
      Gh(H)          -0.607832000000     2.226833000000    -3.041716000000     1.007825032230
      Gh(O)           3.292755000000    -0.049072000000    -1.394388000000    15.994914619570
      Gh(H)           3.313770000000     0.293662000000    -0.438862000000     1.007825032230
      Gh(H)           3.329681000000    -1.029261000000    -1.327193000000     1.007825032230
      Gh(O)          -1.887489000000    -1.542891000000     2.210978000000    15.994914619570
      Gh(H)          -1.391426000000    -1.135169000000     1.456088000000     1.007825032230
      Gh(H)          -2.055481000000    -2.392826000000     1.818252000000     1.007825032230
      Gh(O)          -1.984809000000     2.487522000000     0.009885000000    15.994914619570
      Gh(H)          -1.495227000000     1.853035000000    -0.535053000000     1.007825032230
      Gh(H)          -2.258934000000     2.039837000000     0.854695000000     1.007825032230
      Gh(O)          -2.275006000000    -1.329324000000    -2.141041000000    15.994914619570
      Gh(H)          -1.778768000000    -1.181051000000    -2.948824000000     1.007825032230
      Gh(H)          -1.760804000000    -0.928569000000    -1.475808000000     1.007825032230

  Charge       = -1
  Multiplicity = 1
  Basis Set: AUG-CC-PVTZ
    Blend: AUG-CC-PVTZ
  Basis Set: (AUG-CC-PVTZ AUX)
    Blend: AUG-CC-PVTZ-JKFIT

    Orbital Energies [Eh]
    ---------------------

    Doubly Occupied:

       1A   -489.722122     2A    -64.861732     3A    -58.216264
       4A    -58.216264     5A    -58.216261     6A     -9.533269
       7A     -7.140610     8A     -7.140595     9A     -7.140584
      10A     -2.882312    11A     -2.882310    12A     -2.882297
      13A     -2.882286    14A     -2.882271    15A     -0.685990
      16A     -0.139336    17A     -0.139333    18A     -0.139329

  @DF-RHF Final Energy: -2572.53372687780166

   => Energetics <=

    Nuclear Repulsion Energy =              0.0000000000000000
    One-Electron Energy =               -3593.6611212788848206
    Two-Electron Energy =                1021.1273944010828245
    Total Energy =                      -2572.5337268778021098
 Dipole X            :         -0.0001451            0.0000000           -0.0001451
 Dipole Y            :          0.0000615            0.0000000            0.0000615
 Dipole Z            :         -0.0000297            0.0000000           -0.0000297
 Magnitude           :                                                    0.0001604
  Basis Set: (AUG-CC-PVTZ AUX)
    Blend: AUG-CC-PVTZ-RI
	 Reference Energy          =   -2572.5337268778016551 [Eh]
	 Singles Energy            =      -0.0000000000000000 [Eh]
	 Same-Spin Energy          =      -0.0910701108978533 [Eh]
	 Opposite-Spin Energy      =      -0.2119776117988427 [Eh]
	 Correlation Energy        =      -0.3030477226966959 [Eh]
	 Total Energy              =   -2572.8367746004983019 [Eh]

	 ================> DF-SCS-MP2 Energies <==================
	-----------------------------------------------------------
	 SCS Same-Spin Scale       =       0.3333333333333333 [-]
	 SCS Opposite-Spin Scale   =       1.2000000000000000 [-]
	 SCS Same-Spin Energy      =      -0.0303567036326178 [Eh]
	 SCS Opposite-Spin Energy  =      -0.2543731341586112 [Eh]
	 SCS Correlation Energy    =      -0.2847298377912290 [Eh]
	 SCS Total Energy          =   -2572.8184567155926743 [Eh]
	-----------------------------------------------------------

*** Psi4 exiting successfully. Buy a developer a beer!
