                               Psi4 1.8.2 release

  ==> Input File <==

--------------------------------------------------------------------------
MEMORY 60 GB

molecule dimer {
-1 1
Br         0.000000     0.000000     0.000000
Gh(O)     -1.555931    -2.410735     1.903242
Gh(H)     -1.336158    -1.685951     1.329705
Gh(H)     -1.202065    -2.143102     2.753233
Gh(O)      1.417048     1.968120    -2.039520
Gh(H)      1.167136     1.401234    -1.339808
Gh(H)      2.306972     2.196646    -1.827799
Gh(O)     -2.508795     2.074873    -1.101146
Gh(H)     -3.092353     1.814461    -0.316996
Gh(H)     -1.909740     1.348917    -1.007525
Gh(O)      2.328483    -2.470186    -0.546566
Gh(H)      1.861807    -3.293107    -0.316598
Gh(H)      1.615156    -1.824846    -0.512308
Gh(O)     -1.332291    -0.652158    -3.288020
Gh(H)     -0.891184    -0.465234    -2.411088
Gh(H)     -0.886797    -0.114013    -3.927637

units ang
no_reorient
no_com
symmetry c1
}

set {
basis        aug-cc-pVTZ
scf_type     df
}

energy("mp2")
--------------------------------------------------------------------------

    Molecular point group: c1

    Geometry (in Angstrom), charge = -1, multiplicity = 1:

       Center              X                  Y                   Z               Mass
    ------------   -----------------  -----------------  -----------------  -----------------
         BR           0.000000000000     0.000000000000     0.000000000000    78.918337600000
      Gh(O)          -1.555931000000    -2.410735000000     1.903242000000    15.994914619570
      Gh(H)          -1.336158000000    -1.685951000000     1.329705000000     1.007825032230
      Gh(H)          -1.202065000000    -2.143102000000     2.753233000000     1.007825032230
      Gh(O)           1.417048000000     1.968120000000    -2.039520000000    15.994914619570
      Gh(H)           1.167136000000     1.401234000000    -1.339808000000     1.007825032230
      Gh(H)           2.306972000000     2.196646000000    -1.827799000000     1.007825032230
      Gh(O)          -2.508795000000     2.074873000000    -1.101146000000    15.994914619570
      Gh(H)          -3.092353000000     1.814461000000    -0.316996000000     1.007825032230
      Gh(H)          -1.909740000000     1.348917000000    -1.007525000000     1.007825032230
      Gh(O)           2.328483000000    -2.470186000000    -0.546566000000    15.994914619570
      Gh(H)           1.861807000000    -3.293107000000    -0.316598000000     1.007825032230
      Gh(H)           1.615156000000    -1.824846000000    -0.512308000000     1.007825032230
      Gh(O)          -1.332291000000    -0.652158000000    -3.288020000000    15.994914619570
      Gh(H)          -0.891184000000    -0.465234000000    -2.411088000000     1.007825032230
      Gh(H)          -0.886797000000    -0.114013000000    -3.927637000000     1.007825032230

  Charge       = -1
  Multiplicity = 1
  Basis Set: AUG-CC-PVTZ
    Blend: AUG-CC-PVTZ
  Basis Set: (AUG-CC-PVTZ AUX)
    Blend: AUG-CC-PVTZ-JKFIT

    Orbital Energies [Eh]
    ---------------------

    Doubly Occupied:

       1A   -489.722268     2A    -64.861831     3A    -58.216369
       4A    -58.216368     5A    -58.216367     6A     -9.533301
       7A     -7.140636     8A     -7.140625     9A     -7.140615
      10A     -2.882347    11A     -2.882344    12A     -2.882337
      13A     -2.882320    14A     -2.882296    15A     -0.685990
      16A     -0.139336    17A     -0.139334    18A     -0.139329

  @DF-RHF Final Energy: -2572.53373115782369

   => Energetics <=

    Nuclear Repulsion Energy =              0.0000000000000000
    One-Electron Energy =               -3593.6594346506822149
    Two-Electron Energy =                1021.1257034928587473
    Total Energy =                      -2572.5337311578232402
 Dipole X            :         -0.0001414            0.0000000           -0.0001414
 Dipole Y            :         -0.0001495            0.0000000           -0.0001495
 Dipole Z            :         -0.0003916            0.0000000           -0.0003916
 Magnitude           :                                                    0.0004423
  Basis Set: (AUG-CC-PVTZ AUX)
    Blend: AUG-CC-PVTZ-RI
	 Reference Energy          =   -2572.5337311578236950 [Eh]
	 Singles Energy            =      -0.0000000000000000 [Eh]
	 Same-Spin Energy          =      -0.0914295558170455 [Eh]
	 Opposite-Spin Energy      =      -0.2128058548948686 [Eh]
	 Correlation Energy        =      -0.3042354107119141 [Eh]
	 Total Energy              =   -2572.8379665685356485 [Eh]

	 ================> DF-SCS-MP2 Energies <==================
	-----------------------------------------------------------
	 SCS Same-Spin Scale       =       0.3333333333333333 [-]
	 SCS Opposite-Spin Scale   =       1.2000000000000000 [-]
	 SCS Same-Spin Energy      =      -0.0304765186056818 [Eh]
	 SCS Opposite-Spin Energy  =      -0.2553670258738424 [Eh]
	 SCS Correlation Energy    =      -0.2858435444795242 [Eh]
	 SCS Total Energy          =   -2572.8195747023032709 [Eh]
	-----------------------------------------------------------

*** Psi4 exiting successfully. Buy a developer a beer!
