                               Psi4 1.8.2 release

  ==> Input File <==

--------------------------------------------------------------------------
MEMORY 60 GB

molecule dimer {
-1 1
Br         0.000000     0.000000     0.000000
Gh(O)      1.901186     1.766278     1.976425
Gh(H)      2.014537     1.299148     2.815032
Gh(H)      1.226952     1.162183     1.576218
Gh(O)      1.090075     3.227324    -1.160627
Gh(H)      2.009569     3.131599    -1.409539
Gh(H)      0.759246     2.452516    -0.697298
Gh(O)      1.036749    -1.103900     3.095540
Gh(H)      0.435450    -1.042285     2.289662
Gh(H)      1.911055    -1.239199     2.756827
Gh(O)     -2.629643     2.018819     0.922667
Gh(H)     -1.841866     1.463958     1.121590
Gh(H)     -2.314172     2.927331     0.932451
Gh(O)     -2.583292    -1.610021    -1.363785
Gh(H)     -2.276380    -1.035941    -0.678244
Gh(H)     -1.849291    -1.880891    -1.897783

units ang
no_reorient
no_com
symmetry c1
}

set {
basis        aug-cc-pVTZ
scf_type     df
}

energy("mp2")
--------------------------------------------------------------------------

    Molecular point group: c1

    Geometry (in Angstrom), charge = -1, multiplicity = 1:

       Center              X                  Y                   Z               Mass
    ------------   -----------------  -----------------  -----------------  -----------------
         BR           0.000000000000     0.000000000000     0.000000000000    78.918337600000
      Gh(O)           1.901186000000     1.766278000000     1.976425000000    15.994914619570
      Gh(H)           2.014537000000     1.299148000000     2.815032000000     1.007825032230
      Gh(H)           1.226952000000     1.162183000000     1.576218000000     1.007825032230
      Gh(O)           1.090075000000     3.227324000000    -1.160627000000    15.994914619570
      Gh(H)           2.009569000000     3.131599000000    -1.409539000000     1.007825032230
      Gh(H)           0.759246000000     2.452516000000    -0.697298000000     1.007825032230
      Gh(O)           1.036749000000    -1.103900000000     3.095540000000    15.994914619570
      Gh(H)           0.435450000000    -1.042285000000     2.289662000000     1.007825032230
      Gh(H)           1.911055000000    -1.239199000000     2.756827000000     1.007825032230
      Gh(O)          -2.629643000000     2.018819000000     0.922667000000    15.994914619570
      Gh(H)          -1.841866000000     1.463958000000     1.121590000000     1.007825032230
      Gh(H)          -2.314172000000     2.927331000000     0.932451000000     1.007825032230
      Gh(O)          -2.583292000000    -1.610021000000    -1.363785000000    15.994914619570
      Gh(H)          -2.276380000000    -1.035941000000    -0.678244000000     1.007825032230
      Gh(H)          -1.849291000000    -1.880891000000    -1.897783000000     1.007825032230

  Charge       = -1
  Multiplicity = 1
  Basis Set: AUG-CC-PVTZ
    Blend: AUG-CC-PVTZ
  Basis Set: (AUG-CC-PVTZ AUX)
    Blend: AUG-CC-PVTZ-JKFIT

    Orbital Energies [Eh]
    ---------------------

    Doubly Occupied:

       1A   -489.722054     2A    -64.861680     3A    -58.216211
       4A    -58.216209     5A    -58.216208     6A     -9.533250
       7A     -7.140588     8A     -7.140578     9A     -7.140566
      10A     -2.882297    11A     -2.882288    12A     -2.882276
      13A     -2.882265    14A     -2.882253    15A     -0.685990
      16A     -0.139335    17A     -0.139334    18A     -0.139329

  @DF-RHF Final Energy: -2572.53372684994702

   => Energetics <=

    Nuclear Repulsion Energy =              0.0000000000000000
    One-Electron Energy =               -3593.6620324350660667
    Two-Electron Energy =                1021.1283055851190511
    Total Energy =                      -2572.5337268499470156
 Dipole X            :         -0.0002497            0.0000000           -0.0002497
 Dipole Y            :          0.0002135            0.0000000            0.0002135
 Dipole Z            :          0.0002398            0.0000000            0.0002398
 Magnitude           :                                                    0.0004068
  Basis Set: (AUG-CC-PVTZ AUX)
    Blend: AUG-CC-PVTZ-RI
	 Reference Energy          =   -2572.5337268499470156 [Eh]
	 Singles Energy            =      -0.0000000000000000 [Eh]
	 Same-Spin Energy          =      -0.0909216601081665 [Eh]
	 Opposite-Spin Energy      =      -0.2115771156165976 [Eh]
	 Correlation Energy        =      -0.3024987757247641 [Eh]
	 Total Energy              =   -2572.8362256256718865 [Eh]

	 ================> DF-SCS-MP2 Energies <==================
	-----------------------------------------------------------
	 SCS Same-Spin Scale       =       0.3333333333333333 [-]
	 SCS Opposite-Spin Scale   =       1.2000000000000000 [-]
	 SCS Same-Spin Energy      =      -0.0303072200360555 [Eh]
	 SCS Opposite-Spin Energy  =      -0.2538925387399172 [Eh]
	 SCS Correlation Energy    =      -0.2841997587759727 [Eh]
	 SCS Total Energy          =   -2572.8179266087231554 [Eh]
	-----------------------------------------------------------

*** Psi4 exiting successfully. Buy a developer a beer!
