                               Psi4 1.8.2 release

  ==> Input File <==

--------------------------------------------------------------------------
MEMORY 60 GB

molecule dimer {
0 1
Gh(Br)     0.000000     0.000000     0.000000
Gh(O)     -1.002720     1.993124     2.321313
Gh(H)     -0.351528     2.133751     3.042936
Gh(H)     -0.543410     1.349055     1.802299
Gh(O)      0.307659    -1.113457     3.179549
Gh(H)      0.146511    -1.014538     2.251034
Gh(H)      0.916176    -0.384364     3.369983
Gh(O)      0.134938     2.890842    -2.146499
Gh(H)      0.910478     2.837152    -2.697170
Gh(H)      0.278111     2.304641    -1.426932
O          2.679835     2.140169     0.858685
H          2.130372     1.676874     0.222200
H          2.422386     3.080482     0.748396
Gh(O)      2.910957    -1.444106     1.064877
Gh(H)      2.876759    -2.399112     0.943677
Gh(H)      1.992337    -1.112588     0.882055
Gh(O)     -2.729613     2.306210     0.073831
Gh(H)     -2.217593     2.158831     0.876539
Gh(H)     -2.952467     1.398441    -0.249696

units ang
no_reorient
no_com
symmetry c1
}

set {
basis        aug-cc-pVTZ
scf_type     df
}

energy("mp2")
--------------------------------------------------------------------------

    Molecular point group: c1

    Geometry (in Angstrom), charge = 0, multiplicity = 1:

       Center              X                  Y                   Z               Mass
    ------------   -----------------  -----------------  -----------------  -----------------
      Gh(BR)          0.000000000000     0.000000000000     0.000000000000    78.918337600000
      Gh(O)          -1.002720000000     1.993124000000     2.321313000000    15.994914619570
      Gh(H)          -0.351528000000     2.133751000000     3.042936000000     1.007825032230
      Gh(H)          -0.543410000000     1.349055000000     1.802299000000     1.007825032230
      Gh(O)           0.307659000000    -1.113457000000     3.179549000000    15.994914619570
      Gh(H)           0.146511000000    -1.014538000000     2.251034000000     1.007825032230
      Gh(H)           0.916176000000    -0.384364000000     3.369983000000     1.007825032230
      Gh(O)           0.134938000000     2.890842000000    -2.146499000000    15.994914619570
      Gh(H)           0.910478000000     2.837152000000    -2.697170000000     1.007825032230
      Gh(H)           0.278111000000     2.304641000000    -1.426932000000     1.007825032230
         O            2.679835000000     2.140169000000     0.858685000000    15.994914619570
         H            2.130372000000     1.676874000000     0.222200000000     1.007825032230
         H            2.422386000000     3.080482000000     0.748396000000     1.007825032230
      Gh(O)           2.910957000000    -1.444106000000     1.064877000000    15.994914619570
      Gh(H)           2.876759000000    -2.399112000000     0.943677000000     1.007825032230
      Gh(H)           1.992337000000    -1.112588000000     0.882055000000     1.007825032230
      Gh(O)          -2.729613000000     2.306210000000     0.073831000000    15.994914619570
      Gh(H)          -2.217593000000     2.158831000000     0.876539000000     1.007825032230
      Gh(H)          -2.952467000000     1.398441000000    -0.249696000000     1.007825032230

  Charge       = 0
  Multiplicity = 1
  Basis Set: AUG-CC-PVTZ
    Blend: AUG-CC-PVTZ
  Basis Set: (AUG-CC-PVTZ AUX)
    Blend: AUG-CC-PVTZ-JKFIT

    Orbital Energies [Eh]
    ---------------------

    Doubly Occupied:

       1A    -20.569730     2A     -1.347359     3A     -0.709099
       4A     -0.583737     5A     -0.509483

  @DF-RHF Final Energy:   -76.05923617412545

   => Energetics <=

    Nuclear Repulsion Energy =              9.0709639455019513
    One-Electron Energy =                -122.8215798714297620
    Two-Electron Energy =                  37.6913797518023657
    Total Energy =                        -76.0592361741254308
 Dipole X            :        -49.6485377           49.1166994           -0.5318383
 Dipole Y            :        -41.0342889           41.3447661            0.3104772
 Dipole Z            :        -15.3089730           14.8155964           -0.4933765
 Magnitude           :                                                    0.7890934
  Basis Set: (AUG-CC-PVTZ AUX)
    Blend: AUG-CC-PVTZ-RI
	 Reference Energy          =     -76.0592361741254450 [Eh]
	 Singles Energy            =      -0.0000000000000000 [Eh]
	 Same-Spin Energy          =      -0.0686372633214678 [Eh]
	 Opposite-Spin Energy      =      -0.2164481867976549 [Eh]
	 Correlation Energy        =      -0.2850854501191227 [Eh]
	 Total Energy              =     -76.3443216242445715 [Eh]

	 ================> DF-SCS-MP2 Energies <==================
	-----------------------------------------------------------
	 SCS Same-Spin Scale       =       0.3333333333333333 [-]
	 SCS Opposite-Spin Scale   =       1.2000000000000000 [-]
	 SCS Same-Spin Energy      =      -0.0228790877738226 [Eh]
	 SCS Opposite-Spin Energy  =      -0.2597378241571859 [Eh]
	 SCS Correlation Energy    =      -0.2826169119310085 [Eh]
	 SCS Total Energy          =     -76.3418530860564601 [Eh]
	-----------------------------------------------------------

*** Psi4 exiting successfully. Buy a developer a beer!
