                               Psi4 1.8.2 release

  ==> Input File <==

--------------------------------------------------------------------------
MEMORY 60 GB

molecule dimer {
-1 1
Br         0.000000     0.000000     0.000000
Gh(O)     -1.507113     3.153677     0.727512
Gh(H)     -1.401126     3.534901     1.636011
Gh(H)     -1.273360     2.251134     0.805090
Gh(O)     -2.527257    -1.576289    -1.788391
Gh(H)     -3.096049    -1.956530    -1.125070
Gh(H)     -1.908040    -0.983812    -1.315649
Gh(O)      2.401260     2.203563     1.435866
Gh(H)      2.471673     2.594887     0.539971
Gh(H)      1.670040     1.582303     1.398800
Gh(O)     -1.730997    -2.235948     1.893891
Gh(H)     -2.644870    -2.455969     1.750518
Gh(H)     -1.534443    -1.597829     1.213875
Gh(O)     -3.550632     0.657093     0.107045
Gh(H)     -4.037137     1.096145    -0.565114
Gh(H)     -2.546666     0.700240     0.067458
Gh(O)      1.905718    -2.442782    -1.403529
Gh(H)      2.150010    -1.702909    -1.963940
Gh(H)      1.197651    -2.188600    -0.858966

units ang
no_reorient
no_com
symmetry c1
}

set {
basis        aug-cc-pVTZ
scf_type     df
}

energy("mp2")
--------------------------------------------------------------------------

    Molecular point group: c1

    Geometry (in Angstrom), charge = -1, multiplicity = 1:

       Center              X                  Y                   Z               Mass
    ------------   -----------------  -----------------  -----------------  -----------------
         BR           0.000000000000     0.000000000000     0.000000000000    78.918337600000
      Gh(O)          -1.507113000000     3.153677000000     0.727512000000    15.994914619570
      Gh(H)          -1.401126000000     3.534901000000     1.636011000000     1.007825032230
      Gh(H)          -1.273360000000     2.251134000000     0.805090000000     1.007825032230
      Gh(O)          -2.527257000000    -1.576289000000    -1.788391000000    15.994914619570
      Gh(H)          -3.096049000000    -1.956530000000    -1.125070000000     1.007825032230
      Gh(H)          -1.908040000000    -0.983812000000    -1.315649000000     1.007825032230
      Gh(O)           2.401260000000     2.203563000000     1.435866000000    15.994914619570
      Gh(H)           2.471673000000     2.594887000000     0.539971000000     1.007825032230
      Gh(H)           1.670040000000     1.582303000000     1.398800000000     1.007825032230
      Gh(O)          -1.730997000000    -2.235948000000     1.893891000000    15.994914619570
      Gh(H)          -2.644870000000    -2.455969000000     1.750518000000     1.007825032230
      Gh(H)          -1.534443000000    -1.597829000000     1.213875000000     1.007825032230
      Gh(O)          -3.550632000000     0.657093000000     0.107045000000    15.994914619570
      Gh(H)          -4.037137000000     1.096145000000    -0.565114000000     1.007825032230
      Gh(H)          -2.546666000000     0.700240000000     0.067458000000     1.007825032230
      Gh(O)           1.905718000000    -2.442782000000    -1.403529000000    15.994914619570
      Gh(H)           2.150010000000    -1.702909000000    -1.963940000000     1.007825032230
      Gh(H)           1.197651000000    -2.188600000000    -0.858966000000     1.007825032230

  Charge       = -1
  Multiplicity = 1
  Basis Set: AUG-CC-PVTZ
    Blend: AUG-CC-PVTZ
  Basis Set: (AUG-CC-PVTZ AUX)
    Blend: AUG-CC-PVTZ-JKFIT

    Orbital Energies [Eh]
    ---------------------

    Doubly Occupied:

       1A   -489.722119     2A    -64.861738     3A    -58.216271
       4A    -58.216270     5A    -58.216267     6A     -9.533272
       7A     -7.140615     8A     -7.140599     9A     -7.140586
      10A     -2.882318    11A     -2.882310    12A     -2.882297
      13A     -2.882287    14A     -2.882269    15A     -0.685987
      16A     -0.139335    17A     -0.139330    18A     -0.139327

  @DF-RHF Final Energy: -2572.53373267568577

   => Energetics <=

    Nuclear Repulsion Energy =              0.0000000000000000
    One-Electron Energy =               -3593.6610734236378448
    Two-Electron Energy =                1021.1273407479521893
    Total Energy =                      -2572.5337326756857692
 Dipole X            :         -0.0000890            0.0000000           -0.0000890
 Dipole Y            :          0.0000100            0.0000000            0.0000100
 Dipole Z            :          0.0000446            0.0000000            0.0000446
 Magnitude           :                                                    0.0001000
  Basis Set: (AUG-CC-PVTZ AUX)
    Blend: AUG-CC-PVTZ-RI
	 Reference Energy          =   -2572.5337326756857692 [Eh]
	 Singles Energy            =      -0.0000000000000000 [Eh]
	 Same-Spin Energy          =      -0.0911591467624609 [Eh]
	 Opposite-Spin Energy      =      -0.2121267419985738 [Eh]
	 Correlation Energy        =      -0.3032858887610347 [Eh]
	 Total Energy              =   -2572.8370185644466801 [Eh]

	 ================> DF-SCS-MP2 Energies <==================
	-----------------------------------------------------------
	 SCS Same-Spin Scale       =       0.3333333333333333 [-]
	 SCS Opposite-Spin Scale   =       1.2000000000000000 [-]
	 SCS Same-Spin Energy      =      -0.0303863822541536 [Eh]
	 SCS Opposite-Spin Energy  =      -0.2545520903982886 [Eh]
	 SCS Correlation Energy    =      -0.2849384726524422 [Eh]
	 SCS Total Energy          =   -2572.8186711483381259 [Eh]
	-----------------------------------------------------------

*** Psi4 exiting successfully. Buy a developer a beer!
