                               Psi4 1.9 release

  ==> Input File <==

--------------------------------------------------------------------------
MEMORY 60 GB

molecule dimer {
-1 1
Br     0.000000     0.000000     0.000000
--
0 1
O      1.943362     2.492757     1.142910
H      2.853656     2.365277     0.915650
H      1.414503     1.767381     0.739501
O      2.828599    -1.316138    -0.243498
H      1.991575    -1.027562     0.115147
H      2.923425    -0.868601    -1.085454
O     -1.187233    -3.096829    -0.068719
H     -1.015863    -2.191810     0.131593
H     -0.434378    -3.240086    -0.566381
O     -1.630611     1.500183     2.569503
H     -1.143522     1.019930     1.833037
H     -1.089551     2.321043     2.728925
O      0.795952     1.602190    -3.133141
H      1.463263     0.954500    -2.826078
H     -0.107599     1.347855    -3.018310

units ang
no_reorient
no_com
symmetry c1
}

set {
basis        aug-cc-pVTZ
scf_type     df
}

energy("mp2", bsse_type="cp")
--------------------------------------------------------------------------

                               Psi4 1.9 release
    Molecular point group: c1
  Charge       = 0
  Multiplicity = 1
  Basis Set: AUG-CC-PVTZ
    Blend: AUG-CC-PVTZ
  Basis Set: (AUG-CC-PVTZ AUX)
    Blend: AUG-CC-PVTZ-JKFIT
  @DF-RHF Final Energy:  -380.28160930138841
    Total Energy =                       -380.2816093013884142
 Dipole X            :        -53.6013474           54.5300523            0.9287050
 Dipole Y            :        -22.4353535           22.4976261            0.0622725
 Dipole Z            :         -3.0952797            2.0863899           -1.0088898
 Magnitude           :                                                    1.3726724
  Basis Set: (AUG-CC-PVTZ AUX)
    Blend: AUG-CC-PVTZ-RI
	 Reference Energy          =    -380.2816093013884142 [Eh]
	 Singles Energy            =      -0.0000000000000000 [Eh]
	 Same-Spin Energy          =      -0.3433080977778160 [Eh]
	 Opposite-Spin Energy      =      -1.0814316466522806 [Eh]
	 Correlation Energy        =      -1.4247397444300967 [Eh]
	 Total Energy              =    -381.7063490458185129 [Eh]
	 SCS Total Energy          =    -381.6937633099637424 [Eh]
                               Psi4 1.9 release
    Molecular point group: c1
  Multiplicity = 1
  Basis Set: AUG-CC-PVTZ
    Blend: AUG-CC-PVTZ
  Basis Set: (AUG-CC-PVTZ AUX)
    Blend: AUG-CC-PVTZ-JKFIT
  @DF-RHF Final Energy: -2572.53373124632708
    Total Energy =                      -2572.5337312463275339
  Basis Set: (AUG-CC-PVTZ AUX)
	 Singles Energy            =      -0.0000000000000000 [Eh]
	 Same-Spin Energy          =      -0.0915263159986748 [Eh]
	 Opposite-Spin Energy      =      -0.2131089331693519 [Eh]
	 Correlation Energy        =      -0.3046352491680268 [Eh]
	 Total Energy              =   -2572.8383664954949381 [Eh]
	 SCS Total Energy          =   -2572.8199707381299959 [Eh]
                               Psi4 1.9 release
    Molecular point group: c1

    Geometry (in Bohr), charge = -1, multiplicity = 1:

       Center              X                  Y                   Z               Mass
    ------------   -----------------  -----------------  -----------------  -----------------
         BR           0.000000000000     0.000000000000     0.000000000000    78.918337600000
         O            3.672421942622     4.710628027318     2.159786886047    15.994914619570
         H            5.392628296269     4.469725740845     1.730327726775     1.007825032230
         H            2.673023273638     3.339866049338     1.397454359502     1.007825032230
         O            5.345277428744    -2.487140363308    -0.460144532097    15.994914619570
         H            3.763531308309    -1.941810756928     0.217596294168     1.007825032230
         H            5.524472598317    -1.641418002299    -2.051210781783     1.007825032230
         O           -2.243545217106    -5.852158667375    -0.129860089615    15.994914619570
         H           -1.919702850986    -4.141920619040     0.248674730027     1.007825032230
         H           -0.820855454924    -6.122875162930    -1.070304972663     1.007825032230
         O           -3.081408207159     2.834935008068     4.855656948542    15.994914619570
         H           -2.160943398436     1.927388367138     3.463937907831     1.007825032230
         H           -2.058952989719     4.386135595411     5.156920866915     1.007825032230
         O            1.504131289010     3.027700300947    -5.920778402443    15.994914619570
         H            2.765166319516     1.803743586749    -5.340513429182     1.007825032230
         H           -0.203332641373     2.547076806829    -5.703779261731     1.007825032230

  Charge       = -1
  Multiplicity = 1
  Basis Set: AUG-CC-PVTZ
    Blend: AUG-CC-PVTZ
  Basis Set: (AUG-CC-PVTZ AUX)
    Blend: AUG-CC-PVTZ-JKFIT

    Orbital Energies [Eh]
    ---------------------

    Doubly Occupied:

       1A   -489.804010     2A    -64.944741     3A    -58.299214
       4A    -58.299203     5A    -58.299196     6A    -20.446342
       7A    -20.424587     8A    -20.423743     9A    -20.420441
      10A    -20.415884    11A     -9.617310    12A     -7.224925
      13A     -7.224895    14A     -7.224676    15A     -2.966528
      16A     -2.966513    17A     -2.966321    18A     -2.966264
      19A     -2.966210    20A     -1.230116    21A     -1.227768
      22A     -1.215515    23A     -1.208730    24A     -1.182439
      25A     -0.787991    26A     -0.620246    27A     -0.585556
      28A     -0.584152    29A     -0.572607    30A     -0.546154
      31A     -0.466680    32A     -0.452582    33A     -0.449046
      34A     -0.441715    35A     -0.431558    36A     -0.392007
      37A     -0.373484    38A     -0.370771    39A     -0.370331
      40A     -0.357507    41A     -0.234532    42A     -0.232418
      43A     -0.229729

  @DF-RHF Final Energy: -2952.87511528968525

   => Energetics <=

    Nuclear Repulsion Energy =            439.0484472152949138
    One-Electron Energy =               -4998.9178444517774551
    Two-Electron Energy =                1606.9942819467974005
    Total Energy =                      -2952.8751152896852545
 Dipole X            :        -54.0229462           54.5300523            0.5071062
 Dipole Y            :        -22.4769199           22.4976261            0.0207062
 Dipole Z            :         -3.3013573            2.0863899           -1.2149674
 Magnitude           :                                                    1.3167122
  Basis Set: (AUG-CC-PVTZ AUX)
    Blend: AUG-CC-PVTZ-RI
	 Reference Energy          =   -2952.8751152896852545 [Eh]
	 Singles Energy            =      -0.0000000000000000 [Eh]
	 Same-Spin Energy          =      -0.4450770654680724 [Eh]
	 Opposite-Spin Energy      =      -1.3018131025238477 [Eh]
	 Correlation Energy        =      -1.7468901679919202 [Eh]
	 Total Energy              =   -2954.6220054576770053 [Eh]

	 ================> DF-SCS-MP2 Energies <==================
	-----------------------------------------------------------
	 SCS Same-Spin Scale       =       0.3333333333333333 [-]
	 SCS Opposite-Spin Scale   =       1.2000000000000000 [-]
	 SCS Same-Spin Energy      =      -0.1483590218226908 [Eh]
	 SCS Opposite-Spin Energy  =      -1.5621757230286173 [Eh]
	 SCS Correlation Energy    =      -1.7105347448513082 [Eh]
	 SCS Total Energy          =   -2954.5856500345366840 [Eh]
	-----------------------------------------------------------

*** Psi4 exiting successfully. Buy a developer a beer!
