                               Psi4 1.8.2 release

  ==> Input File <==

--------------------------------------------------------------------------
MEMORY 60 GB

molecule dimer {
-1 1
Br         0.000000     0.000000     0.000000
Gh(O)     -0.398772     2.771226    -1.737852
Gh(H)     -0.167454     1.894529    -1.346899
Gh(H)     -0.309653     3.428697    -1.020919
Gh(O)     -3.339806     0.323665     0.990808
Gh(H)     -2.438001     0.132101     0.746811
Gh(H)     -3.184475     1.038662     1.636400
Gh(O)      1.126320     0.799653     2.994782
Gh(H)      0.909928     0.462489     2.111776
Gh(H)      1.413076     1.689178     2.896339
Gh(O)      2.367838    -2.599542    -0.056597
Gh(H)      3.092019    -3.163533    -0.291148
Gh(H)      2.688477    -1.665096    -0.038083
Gh(O)      2.789469     1.923029    -0.987849
Gh(H)      2.065767     1.315362    -0.700213
Gh(H)      3.541717     1.356749    -1.006051
Gh(O)     -0.911427     2.834175     1.397650
Gh(H)     -0.109751     3.206318     1.722669
Gh(H)     -0.618486     2.164510     0.761354

units ang
no_reorient
no_com
symmetry c1
}

set {
basis        aug-cc-pVTZ
scf_type     df
}

energy("mp2")
--------------------------------------------------------------------------

    Molecular point group: c1

    Geometry (in Angstrom), charge = -1, multiplicity = 1:

       Center              X                  Y                   Z               Mass
    ------------   -----------------  -----------------  -----------------  -----------------
         BR           0.000000000000     0.000000000000     0.000000000000    78.918337600000
      Gh(O)          -0.398772000000     2.771226000000    -1.737852000000    15.994914619570
      Gh(H)          -0.167454000000     1.894529000000    -1.346899000000     1.007825032230
      Gh(H)          -0.309653000000     3.428697000000    -1.020919000000     1.007825032230
      Gh(O)          -3.339806000000     0.323665000000     0.990808000000    15.994914619570
      Gh(H)          -2.438001000000     0.132101000000     0.746811000000     1.007825032230
      Gh(H)          -3.184475000000     1.038662000000     1.636400000000     1.007825032230
      Gh(O)           1.126320000000     0.799653000000     2.994782000000    15.994914619570
      Gh(H)           0.909928000000     0.462489000000     2.111776000000     1.007825032230
      Gh(H)           1.413076000000     1.689178000000     2.896339000000     1.007825032230
      Gh(O)           2.367838000000    -2.599542000000    -0.056597000000    15.994914619570
      Gh(H)           3.092019000000    -3.163533000000    -0.291148000000     1.007825032230
      Gh(H)           2.688477000000    -1.665096000000    -0.038083000000     1.007825032230
      Gh(O)           2.789469000000     1.923029000000    -0.987849000000    15.994914619570
      Gh(H)           2.065767000000     1.315362000000    -0.700213000000     1.007825032230
      Gh(H)           3.541717000000     1.356749000000    -1.006051000000     1.007825032230
      Gh(O)          -0.911427000000     2.834175000000     1.397650000000    15.994914619570
      Gh(H)          -0.109751000000     3.206318000000     1.722669000000     1.007825032230
      Gh(H)          -0.618486000000     2.164510000000     0.761354000000     1.007825032230

  Charge       = -1
  Multiplicity = 1
  Basis Set: AUG-CC-PVTZ
    Blend: AUG-CC-PVTZ
  Basis Set: (AUG-CC-PVTZ AUX)
    Blend: AUG-CC-PVTZ-JKFIT

    Orbital Energies [Eh]
    ---------------------

    Doubly Occupied:

       1A   -489.722481     2A    -64.861994     3A    -58.216538
       4A    -58.216537     5A    -58.216535     6A     -9.533359
       7A     -7.140685     8A     -7.140678     9A     -7.140674
      10A     -2.882408    11A     -2.882398    12A     -2.882383
      13A     -2.882374    14A     -2.882360    15A     -0.685989
      16A     -0.139333    17A     -0.139332    18A     -0.139331

  @DF-RHF Final Energy: -2572.53373814350516

   => Energetics <=

    Nuclear Repulsion Energy =              0.0000000000000000
    One-Electron Energy =               -3593.6567030177739070
    Two-Electron Energy =                1021.1229648742687459
    Total Energy =                      -2572.5337381435051611
 Dipole X            :          0.0000163            0.0000000            0.0000163
 Dipole Y            :          0.0001640            0.0000000            0.0001640
 Dipole Z            :          0.0001158            0.0000000            0.0001158
 Magnitude           :                                                    0.0002014
  Basis Set: (AUG-CC-PVTZ AUX)
    Blend: AUG-CC-PVTZ-RI
	 Reference Energy          =   -2572.5337381435051611 [Eh]
	 Singles Energy            =      -0.0000000000000000 [Eh]
	 Same-Spin Energy          =      -0.0920110255085161 [Eh]
	 Opposite-Spin Energy      =      -0.2143097646391324 [Eh]
	 Correlation Energy        =      -0.3063207901476485 [Eh]
	 Total Energy              =   -2572.8400589336529265 [Eh]

	 ================> DF-SCS-MP2 Energies <==================
	-----------------------------------------------------------
	 SCS Same-Spin Scale       =       0.3333333333333333 [-]
	 SCS Opposite-Spin Scale   =       1.2000000000000000 [-]
	 SCS Same-Spin Energy      =      -0.0306703418361720 [Eh]
	 SCS Opposite-Spin Energy  =      -0.2571717175669588 [Eh]
	 SCS Correlation Energy    =      -0.2878420594031309 [Eh]
	 SCS Total Energy          =   -2572.8215802029080805 [Eh]
	-----------------------------------------------------------

*** Psi4 exiting successfully. Buy a developer a beer!
