                               Psi4 1.8.2 release

  ==> Input File <==

--------------------------------------------------------------------------
MEMORY 60 GB

molecule dimer {
0 1
Gh(Br)     0.000000     0.000000     0.000000
O         -0.999022    -2.679634    -1.724013
H         -0.678718    -2.037465    -1.171070
H         -1.864558    -2.807700    -1.354503
Gh(O)      2.580843    -1.796834    -1.300260
Gh(H)      2.444330    -2.737774    -1.082597
Gh(H)      1.984606    -1.292710    -0.800320
Gh(O)      0.716653    -2.040909     2.401316
Gh(H)      0.606530    -1.564525     1.571865
Gh(H)      0.320539    -1.488156     3.042768

units ang
no_reorient
no_com
symmetry c1
}

set {
basis        aug-cc-pVTZ
scf_type     df
}

energy("mp2")
--------------------------------------------------------------------------

    Molecular point group: c1

    Geometry (in Angstrom), charge = 0, multiplicity = 1:

       Center              X                  Y                   Z               Mass
    ------------   -----------------  -----------------  -----------------  -----------------
      Gh(BR)          0.000000000000     0.000000000000     0.000000000000    78.918337600000
         O           -0.999022000000    -2.679634000000    -1.724013000000    15.994914619570
         H           -0.678718000000    -2.037465000000    -1.171070000000     1.007825032230
         H           -1.864558000000    -2.807700000000    -1.354503000000     1.007825032230
      Gh(O)           2.580843000000    -1.796834000000    -1.300260000000    15.994914619570
      Gh(H)           2.444330000000    -2.737774000000    -1.082597000000     1.007825032230
      Gh(H)           1.984606000000    -1.292710000000    -0.800320000000     1.007825032230
      Gh(O)           0.716653000000    -2.040909000000     2.401316000000    15.994914619570
      Gh(H)           0.606530000000    -1.564525000000     1.571865000000     1.007825032230
      Gh(H)           0.320539000000    -1.488156000000     3.042768000000     1.007825032230

  Charge       = 0
  Multiplicity = 1
  Basis Set: AUG-CC-PVTZ
    Blend: AUG-CC-PVTZ
  Basis Set: (AUG-CC-PVTZ AUX)
    Blend: AUG-CC-PVTZ-JKFIT

    Orbital Energies [Eh]
    ---------------------

    Doubly Occupied:

       1A    -20.563369     2A     -1.373148     3A     -0.725688
       4A     -0.598618     5A     -0.514071

  @DF-RHF Final Energy:   -76.05857033857427

   => Energetics <=

    Nuclear Repulsion Energy =              9.5013349013995771
    One-Electron Energy =                -123.5700196812365590
    Two-Electron Energy =                  38.0101144412627150
    Total Energy =                        -76.0585703385742704
 Dipole X            :         19.5509413          -19.9091189           -0.3581776
 Dipole Y            :         50.0156242          -49.6662299            0.3493943
 Dipole Z            :         31.4552705          -30.8359405            0.6193300
 Magnitude           :                                                    0.7962018
  Basis Set: (AUG-CC-PVTZ AUX)
    Blend: AUG-CC-PVTZ-RI
	 Reference Energy          =     -76.0585703385742704 [Eh]
	 Singles Energy            =      -0.0000000000000000 [Eh]
	 Same-Spin Energy          =      -0.0679613566686487 [Eh]
	 Opposite-Spin Energy      =      -0.2145767320589260 [Eh]
	 Correlation Energy        =      -0.2825380887275746 [Eh]
	 Total Energy              =     -76.3411084273018474 [Eh]

	 ================> DF-SCS-MP2 Energies <==================
	-----------------------------------------------------------
	 SCS Same-Spin Scale       =       0.3333333333333333 [-]
	 SCS Opposite-Spin Scale   =       1.2000000000000000 [-]
	 SCS Same-Spin Energy      =      -0.0226537855562162 [Eh]
	 SCS Opposite-Spin Energy  =      -0.2574920784707112 [Eh]
	 SCS Correlation Energy    =      -0.2801458640269274 [Eh]
	 SCS Total Energy          =     -76.3387162026012049 [Eh]
	-----------------------------------------------------------

*** Psi4 exiting successfully. Buy a developer a beer!
