                               Psi4 1.8.2 release

  ==> Input File <==

--------------------------------------------------------------------------
MEMORY 60 GB

molecule dimer {
0 1
Gh(Br)     0.000000     0.000000     0.000000
Gh(O)     -3.089947     1.034619     0.842009
Gh(H)     -3.734811     0.391946     0.529675
Gh(H)     -2.297161     0.715238     0.405981
Gh(O)     -2.233158    -2.307199     1.583647
Gh(H)     -2.798612    -2.457186     0.820221
Gh(H)     -1.458816    -1.809725     1.296922
O         -0.611219     2.868519     1.544803
H         -0.492191     2.014807     1.191864
H          0.279621     2.996725     1.995565
Gh(O)     -1.434323     2.291860    -1.824576
Gh(H)     -0.902332     3.109212    -1.825781
Gh(H)     -0.845869     1.602856    -1.446966

units ang
no_reorient
no_com
symmetry c1
}

set {
basis        aug-cc-pVTZ
scf_type     df
}

energy("mp2")
--------------------------------------------------------------------------

    Molecular point group: c1

    Geometry (in Angstrom), charge = 0, multiplicity = 1:

       Center              X                  Y                   Z               Mass
    ------------   -----------------  -----------------  -----------------  -----------------
      Gh(BR)          0.000000000000     0.000000000000     0.000000000000    78.918337600000
      Gh(O)          -3.089947000000     1.034619000000     0.842009000000    15.994914619570
      Gh(H)          -3.734811000000     0.391946000000     0.529675000000     1.007825032230
      Gh(H)          -2.297161000000     0.715238000000     0.405981000000     1.007825032230
      Gh(O)          -2.233158000000    -2.307199000000     1.583647000000    15.994914619570
      Gh(H)          -2.798612000000    -2.457186000000     0.820221000000     1.007825032230
      Gh(H)          -1.458816000000    -1.809725000000     1.296922000000     1.007825032230
         O           -0.611219000000     2.868519000000     1.544803000000    15.994914619570
         H           -0.492191000000     2.014807000000     1.191864000000     1.007825032230
         H            0.279621000000     2.996725000000     1.995565000000     1.007825032230
      Gh(O)          -1.434323000000     2.291860000000    -1.824576000000    15.994914619570
      Gh(H)          -0.902332000000     3.109212000000    -1.825781000000     1.007825032230
      Gh(H)          -0.845869000000     1.602856000000    -1.446966000000     1.007825032230

  Charge       = 0
  Multiplicity = 1
  Basis Set: AUG-CC-PVTZ
    Blend: AUG-CC-PVTZ
  Basis Set: (AUG-CC-PVTZ AUX)
    Blend: AUG-CC-PVTZ-JKFIT

    Orbital Energies [Eh]
    ---------------------

    Doubly Occupied:

       1A    -20.570884     2A     -1.352152     3A     -0.703148
       4A     -0.590915     5A     -0.510837

  @DF-RHF Final Energy:   -76.05628295509651

   => Energetics <=

    Nuclear Repulsion Energy =              9.1070976602305063
    One-Electron Energy =                -122.8708859416493340
    Two-Electron Energy =                  37.7075053263223197
    Total Energy =                        -76.0562829550965063
 Dipole X            :         10.2934284           -9.6419912            0.6514372
 Dipole Y            :        -53.3196808           52.8361453           -0.4835355
 Dipole Z            :        -29.3214321           29.3774046            0.0559724
 Magnitude           :                                                    0.8132097
  Basis Set: (AUG-CC-PVTZ AUX)
    Blend: AUG-CC-PVTZ-RI
	 Reference Energy          =     -76.0562829550965063 [Eh]
	 Singles Energy            =      -0.0000000000000000 [Eh]
	 Same-Spin Energy          =      -0.0686939428837909 [Eh]
	 Opposite-Spin Energy      =      -0.2169084034483973 [Eh]
	 Correlation Energy        =      -0.2856023463321882 [Eh]
	 Total Energy              =     -76.3418853014286896 [Eh]

	 ================> DF-SCS-MP2 Energies <==================
	-----------------------------------------------------------
	 SCS Same-Spin Scale       =       0.3333333333333333 [-]
	 SCS Opposite-Spin Scale   =       1.2000000000000000 [-]
	 SCS Same-Spin Energy      =      -0.0228979809612636 [Eh]
	 SCS Opposite-Spin Energy  =      -0.2602900841380767 [Eh]
	 SCS Correlation Energy    =      -0.2831880650993404 [Eh]
	 SCS Total Energy          =     -76.3394710201958446 [Eh]
	-----------------------------------------------------------

*** Psi4 exiting successfully. Buy a developer a beer!
