                               Psi4 1.8.2 release

  ==> Input File <==

--------------------------------------------------------------------------
MEMORY 60 GB

molecule dimer {
-1 1
Br         0.000000     0.000000     0.000000
O          0.691227    -2.051459    -2.490181
H          1.361630    -1.712435    -3.078251
H          0.625590    -1.299494    -1.855394
O         -2.617496     0.305919     2.221716
H         -1.890149     0.159326     1.576929
H         -3.420818     0.158676     1.729850
O          2.189098    -1.640069     1.867177
H          1.995566    -1.634790     2.835847
H          1.377796    -1.359444     1.357208
O         -0.250879     1.231325    -3.139368
H         -0.559172     0.860686    -2.271953
H         -0.247851     2.149150    -2.941606
O          2.739667     2.233295    -0.788962
H          2.626840     1.471708    -0.259006
H          3.398173     1.947219    -1.438041

units ang
no_reorient
no_com
symmetry c1
}

set {
basis        aug-cc-pVTZ
scf_type     df
}

energy("mp2")
--------------------------------------------------------------------------

    Molecular point group: c1

    Geometry (in Angstrom), charge = -1, multiplicity = 1:

       Center              X                  Y                   Z               Mass
    ------------   -----------------  -----------------  -----------------  -----------------
         BR           0.000000000000     0.000000000000     0.000000000000    78.918337600000
         O            0.691227000000    -2.051459000000    -2.490181000000    15.994914619570
         H            1.361630000000    -1.712435000000    -3.078251000000     1.007825032230
         H            0.625590000000    -1.299494000000    -1.855394000000     1.007825032230
         O           -2.617496000000     0.305919000000     2.221716000000    15.994914619570
         H           -1.890149000000     0.159326000000     1.576929000000     1.007825032230
         H           -3.420818000000     0.158676000000     1.729850000000     1.007825032230
         O            2.189098000000    -1.640069000000     1.867177000000    15.994914619570
         H            1.995566000000    -1.634790000000     2.835847000000     1.007825032230
         H            1.377796000000    -1.359444000000     1.357208000000     1.007825032230
         O           -0.250879000000     1.231325000000    -3.139368000000    15.994914619570
         H           -0.559172000000     0.860686000000    -2.271953000000     1.007825032230
         H           -0.247851000000     2.149150000000    -2.941606000000     1.007825032230
         O            2.739667000000     2.233295000000    -0.788962000000    15.994914619570
         H            2.626840000000     1.471708000000    -0.259006000000     1.007825032230
         H            3.398173000000     1.947219000000    -1.438041000000     1.007825032230

  Charge       = -1
  Multiplicity = 1
  Basis Set: AUG-CC-PVTZ
    Blend: AUG-CC-PVTZ
  Basis Set: (AUG-CC-PVTZ AUX)
    Blend: AUG-CC-PVTZ-JKFIT

    Orbital Energies [Eh]
    ---------------------

    Doubly Occupied:

       1A   -489.791788     2A    -64.932341     3A    -58.286844
       4A    -58.286827     5A    -58.286789     6A    -20.440388
       7A    -20.425189     8A    -20.421898     9A    -20.421283
      10A    -20.410631    11A     -9.604751    12A     -7.212424
      13A     -7.212368    14A     -7.211967    15A     -2.954143
      16A     -2.954138    17A     -2.953675    18A     -2.953620
      19A     -2.953480    20A     -1.232243    21A     -1.208289
      22A     -1.207440    23A     -1.194075    24A     -1.186879
      25A     -0.772688    26A     -0.591949    27A     -0.573872
      28A     -0.564924    29A     -0.561184    30A     -0.546859
      31A     -0.465412    32A     -0.450841    33A     -0.445428
      34A     -0.438936    35A     -0.426413    36A     -0.387088
      37A     -0.369708    38A     -0.366944    39A     -0.361081
      40A     -0.354380    41A     -0.221633    42A     -0.220806
      43A     -0.214529

  @DF-RHF Final Energy: -2952.87426967940837

   => Energetics <=

    Nuclear Repulsion Energy =            431.3934019241834221
    One-Electron Energy =               -4984.3790450690667058
    Two-Electron Energy =                1600.1113734654752534
    Total Energy =                      -2952.8742696794079166
 Dipole X            :        -51.8107467           51.5527510           -0.2579957
 Dipole Y            :         -2.0259904            2.5940082            0.5680177
 Dipole Z            :         43.7564286          -43.4284783            0.3279503
 Magnitude           :                                                    0.7048101
  Basis Set: (AUG-CC-PVTZ AUX)
    Blend: AUG-CC-PVTZ-RI
	 Reference Energy          =   -2952.8742696794083713 [Eh]
	 Singles Energy            =      -0.0000000000000000 [Eh]
	 Same-Spin Energy          =      -0.4448277998498924 [Eh]
	 Opposite-Spin Energy      =      -1.3023542263286696 [Eh]
	 Correlation Energy        =      -1.7471820261785620 [Eh]
	 Total Energy              =   -2954.6214517055868782 [Eh]

	 ================> DF-SCS-MP2 Energies <==================
	-----------------------------------------------------------
	 SCS Same-Spin Scale       =       0.3333333333333333 [-]
	 SCS Opposite-Spin Scale   =       1.2000000000000000 [-]
	 SCS Same-Spin Energy      =      -0.1482759332832975 [Eh]
	 SCS Opposite-Spin Energy  =      -1.5628250715944034 [Eh]
	 SCS Correlation Energy    =      -1.7111010048777009 [Eh]
	 SCS Total Energy          =   -2954.5853706842858628 [Eh]
	-----------------------------------------------------------

*** Psi4 exiting successfully. Buy a developer a beer!
