                               Psi4 1.8.2 release

  ==> Input File <==

--------------------------------------------------------------------------
MEMORY 60 GB

molecule dimer {
0 1
Gh(Br)     0.000000     0.000000     0.000000
O          1.933199     1.986490     1.808234
H          1.215137     1.668912     1.233648
H          2.279603     2.831188     1.447197
Gh(O)     -2.110295     2.665636     0.091665
Gh(H)     -1.505616     1.895002     0.152179
Gh(H)     -1.513127     3.456853    -0.085606
Gh(O)      0.395690    -0.651139     3.487777
Gh(H)      0.093477    -0.316228     2.602410
Gh(H)      0.310350    -1.614550     3.373877

units ang
no_reorient
no_com
symmetry c1
}

set {
basis        aug-cc-pVTZ
scf_type     df
}

energy("mp2")
--------------------------------------------------------------------------

    Molecular point group: c1

    Geometry (in Angstrom), charge = 0, multiplicity = 1:

       Center              X                  Y                   Z               Mass
    ------------   -----------------  -----------------  -----------------  -----------------
      Gh(BR)          0.000000000000     0.000000000000     0.000000000000    78.918337600000
         O            1.933199000000     1.986490000000     1.808234000000    15.994914619570
         H            1.215137000000     1.668912000000     1.233648000000     1.007825032230
         H            2.279603000000     2.831188000000     1.447197000000     1.007825032230
      Gh(O)          -2.110295000000     2.665636000000     0.091665000000    15.994914619570
      Gh(H)          -1.505616000000     1.895002000000     0.152179000000     1.007825032230
      Gh(H)          -1.513127000000     3.456853000000    -0.085606000000     1.007825032230
      Gh(O)           0.395690000000    -0.651139000000     3.487777000000    15.994914619570
      Gh(H)           0.093477000000    -0.316228000000     2.602410000000     1.007825032230
      Gh(H)           0.310350000000    -1.614550000000     3.373877000000     1.007825032230

  Charge       = 0
  Multiplicity = 1
  Basis Set: AUG-CC-PVTZ
    Blend: AUG-CC-PVTZ
  Basis Set: (AUG-CC-PVTZ AUX)
    Blend: AUG-CC-PVTZ-JKFIT

    Orbital Energies [Eh]
    ---------------------

    Doubly Occupied:

       1A    -20.568595     2A     -1.340443     3A     -0.714861
       4A     -0.572576     5A     -0.507355

  @DF-RHF Final Energy:   -76.05817483238430

   => Energetics <=

    Nuclear Repulsion Energy =              8.9959234253893587
    One-Electron Energy =                -122.7005327336760843
    Two-Electron Energy =                  37.6464344759024243
    Total Energy =                        -76.0581748323842959
 Dipole X            :        -36.0784466           35.8298347           -0.2486119
 Dipole Y            :        -38.1853405           38.5353329            0.3499925
 Dipole Z            :        -33.0260755           32.4025991           -0.6234764
 Magnitude           :                                                    0.7569844
  Basis Set: (AUG-CC-PVTZ AUX)
    Blend: AUG-CC-PVTZ-RI
	 Reference Energy          =     -76.0581748323842959 [Eh]
	 Singles Energy            =      -0.0000000000000000 [Eh]
	 Same-Spin Energy          =      -0.0686695500996352 [Eh]
	 Opposite-Spin Energy      =      -0.2165237942397059 [Eh]
	 Correlation Energy        =      -0.2851933443393411 [Eh]
	 Total Energy              =     -76.3433681767236436 [Eh]

	 ================> DF-SCS-MP2 Energies <==================
	-----------------------------------------------------------
	 SCS Same-Spin Scale       =       0.3333333333333333 [-]
	 SCS Opposite-Spin Scale   =       1.2000000000000000 [-]
	 SCS Same-Spin Energy      =      -0.0228898500332117 [Eh]
	 SCS Opposite-Spin Energy  =      -0.2598285530876471 [Eh]
	 SCS Correlation Energy    =      -0.2827184031208588 [Eh]
	 SCS Total Energy          =     -76.3408932355051491 [Eh]
	-----------------------------------------------------------

*** Psi4 exiting successfully. Buy a developer a beer!
