                               Psi4 1.8.2 release

  ==> Input File <==

--------------------------------------------------------------------------
MEMORY 60 GB

molecule dimer {
0 1
Gh(Br)     0.000000     0.000000     0.000000
Gh(O)      1.214755     2.032402     2.352565
Gh(H)      0.843379     1.290858     1.788319
Gh(H)      2.176535     2.115299     2.233161
Gh(O)     -1.899098     2.893105     0.263373
Gh(H)     -2.377616     3.120026    -0.530168
Gh(H)     -1.651951     1.952131     0.230723
Gh(O)      1.184394     2.722133    -1.786102
Gh(H)      0.888960     1.954533    -1.303810
Gh(H)      0.985690     3.441294    -1.194986
O         -3.316529    -1.099441    -0.081057
H         -2.506499    -0.600404    -0.183707
H         -3.485828    -1.108557     0.900656

units ang
no_reorient
no_com
symmetry c1
}

set {
basis        aug-cc-pVTZ
scf_type     df
}

energy("mp2")
--------------------------------------------------------------------------

    Molecular point group: c1

    Geometry (in Angstrom), charge = 0, multiplicity = 1:

       Center              X                  Y                   Z               Mass
    ------------   -----------------  -----------------  -----------------  -----------------
      Gh(BR)          0.000000000000     0.000000000000     0.000000000000    78.918337600000
      Gh(O)           1.214755000000     2.032402000000     2.352565000000    15.994914619570
      Gh(H)           0.843379000000     1.290858000000     1.788319000000     1.007825032230
      Gh(H)           2.176535000000     2.115299000000     2.233161000000     1.007825032230
      Gh(O)          -1.899098000000     2.893105000000     0.263373000000    15.994914619570
      Gh(H)          -2.377616000000     3.120026000000    -0.530168000000     1.007825032230
      Gh(H)          -1.651951000000     1.952131000000     0.230723000000     1.007825032230
      Gh(O)           1.184394000000     2.722133000000    -1.786102000000    15.994914619570
      Gh(H)           0.888960000000     1.954533000000    -1.303810000000     1.007825032230
      Gh(H)           0.985690000000     3.441294000000    -1.194986000000     1.007825032230
         O           -3.316529000000    -1.099441000000    -0.081057000000    15.994914619570
         H           -2.506499000000    -0.600404000000    -0.183707000000     1.007825032230
         H           -3.485828000000    -1.108557000000     0.900656000000     1.007825032230

  Charge       = 0
  Multiplicity = 1
  Basis Set: AUG-CC-PVTZ
    Blend: AUG-CC-PVTZ
  Basis Set: (AUG-CC-PVTZ AUX)
    Blend: AUG-CC-PVTZ-JKFIT

    Orbital Energies [Eh]
    ---------------------

    Doubly Occupied:

       1A    -20.570348     2A     -1.343981     3A     -0.707860
       4A     -0.580621     5A     -0.508744

  @DF-RHF Final Energy:   -76.05801430215821

   => Energetics <=

    Nuclear Repulsion Energy =              9.0153787567473422
    One-Electron Energy =                -122.7236756852253023
    Two-Electron Energy =                  37.6502826263197363
    Total Energy =                        -76.0580143021582273
 Dipole X            :         61.8886372          -61.4625089            0.4261283
 Dipole Y            :         20.1753983          -19.8506073            0.3247910
 Dipole Z            :          0.4440249            0.1294330            0.5734579
 Magnitude           :                                                    0.7848111
  Basis Set: (AUG-CC-PVTZ AUX)
    Blend: AUG-CC-PVTZ-RI
	 Reference Energy          =     -76.0580143021582131 [Eh]
	 Singles Energy            =      -0.0000000000000000 [Eh]
	 Same-Spin Energy          =      -0.0687039015499975 [Eh]
	 Opposite-Spin Energy      =      -0.2167317050356964 [Eh]
	 Correlation Energy        =      -0.2854356065856939 [Eh]
	 Total Energy              =     -76.3434499087439065 [Eh]

	 ================> DF-SCS-MP2 Energies <==================
	-----------------------------------------------------------
	 SCS Same-Spin Scale       =       0.3333333333333333 [-]
	 SCS Opposite-Spin Scale   =       1.2000000000000000 [-]
	 SCS Same-Spin Energy      =      -0.0229013005166658 [Eh]
	 SCS Opposite-Spin Energy  =      -0.2600780460428357 [Eh]
	 SCS Correlation Energy    =      -0.2829793465595015 [Eh]
	 SCS Total Energy          =     -76.3409936487177134 [Eh]
	-----------------------------------------------------------

*** Psi4 exiting successfully. Buy a developer a beer!
