                               Psi4 1.8.2 release

  ==> Input File <==

--------------------------------------------------------------------------
MEMORY 60 GB

molecule dimer {
-1 1
Br         0.000000     0.000000     0.000000
O         -2.548049    -2.354520     0.519339
H         -2.666770    -2.821685    -0.323927
H         -1.695142    -1.848878     0.456973
O         -1.457981     0.902302     2.719317
H         -1.294948     0.555730     1.798206
H         -0.692664     1.324571     3.139780
O         -3.298663     0.026340    -1.099442
H         -2.351904     0.032069    -0.730133
H         -3.819150     0.744102    -0.672524
O          3.011971     1.575496    -0.920955
H          2.415873     2.197453    -0.478182
H          3.797578     1.977003    -0.551870
O          0.351201    -2.642806    -2.030331
H          0.280321    -2.081072    -1.262730
H          0.561185    -3.499150    -1.619153

units ang
no_reorient
no_com
symmetry c1
}

set {
basis        aug-cc-pVTZ
scf_type     df
}

energy("mp2")
--------------------------------------------------------------------------

    Molecular point group: c1

    Geometry (in Angstrom), charge = -1, multiplicity = 1:

       Center              X                  Y                   Z               Mass
    ------------   -----------------  -----------------  -----------------  -----------------
         BR           0.000000000000     0.000000000000     0.000000000000    78.918337600000
         O           -2.548049000000    -2.354520000000     0.519339000000    15.994914619570
         H           -2.666770000000    -2.821685000000    -0.323927000000     1.007825032230
         H           -1.695142000000    -1.848878000000     0.456973000000     1.007825032230
         O           -1.457981000000     0.902302000000     2.719317000000    15.994914619570
         H           -1.294948000000     0.555730000000     1.798206000000     1.007825032230
         H           -0.692664000000     1.324571000000     3.139780000000     1.007825032230
         O           -3.298663000000     0.026340000000    -1.099442000000    15.994914619570
         H           -2.351904000000     0.032069000000    -0.730133000000     1.007825032230
         H           -3.819150000000     0.744102000000    -0.672524000000     1.007825032230
         O            3.011971000000     1.575496000000    -0.920955000000    15.994914619570
         H            2.415873000000     2.197453000000    -0.478182000000     1.007825032230
         H            3.797578000000     1.977003000000    -0.551870000000     1.007825032230
         O            0.351201000000    -2.642806000000    -2.030331000000    15.994914619570
         H            0.280321000000    -2.081072000000    -1.262730000000     1.007825032230
         H            0.561185000000    -3.499150000000    -1.619153000000     1.007825032230

  Charge       = -1
  Multiplicity = 1
  Basis Set: AUG-CC-PVTZ
    Blend: AUG-CC-PVTZ
  Basis Set: (AUG-CC-PVTZ AUX)
    Blend: AUG-CC-PVTZ-JKFIT

    Orbital Energies [Eh]
    ---------------------

    Doubly Occupied:

       1A   -489.784155     2A    -64.924667     3A    -58.279167
       4A    -58.279151     5A    -58.279101     6A    -20.456110
       7A    -20.421580     8A    -20.408796     9A    -20.407870
      10A    -20.404344    11A     -9.597081    12A     -7.204701
      13A     -7.204624    14A     -7.204339    15A     -2.946409
      16A     -2.946390    17A     -2.946041    18A     -2.945940
      19A     -2.945846    20A     -1.242724    21A     -1.207398
      22A     -1.182694    23A     -1.176825    24A     -1.169510
      25A     -0.764558    26A     -0.574900    27A     -0.567249
      28A     -0.562490    29A     -0.553990    30A     -0.544630
      31A     -0.488107    32A     -0.447805    33A     -0.421237
      34A     -0.412169    35A     -0.409592    36A     -0.396124
      37A     -0.365958    38A     -0.363134    39A     -0.348299
      40A     -0.333011    41A     -0.213165    42A     -0.211493
      43A     -0.206934

  @DF-RHF Final Energy: -2952.84905728659942

   => Energetics <=

    Nuclear Repulsion Energy =            435.0824681886940652
    One-Electron Energy =               -4992.3624204427087534
    Two-Electron Energy =                1604.4308949674150426
    Total Energy =                      -2952.8490572865994181
 Dipole X            :         72.2035930          -69.9156885            2.2879045
 Dipole Y            :         45.4788738          -44.1541331            1.3247406
 Dipole Z            :         13.4186756          -12.7370111            0.6816645
 Magnitude           :                                                    2.7302218
  Basis Set: (AUG-CC-PVTZ AUX)
    Blend: AUG-CC-PVTZ-RI
	 Reference Energy          =   -2952.8490572865994181 [Eh]
	 Singles Energy            =      -0.0000000000000000 [Eh]
	 Same-Spin Energy          =      -0.4462594114291456 [Eh]
	 Opposite-Spin Energy      =      -1.3057783634294415 [Eh]
	 Correlation Energy        =      -1.7520377748585871 [Eh]
	 Total Energy              =   -2954.6010950614581816 [Eh]

	 ================> DF-SCS-MP2 Energies <==================
	-----------------------------------------------------------
	 SCS Same-Spin Scale       =       0.3333333333333333 [-]
	 SCS Opposite-Spin Scale   =       1.2000000000000000 [-]
	 SCS Same-Spin Energy      =      -0.1487531371430485 [Eh]
	 SCS Opposite-Spin Energy  =      -1.5669340361153299 [Eh]
	 SCS Correlation Energy    =      -1.7156871732583785 [Eh]
	 SCS Total Energy          =   -2954.5647444598575930 [Eh]
	-----------------------------------------------------------

*** Psi4 exiting successfully. Buy a developer a beer!
