                               Psi4 1.8.2 release

  ==> Input File <==

--------------------------------------------------------------------------
MEMORY 60 GB

molecule dimer {
0 1
Gh(Br)     0.000000     0.000000     0.000000
O          2.124652     1.964937     2.121179
H          2.172793     1.368654     2.868479
H          1.679122     1.413724     1.418976
Gh(O)      0.104991     3.249169    -0.182748
Gh(H)     -0.717800     3.852559    -0.190945
Gh(H)     -0.198510     2.348694    -0.321779
Gh(O)      2.981573    -1.290363     1.136769
Gh(H)      2.140404    -0.909703     0.930704
Gh(H)      3.672272    -0.882775     0.618927
Gh(O)     -2.479840     1.517813     1.775784
Gh(H)     -2.172611     0.572932     1.816703
Gh(H)     -2.115363     1.956989     2.554860

units ang
no_reorient
no_com
symmetry c1
}

set {
basis        aug-cc-pVTZ
scf_type     df
}

energy("mp2")
--------------------------------------------------------------------------

    Molecular point group: c1

    Geometry (in Angstrom), charge = 0, multiplicity = 1:

       Center              X                  Y                   Z               Mass
    ------------   -----------------  -----------------  -----------------  -----------------
      Gh(BR)          0.000000000000     0.000000000000     0.000000000000    78.918337600000
         O            2.124652000000     1.964937000000     2.121179000000    15.994914619570
         H            2.172793000000     1.368654000000     2.868479000000     1.007825032230
         H            1.679122000000     1.413724000000     1.418976000000     1.007825032230
      Gh(O)           0.104991000000     3.249169000000    -0.182748000000    15.994914619570
      Gh(H)          -0.717800000000     3.852559000000    -0.190945000000     1.007825032230
      Gh(H)          -0.198510000000     2.348694000000    -0.321779000000     1.007825032230
      Gh(O)           2.981573000000    -1.290363000000     1.136769000000    15.994914619570
      Gh(H)           2.140404000000    -0.909703000000     0.930704000000     1.007825032230
      Gh(H)           3.672272000000    -0.882775000000     0.618927000000     1.007825032230
      Gh(O)          -2.479840000000     1.517813000000     1.775784000000    15.994914619570
      Gh(H)          -2.172611000000     0.572932000000     1.816703000000     1.007825032230
      Gh(H)          -2.115363000000     1.956989000000     2.554860000000     1.007825032230

  Charge       = 0
  Multiplicity = 1
  Basis Set: AUG-CC-PVTZ
    Blend: AUG-CC-PVTZ
  Basis Set: (AUG-CC-PVTZ AUX)
    Blend: AUG-CC-PVTZ-JKFIT

    Orbital Energies [Eh]
    ---------------------

    Doubly Occupied:

       1A    -20.571169     2A     -1.344632     3A     -0.704437
       4A     -0.583451     5A     -0.509153

  @DF-RHF Final Energy:   -76.05778564975229

   => Energetics <=

    Nuclear Repulsion Energy =              9.0110510737228484
    One-Electron Energy =                -122.7119877840400477
    Two-Electron Energy =                  37.6431510605649038
    Total Energy =                        -76.0577856497522902
 Dipole X            :        -39.6568335           39.3991475           -0.2576860
 Dipole Y            :        -35.7149664           34.9634747           -0.7514918
 Dipole Z            :        -40.1334811           40.1696947            0.0362137
 Magnitude           :                                                    0.7952694
  Basis Set: (AUG-CC-PVTZ AUX)
    Blend: AUG-CC-PVTZ-RI
	 Reference Energy          =     -76.0577856497522902 [Eh]
	 Singles Energy            =      -0.0000000000000000 [Eh]
	 Same-Spin Energy          =      -0.0687633202437777 [Eh]
	 Opposite-Spin Energy      =      -0.2169392245665809 [Eh]
	 Correlation Energy        =      -0.2857025448103585 [Eh]
	 Total Energy              =     -76.3434881945626529 [Eh]

	 ================> DF-SCS-MP2 Energies <==================
	-----------------------------------------------------------
	 SCS Same-Spin Scale       =       0.3333333333333333 [-]
	 SCS Opposite-Spin Scale   =       1.2000000000000000 [-]
	 SCS Same-Spin Energy      =      -0.0229211067479259 [Eh]
	 SCS Opposite-Spin Energy  =      -0.2603270694798970 [Eh]
	 SCS Correlation Energy    =      -0.2832481762278229 [Eh]
	 SCS Total Energy          =     -76.3410338259801193 [Eh]
	-----------------------------------------------------------

*** Psi4 exiting successfully. Buy a developer a beer!
