                               Psi4 1.8.2 release

  ==> Input File <==

--------------------------------------------------------------------------
MEMORY 60 GB

molecule dimer {
-1 1
Br         0.000000     0.000000     0.000000
Gh(O)     -2.035183     0.505931    -2.714884
Gh(H)     -1.976795     1.463081    -2.600066
Gh(H)     -1.297730     0.131163    -2.176587
Gh(O)      3.263034     0.338969    -1.106453
Gh(H)      2.366786     0.373527    -0.759632
Gh(H)      3.697550     0.015590    -0.296441
Gh(O)      2.178094    -2.034010     1.585940
Gh(H)      1.627600    -1.749935     0.822231
Gh(H)      1.500081    -2.085197     2.285919
Gh(O)      1.183323    -2.765482    -1.699569
Gh(H)      0.620307    -3.433026    -1.331715
Gh(H)      0.809411    -1.929569    -1.365631

units ang
no_reorient
no_com
symmetry c1
}

set {
basis        aug-cc-pVTZ
scf_type     df
}

energy("mp2")
--------------------------------------------------------------------------

    Molecular point group: c1

    Geometry (in Angstrom), charge = -1, multiplicity = 1:

       Center              X                  Y                   Z               Mass
    ------------   -----------------  -----------------  -----------------  -----------------
         BR           0.000000000000     0.000000000000     0.000000000000    78.918337600000
      Gh(O)          -2.035183000000     0.505931000000    -2.714884000000    15.994914619570
      Gh(H)          -1.976795000000     1.463081000000    -2.600066000000     1.007825032230
      Gh(H)          -1.297730000000     0.131163000000    -2.176587000000     1.007825032230
      Gh(O)           3.263034000000     0.338969000000    -1.106453000000    15.994914619570
      Gh(H)           2.366786000000     0.373527000000    -0.759632000000     1.007825032230
      Gh(H)           3.697550000000     0.015590000000    -0.296441000000     1.007825032230
      Gh(O)           2.178094000000    -2.034010000000     1.585940000000    15.994914619570
      Gh(H)           1.627600000000    -1.749935000000     0.822231000000     1.007825032230
      Gh(H)           1.500081000000    -2.085197000000     2.285919000000     1.007825032230
      Gh(O)           1.183323000000    -2.765482000000    -1.699569000000    15.994914619570
      Gh(H)           0.620307000000    -3.433026000000    -1.331715000000     1.007825032230
      Gh(H)           0.809411000000    -1.929569000000    -1.365631000000     1.007825032230

  Charge       = -1
  Multiplicity = 1
  Basis Set: AUG-CC-PVTZ
    Blend: AUG-CC-PVTZ
  Basis Set: (AUG-CC-PVTZ AUX)
    Blend: AUG-CC-PVTZ-JKFIT

    Orbital Energies [Eh]
    ---------------------

    Doubly Occupied:

       1A   -489.721786     2A    -64.861480     3A    -58.216003
       4A    -58.216002     5A    -58.216000     6A     -9.533183
       7A     -7.140524     8A     -7.140517     9A     -7.140504
      10A     -2.882227    11A     -2.882222    12A     -2.882211
      13A     -2.882197    14A     -2.882188    15A     -0.685993
      16A     -0.139337    17A     -0.139335    18A     -0.139333

  @DF-RHF Final Energy: -2572.53371679061456

   => Energetics <=

    Nuclear Repulsion Energy =              0.0000000000000000
    One-Electron Energy =               -3593.6653483740824413
    Two-Electron Energy =                1021.1316315834681063
    Total Energy =                      -2572.5337167906145623
 Dipole X            :          0.0001662            0.0000000            0.0001662
 Dipole Y            :         -0.0000867            0.0000000           -0.0000867
 Dipole Z            :         -0.0003616            0.0000000           -0.0003616
 Magnitude           :                                                    0.0004073
  Basis Set: (AUG-CC-PVTZ AUX)
    Blend: AUG-CC-PVTZ-RI
	 Reference Energy          =   -2572.5337167906145623 [Eh]
	 Singles Energy            =      -0.0000000000000000 [Eh]
	 Same-Spin Energy          =      -0.0902088928498108 [Eh]
	 Opposite-Spin Energy      =      -0.2098416666930106 [Eh]
	 Correlation Energy        =      -0.3000505595428214 [Eh]
	 Total Energy              =   -2572.8337673501573590 [Eh]

	 ================> DF-SCS-MP2 Energies <==================
	-----------------------------------------------------------
	 SCS Same-Spin Scale       =       0.3333333333333333 [-]
	 SCS Opposite-Spin Scale   =       1.2000000000000000 [-]
	 SCS Same-Spin Energy      =      -0.0300696309499369 [Eh]
	 SCS Opposite-Spin Energy  =      -0.2518100000316127 [Eh]
	 SCS Correlation Energy    =      -0.2818796309815496 [Eh]
	 SCS Total Energy          =   -2572.8155964215961831 [Eh]
	-----------------------------------------------------------

*** Psi4 exiting successfully. Buy a developer a beer!
