                               Psi4 1.8.2 release

  ==> Input File <==

--------------------------------------------------------------------------
MEMORY 60 GB

molecule dimer {
0 1
Gh(Br)     0.000000     0.000000     0.000000
Gh(O)      0.779723     2.101047     2.199835
Gh(H)      0.426021     1.474308     1.520328
Gh(H)      0.408280     2.960514     1.936831
Gh(O)      1.680523    -2.227455     1.670762
Gh(H)      1.216158    -1.563865     1.147402
Gh(H)      2.593395    -1.916082     1.738707
O         -2.177205    -0.865000     2.509215
H         -2.496326     0.047270     2.768170
H         -1.471994    -0.874637     1.842706
Gh(O)      3.480100    -0.005299    -0.932052
Gh(H)      2.930060    -0.789766    -1.221807
Gh(H)      3.669445     0.562215    -1.658308

units ang
no_reorient
no_com
symmetry c1
}

set {
basis        aug-cc-pVTZ
scf_type     df
}

energy("mp2")
--------------------------------------------------------------------------

    Molecular point group: c1

    Geometry (in Angstrom), charge = 0, multiplicity = 1:

       Center              X                  Y                   Z               Mass
    ------------   -----------------  -----------------  -----------------  -----------------
      Gh(BR)          0.000000000000     0.000000000000     0.000000000000    78.918337600000
      Gh(O)           0.779723000000     2.101047000000     2.199835000000    15.994914619570
      Gh(H)           0.426021000000     1.474308000000     1.520328000000     1.007825032230
      Gh(H)           0.408280000000     2.960514000000     1.936831000000     1.007825032230
      Gh(O)           1.680523000000    -2.227455000000     1.670762000000    15.994914619570
      Gh(H)           1.216158000000    -1.563865000000     1.147402000000     1.007825032230
      Gh(H)           2.593395000000    -1.916082000000     1.738707000000     1.007825032230
         O           -2.177205000000    -0.865000000000     2.509215000000    15.994914619570
         H           -2.496326000000     0.047270000000     2.768170000000     1.007825032230
         H           -1.471994000000    -0.874637000000     1.842706000000     1.007825032230
      Gh(O)           3.480100000000    -0.005299000000    -0.932052000000    15.994914619570
      Gh(H)           2.930060000000    -0.789766000000    -1.221807000000     1.007825032230
      Gh(H)           3.669445000000     0.562215000000    -1.658308000000     1.007825032230

  Charge       = 0
  Multiplicity = 1
  Basis Set: AUG-CC-PVTZ
    Blend: AUG-CC-PVTZ
  Basis Set: (AUG-CC-PVTZ AUX)
    Blend: AUG-CC-PVTZ-JKFIT

    Orbital Energies [Eh]
    ---------------------

    Doubly Occupied:

       1A    -20.566914     2A     -1.332964     3A     -0.720027
       4A     -0.560029     5A     -0.504759

  @DF-RHF Final Energy:   -76.05450215464182

   => Energetics <=

    Nuclear Repulsion Energy =              8.9124115647271847
    One-Electron Energy =                -122.5644359358811784
    Two-Electron Energy =                  37.5975222165121821
    Total Energy =                        -76.0545021546418241
 Dipole X            :         40.6766695          -40.4136073            0.2630622
 Dipole Y            :         15.2479642          -14.6404018            0.6075624
 Dipole Z            :        -46.9245049           46.6471260           -0.2773789
 Magnitude           :                                                    0.7178251
  Basis Set: (AUG-CC-PVTZ AUX)
    Blend: AUG-CC-PVTZ-RI
	 Reference Energy          =     -76.0545021546418241 [Eh]
	 Singles Energy            =      -0.0000000000000000 [Eh]
	 Same-Spin Energy          =      -0.0687785970805945 [Eh]
	 Opposite-Spin Energy      =      -0.2168039553398860 [Eh]
	 Correlation Energy        =      -0.2855825524204805 [Eh]
	 Total Energy              =     -76.3400847070623030 [Eh]

	 ================> DF-SCS-MP2 Energies <==================
	-----------------------------------------------------------
	 SCS Same-Spin Scale       =       0.3333333333333333 [-]
	 SCS Opposite-Spin Scale   =       1.2000000000000000 [-]
	 SCS Same-Spin Energy      =      -0.0229261990268648 [Eh]
	 SCS Opposite-Spin Energy  =      -0.2601647464078632 [Eh]
	 SCS Correlation Energy    =      -0.2830909454347281 [Eh]
	 SCS Total Energy          =     -76.3375931000765462 [Eh]
	-----------------------------------------------------------

*** Psi4 exiting successfully. Buy a developer a beer!
