                               Psi4 1.9 release

  ==> Input File <==

--------------------------------------------------------------------------
MEMORY 60 GB

molecule dimer {
-1 1
Br     0.000000     0.000000     0.000000
--
0 1
O     -0.287333     2.284328    -2.676686
H     -1.189125     2.076961    -2.470743
H     -0.308977     3.169615    -2.898919
O     -1.718717     2.800508     0.791810
H     -2.180920     2.574620     1.591008
H     -0.948950     2.241505     0.681251
O     -2.250627    -0.708753     2.444791
H     -1.797196    -0.353230     1.633466
H     -2.625319    -0.031601     3.013515
O     -2.337161    -0.758344    -2.197429
H     -1.490115    -0.559072    -1.771491
H     -2.455913     0.011097    -2.808030
O      1.696005     2.609774    -0.856759
H      0.957190     2.071096    -1.210993
H      1.833312     3.412589    -1.305303
O      1.181919     0.124288    -3.224854
H      1.566148    -0.220066    -2.442840
H      0.740878     0.911603    -2.939958
O     -0.730787    -3.301075    -0.609983
H     -0.652545    -2.326531    -0.429398
H     -0.243929    -3.672456     0.120854

units ang
no_reorient
no_com
symmetry c1
}

set {
basis        aug-cc-pVTZ
scf_type     df
}

energy("mp2", bsse_type="cp")
--------------------------------------------------------------------------

                               Psi4 1.9 release
    Molecular point group: c1
  Charge       = 0
  Multiplicity = 1
  Basis Set: AUG-CC-PVTZ
    Blend: AUG-CC-PVTZ
  Basis Set: (AUG-CC-PVTZ AUX)
    Blend: AUG-CC-PVTZ-JKFIT
  @DF-RHF Final Energy:  -532.39742608159736
    Total Energy =                       -532.3974260815973594
 Dipole X            :         83.6365186          -83.8453889           -0.2088702
 Dipole Y            :        -61.4505660           63.7063300            2.2557640
 Dipole Z            :        117.6967411         -116.9182265            0.7785145
 Magnitude           :                                                    2.3954504
  Basis Set: (AUG-CC-PVTZ AUX)
    Blend: AUG-CC-PVTZ-RI
	 Reference Energy          =    -532.3974260815973594 [Eh]
	 Singles Energy            =      -0.0000000000000000 [Eh]
	 Same-Spin Energy          =      -0.4852140312599141 [Eh]
	 Opposite-Spin Energy      =      -1.5179715093987349 [Eh]
	 Correlation Energy        =      -2.0031855406586492 [Eh]
	 Total Energy              =    -534.4006116222560649 [Eh]
	 SCS Total Energy          =    -534.3807299032957872 [Eh]
                               Psi4 1.9 release
    Molecular point group: c1
  Multiplicity = 1
  Basis Set: AUG-CC-PVTZ
    Blend: AUG-CC-PVTZ
  Basis Set: (AUG-CC-PVTZ AUX)
    Blend: AUG-CC-PVTZ-JKFIT
  @DF-RHF Final Energy: -2572.53374161235024
    Total Energy =                      -2572.5337416123502408
  Basis Set: (AUG-CC-PVTZ AUX)
	 Singles Energy            =      -0.0000000000000000 [Eh]
	 Same-Spin Energy          =      -0.0921107517767246 [Eh]
	 Opposite-Spin Energy      =      -0.2145228743268819 [Eh]
	 Correlation Energy        =      -0.3066336261036066 [Eh]
	 Total Energy              =   -2572.8403752384538166 [Eh]
	 SCS Total Energy          =   -2572.8218726454679199 [Eh]
                               Psi4 1.9 release
    Molecular point group: c1

    Geometry (in Bohr), charge = -1, multiplicity = 1:

       Center              X                  Y                   Z               Mass
    ------------   -----------------  -----------------  -----------------  -----------------
         BR           0.000000000000     0.000000000000     0.000000000000    78.918337600000
         O           -0.542980676806     4.316754300715    -5.058203463847    15.994914619570
         H           -2.247120578935     3.924887463257    -4.669027596392     1.007825032230
         H           -0.583881909066     5.989704273143    -5.478162969886     1.007825032230
         O           -3.247904417169     5.292193132154     1.496304043399    15.994914619570
         H           -4.121341501533     4.865326677126     3.006569383412     1.007825032230
         H           -1.793255606753     4.235830558844     1.287377812694     1.007825032230
         O           -4.253068640561    -1.339349060597     4.619985423984    15.994914619570
         H           -3.396208233768    -0.667507959295     3.086803375247     1.007825032230
         H           -4.961133901961    -0.059717235291     5.694718024959     1.007825032230
         O           -4.416594201101    -1.433062468884    -4.152538990139    15.994914619570
         H           -2.815909245437    -1.056492964412    -3.347632823713     1.007825032230
         H           -4.641002957952     0.020970290814    -5.306407652069     1.007825032230
         O            3.204984957407     4.931758109341    -1.619039865521    15.994914619570
         H            1.808826950027     3.913804219531    -2.288445109847     1.007825032230
         H            3.464457582515     6.448858588750    -2.466665180738     1.007825032230
         O            2.233503212475     0.234870280681    -6.094090854587    15.994914619570
         H            2.959590791934    -0.415864469525    -4.616298568313     1.007825032230
         H            1.400056512377     1.722680005146    -5.555715440349     1.007825032230
         O           -1.380987286045    -6.238127669596    -1.152700811185    15.994914619570
         H           -1.233131334537    -4.396506412388    -0.811444618819     1.007825032230
         H           -0.460959004057    -6.939936047794     0.228380961166     1.007825032230

  Charge       = -1
  Multiplicity = 1
  Basis Set: AUG-CC-PVTZ
    Blend: AUG-CC-PVTZ
  Basis Set: (AUG-CC-PVTZ AUX)
    Blend: AUG-CC-PVTZ-JKFIT

    Orbital Energies [Eh]
    ---------------------

    Doubly Occupied:

       1A   -489.792979     2A    -64.933666     3A    -58.288157
       4A    -58.288133     5A    -58.288126     6A    -20.490879
       7A    -20.434292     8A    -20.425464     9A    -20.420303
      10A    -20.417029    11A    -20.409992    12A    -20.398637
      13A     -9.606144    14A     -7.213794    15A     -7.213668
      16A     -7.213548    17A     -2.955367    18A     -2.955337
      19A     -2.955224    20A     -2.955058    21A     -2.955038
      22A     -1.306683    23A     -1.224298    24A     -1.209606
      25A     -1.202846    26A     -1.199862    27A     -1.196310
      28A     -1.189749    29A     -0.777071    30A     -0.666769
      31A     -0.611433    32A     -0.604476    33A     -0.589747
      34A     -0.585931    35A     -0.559160    36A     -0.544340
      37A     -0.517140    38A     -0.462842    39A     -0.452620
      40A     -0.440043    41A     -0.433196    42A     -0.428512
      43A     -0.427060    44A     -0.410173    45A     -0.383608
      46A     -0.368455    47A     -0.368227    48A     -0.362339
      49A     -0.352493    50A     -0.351612    51A     -0.224339
      52A     -0.222723    53A     -0.219093

  @DF-RHF Final Energy: -3104.98036050916153

   => Energetics <=

    Nuclear Repulsion Energy =            713.8168355570822996
    One-Electron Energy =               -5760.5871997567182916
    Two-Electron Energy =                1941.7900036904743502
    Total Energy =                      -3104.9803605091615282
 Dipole X            :         84.2788176          -83.8453889            0.4334287
 Dipole Y            :        -61.5326574           63.7063300            2.1736726
 Dipole Z            :        118.0113559         -116.9182265            1.0931294
 Magnitude           :                                                    2.4713650
  Basis Set: (AUG-CC-PVTZ AUX)
    Blend: AUG-CC-PVTZ-RI
	 Reference Energy          =   -3104.9803605091615282 [Eh]
	 Singles Energy            =      -0.0000000000000000 [Eh]
	 Same-Spin Energy          =      -0.5895290352572841 [Eh]
	 Opposite-Spin Energy      =      -1.7425249747167788 [Eh]
	 Correlation Energy        =      -2.3320540099740628 [Eh]
	 Total Energy              =   -3107.3124145191354728 [Eh]

	 ================> DF-SCS-MP2 Energies <==================
	-----------------------------------------------------------
	 SCS Same-Spin Scale       =       0.3333333333333333 [-]
	 SCS Opposite-Spin Scale   =       1.2000000000000000 [-]
	 SCS Same-Spin Energy      =      -0.1965096784190947 [Eh]
	 SCS Opposite-Spin Energy  =      -2.0910299696601347 [Eh]
	 SCS Correlation Energy    =      -2.2875396480792292 [Eh]
	 SCS Total Energy          =   -3107.2679001572405468 [Eh]
	-----------------------------------------------------------

*** Psi4 exiting successfully. Buy a developer a beer!
