                               Psi4 1.8.2 release

  ==> Input File <==

--------------------------------------------------------------------------
MEMORY 60 GB

molecule dimer {
-1 1
Br         0.000000     0.000000     0.000000
Gh(O)      0.475829    -3.025000    -1.272041
Gh(H)      0.055212    -3.372620    -0.471336
Gh(H)      0.533315    -2.072946    -1.193364
Gh(O)      1.556372    -1.998430     2.295902
Gh(H)      1.091818    -1.647091     1.556228
Gh(H)      1.428739    -1.429902     3.042221
Gh(O)     -1.645126    -1.882973     1.903576
Gh(H)     -1.530895    -2.707178     1.398897
Gh(H)     -1.093437    -1.199086     1.499601
Gh(O)      1.518153     2.079534     2.428210
Gh(H)      1.233613     2.008716     3.366920
Gh(H)      1.307645     1.205860     1.999083

units ang
no_reorient
no_com
symmetry c1
}

set {
basis        aug-cc-pVTZ
scf_type     df
}

energy("mp2")
--------------------------------------------------------------------------

    Molecular point group: c1

    Geometry (in Angstrom), charge = -1, multiplicity = 1:

       Center              X                  Y                   Z               Mass
    ------------   -----------------  -----------------  -----------------  -----------------
         BR           0.000000000000     0.000000000000     0.000000000000    78.918337600000
      Gh(O)           0.475829000000    -3.025000000000    -1.272041000000    15.994914619570
      Gh(H)           0.055212000000    -3.372620000000    -0.471336000000     1.007825032230
      Gh(H)           0.533315000000    -2.072946000000    -1.193364000000     1.007825032230
      Gh(O)           1.556372000000    -1.998430000000     2.295902000000    15.994914619570
      Gh(H)           1.091818000000    -1.647091000000     1.556228000000     1.007825032230
      Gh(H)           1.428739000000    -1.429902000000     3.042221000000     1.007825032230
      Gh(O)          -1.645126000000    -1.882973000000     1.903576000000    15.994914619570
      Gh(H)          -1.530895000000    -2.707178000000     1.398897000000     1.007825032230
      Gh(H)          -1.093437000000    -1.199086000000     1.499601000000     1.007825032230
      Gh(O)           1.518153000000     2.079534000000     2.428210000000    15.994914619570
      Gh(H)           1.233613000000     2.008716000000     3.366920000000     1.007825032230
      Gh(H)           1.307645000000     1.205860000000     1.999083000000     1.007825032230

  Charge       = -1
  Multiplicity = 1
  Basis Set: AUG-CC-PVTZ
    Blend: AUG-CC-PVTZ
  Basis Set: (AUG-CC-PVTZ AUX)
    Blend: AUG-CC-PVTZ-JKFIT

    Orbital Energies [Eh]
    ---------------------

    Doubly Occupied:

       1A   -489.721943     2A    -64.861589     3A    -58.216118
       4A    -58.216117     5A    -58.216115     6A     -9.533219
       7A     -7.140559     8A     -7.140545     9A     -7.140542
      10A     -2.882262    11A     -2.882259    12A     -2.882250
      13A     -2.882238    14A     -2.882224    15A     -0.685993
      16A     -0.139338    17A     -0.139336    18A     -0.139334

  @DF-RHF Final Energy: -2572.53372080006102

   => Energetics <=

    Nuclear Repulsion Energy =              0.0000000000000000
    One-Electron Energy =               -3593.6634840915862696
    Two-Electron Energy =                1021.1297632915247959
    Total Energy =                      -2572.5337208000614737
 Dipole X            :          0.0002582            0.0000000            0.0002582
 Dipole Y            :         -0.0000441            0.0000000           -0.0000441
 Dipole Z            :          0.0001564            0.0000000            0.0001564
 Magnitude           :                                                    0.0003051
  Basis Set: (AUG-CC-PVTZ AUX)
    Blend: AUG-CC-PVTZ-RI
	 Reference Energy          =   -2572.5337208000610190 [Eh]
	 Singles Energy            =      -0.0000000000000000 [Eh]
	 Same-Spin Energy          =      -0.0906259149667303 [Eh]
	 Opposite-Spin Energy      =      -0.2109656605207115 [Eh]
	 Correlation Energy        =      -0.3015915754874418 [Eh]
	 Total Energy              =   -2572.8353123755482557 [Eh]

	 ================> DF-SCS-MP2 Energies <==================
	-----------------------------------------------------------
	 SCS Same-Spin Scale       =       0.3333333333333333 [-]
	 SCS Opposite-Spin Scale   =       1.2000000000000000 [-]
	 SCS Same-Spin Energy      =      -0.0302086383222434 [Eh]
	 SCS Opposite-Spin Energy  =      -0.2531587926248538 [Eh]
	 SCS Correlation Energy    =      -0.2833674309470972 [Eh]
	 SCS Total Energy          =   -2572.8170882310082561 [Eh]
	-----------------------------------------------------------

*** Psi4 exiting successfully. Buy a developer a beer!
