                               Psi4 1.8.2 release

  ==> Input File <==

--------------------------------------------------------------------------
MEMORY 60 GB

molecule dimer {
0 1
Gh(Br)     0.000000     0.000000     0.000000
Gh(O)      2.811524     1.249320    -1.388987
Gh(H)      1.946830     1.247401    -0.997053
Gh(H)      3.333840     0.621936    -0.862941
Gh(O)      0.730217    -0.632562    -3.163435
Gh(H)      0.536797    -0.243198    -2.271879
Gh(H)     -0.106351    -1.015408    -3.475712
Gh(O)      0.512458    -2.117774     2.783375
Gh(H)     -0.374234    -2.073142     3.177067
Gh(H)      0.435196    -1.601621     1.947776
Gh(O)     -2.791734     2.004077    -0.136779
Gh(H)     -2.751611     2.294819    -1.051084
Gh(H)     -2.113860     2.543174     0.294439
Gh(O)      1.179334    -3.203196    -0.267623
Gh(H)      1.473685    -3.396931    -1.169483
Gh(H)      0.786142    -2.333499    -0.274332
O          2.267015     1.055756     2.263133
H          1.546156     0.892135     2.866249
H          2.080614     0.524899     1.492348

units ang
no_reorient
no_com
symmetry c1
}

set {
basis        aug-cc-pVTZ
scf_type     df
}

energy("mp2")
--------------------------------------------------------------------------

    Molecular point group: c1

    Geometry (in Angstrom), charge = 0, multiplicity = 1:

       Center              X                  Y                   Z               Mass
    ------------   -----------------  -----------------  -----------------  -----------------
      Gh(BR)          0.000000000000     0.000000000000     0.000000000000    78.918337600000
      Gh(O)           2.811524000000     1.249320000000    -1.388987000000    15.994914619570
      Gh(H)           1.946830000000     1.247401000000    -0.997053000000     1.007825032230
      Gh(H)           3.333840000000     0.621936000000    -0.862941000000     1.007825032230
      Gh(O)           0.730217000000    -0.632562000000    -3.163435000000    15.994914619570
      Gh(H)           0.536797000000    -0.243198000000    -2.271879000000     1.007825032230
      Gh(H)          -0.106351000000    -1.015408000000    -3.475712000000     1.007825032230
      Gh(O)           0.512458000000    -2.117774000000     2.783375000000    15.994914619570
      Gh(H)          -0.374234000000    -2.073142000000     3.177067000000     1.007825032230
      Gh(H)           0.435196000000    -1.601621000000     1.947776000000     1.007825032230
      Gh(O)          -2.791734000000     2.004077000000    -0.136779000000    15.994914619570
      Gh(H)          -2.751611000000     2.294819000000    -1.051084000000     1.007825032230
      Gh(H)          -2.113860000000     2.543174000000     0.294439000000     1.007825032230
      Gh(O)           1.179334000000    -3.203196000000    -0.267623000000    15.994914619570
      Gh(H)           1.473685000000    -3.396931000000    -1.169483000000     1.007825032230
      Gh(H)           0.786142000000    -2.333499000000    -0.274332000000     1.007825032230
         O            2.267015000000     1.055756000000     2.263133000000    15.994914619570
         H            1.546156000000     0.892135000000     2.866249000000     1.007825032230
         H            2.080614000000     0.524899000000     1.492348000000     1.007825032230

  Charge       = 0
  Multiplicity = 1
  Basis Set: AUG-CC-PVTZ
    Blend: AUG-CC-PVTZ
  Basis Set: (AUG-CC-PVTZ AUX)
    Blend: AUG-CC-PVTZ-JKFIT

    Orbital Energies [Eh]
    ---------------------

    Doubly Occupied:

       1A    -20.566094     2A     -1.354400     3A     -0.721428
       4A     -0.583483     5A     -0.510303

  @DF-RHF Final Energy:   -76.06091152616501

   => Energetics <=

    Nuclear Repulsion Energy =              9.2219660982487230
    One-Electron Energy =                -123.0943345236995299
    Two-Electron Energy =                  37.8114568992857869
    Total Energy =                        -76.0609115261650146
 Dipole X            :        -41.7325480           41.1259018           -0.6066462
 Dipole Y            :        -19.1030955           18.6385237           -0.4645717
 Dipole Z            :        -42.5625721           42.4501671           -0.1124050
 Magnitude           :                                                    0.7723221
  Basis Set: (AUG-CC-PVTZ AUX)
    Blend: AUG-CC-PVTZ-RI
	 Reference Energy          =     -76.0609115261650146 [Eh]
	 Singles Energy            =      -0.0000000000000000 [Eh]
	 Same-Spin Energy          =      -0.0683176702560737 [Eh]
	 Opposite-Spin Energy      =      -0.2154874768276511 [Eh]
	 Correlation Energy        =      -0.2838051470837248 [Eh]
	 Total Energy              =     -76.3447166732487403 [Eh]

	 ================> DF-SCS-MP2 Energies <==================
	-----------------------------------------------------------
	 SCS Same-Spin Scale       =       0.3333333333333333 [-]
	 SCS Opposite-Spin Scale   =       1.2000000000000000 [-]
	 SCS Same-Spin Energy      =      -0.0227725567520246 [Eh]
	 SCS Opposite-Spin Energy  =      -0.2585849721931813 [Eh]
	 SCS Correlation Energy    =      -0.2813575289452059 [Eh]
	 SCS Total Energy          =     -76.3422690551102221 [Eh]
	-----------------------------------------------------------

*** Psi4 exiting successfully. Buy a developer a beer!
