                               Psi4 1.8.2 release

  ==> Input File <==

--------------------------------------------------------------------------
MEMORY 60 GB

molecule dimer {
-1 1
Br         0.000000     0.000000     0.000000
Gh(O)      1.383396     2.880375     1.689837
Gh(H)      0.998655     2.001846     1.765023
Gh(H)      1.625502     2.922174     0.742268
Gh(O)     -2.899952    -1.542526     0.562001
Gh(H)     -2.681656    -1.715339     1.490147
Gh(H)     -2.036155    -1.221167     0.231828
Gh(O)     -1.229115     0.720300     3.121857
Gh(H)     -1.534913    -0.162096     3.356935
Gh(H)     -0.998486     0.789810     2.220954
Gh(O)     -2.495561     2.154699    -0.039728
Gh(H)     -1.710013     1.651982    -0.136262
Gh(H)     -3.067662     1.525619     0.422586
Gh(O)      0.532476    -3.145512     0.853930
Gh(H)      1.023018    -3.992223     0.651557
Gh(H)      0.354709    -2.697916    -0.018524

units ang
no_reorient
no_com
symmetry c1
}

set {
basis        aug-cc-pVTZ
scf_type     df
}

energy("mp2")
--------------------------------------------------------------------------

    Molecular point group: c1

    Geometry (in Angstrom), charge = -1, multiplicity = 1:

       Center              X                  Y                   Z               Mass
    ------------   -----------------  -----------------  -----------------  -----------------
         BR           0.000000000000     0.000000000000     0.000000000000    78.918337600000
      Gh(O)           1.383396000000     2.880375000000     1.689837000000    15.994914619570
      Gh(H)           0.998655000000     2.001846000000     1.765023000000     1.007825032230
      Gh(H)           1.625502000000     2.922174000000     0.742268000000     1.007825032230
      Gh(O)          -2.899952000000    -1.542526000000     0.562001000000    15.994914619570
      Gh(H)          -2.681656000000    -1.715339000000     1.490147000000     1.007825032230
      Gh(H)          -2.036155000000    -1.221167000000     0.231828000000     1.007825032230
      Gh(O)          -1.229115000000     0.720300000000     3.121857000000    15.994914619570
      Gh(H)          -1.534913000000    -0.162096000000     3.356935000000     1.007825032230
      Gh(H)          -0.998486000000     0.789810000000     2.220954000000     1.007825032230
      Gh(O)          -2.495561000000     2.154699000000    -0.039728000000    15.994914619570
      Gh(H)          -1.710013000000     1.651982000000    -0.136262000000     1.007825032230
      Gh(H)          -3.067662000000     1.525619000000     0.422586000000     1.007825032230
      Gh(O)           0.532476000000    -3.145512000000     0.853930000000    15.994914619570
      Gh(H)           1.023018000000    -3.992223000000     0.651557000000     1.007825032230
      Gh(H)           0.354709000000    -2.697916000000    -0.018524000000     1.007825032230

  Charge       = -1
  Multiplicity = 1
  Basis Set: AUG-CC-PVTZ
    Blend: AUG-CC-PVTZ
  Basis Set: (AUG-CC-PVTZ AUX)
    Blend: AUG-CC-PVTZ-JKFIT

    Orbital Energies [Eh]
    ---------------------

    Doubly Occupied:

       1A   -489.722033     2A    -64.861664     3A    -58.216196
       4A    -58.216194     5A    -58.216192     6A     -9.533245
       7A     -7.140587     8A     -7.140572     9A     -7.140564
      10A     -2.882287    11A     -2.882285    12A     -2.882274
      13A     -2.882261    14A     -2.882250    15A     -0.685990
      16A     -0.139336    17A     -0.139333    18A     -0.139331

  @DF-RHF Final Energy: -2572.53372606007315

   => Energetics <=

    Nuclear Repulsion Energy =              0.0000000000000000
    One-Electron Energy =               -3593.6622654281450195
    Two-Electron Energy =                1021.1285393680714151
    Total Energy =                      -2572.5337260600736045
 Dipole X            :         -0.0001516            0.0000000           -0.0001516
 Dipole Y            :          0.0000080            0.0000000            0.0000080
 Dipole Z            :          0.0000622            0.0000000            0.0000622
 Magnitude           :                                                    0.0001640
  Basis Set: (AUG-CC-PVTZ AUX)
    Blend: AUG-CC-PVTZ-RI
	 Reference Energy          =   -2572.5337260600731497 [Eh]
	 Singles Energy            =      -0.0000000000000000 [Eh]
	 Same-Spin Energy          =      -0.0908941060975328 [Eh]
	 Opposite-Spin Energy      =      -0.2114964313095162 [Eh]
	 Correlation Energy        =      -0.3023905374070490 [Eh]
	 Total Energy              =   -2572.8361165974802134 [Eh]

	 ================> DF-SCS-MP2 Energies <==================
	-----------------------------------------------------------
	 SCS Same-Spin Scale       =       0.3333333333333333 [-]
	 SCS Opposite-Spin Scale   =       1.2000000000000000 [-]
	 SCS Same-Spin Energy      =      -0.0302980353658443 [Eh]
	 SCS Opposite-Spin Energy  =      -0.2537957175714194 [Eh]
	 SCS Correlation Energy    =      -0.2840937529372637 [Eh]
	 SCS Total Energy          =   -2572.8178198130103738 [Eh]
	-----------------------------------------------------------

*** Psi4 exiting successfully. Buy a developer a beer!
