                               Psi4 1.8.2 release

  ==> Input File <==

--------------------------------------------------------------------------
MEMORY 60 GB

molecule dimer {
-1 1
Br         0.000000     0.000000     0.000000
O         -2.276881    -1.899460     1.400580
H         -2.198589    -1.582245     2.312148
H         -1.483800    -1.556681     0.911434
O          0.558217    -1.514625     3.077996
H          0.481697    -2.382991     2.719831
H          0.514443    -0.980773     2.257969
O         -3.207653     0.544694    -0.640069
H         -2.307200     0.537132    -0.484230
H         -3.309605     1.334027    -1.206248
O         -1.719668     1.404403     2.550898
H         -0.978194     1.949422     2.833464
H         -1.447545     0.991534     1.688828

units ang
no_reorient
no_com
symmetry c1
}

set {
basis        aug-cc-pVTZ
scf_type     df
}

energy("mp2")
--------------------------------------------------------------------------

    Molecular point group: c1

    Geometry (in Angstrom), charge = -1, multiplicity = 1:

       Center              X                  Y                   Z               Mass
    ------------   -----------------  -----------------  -----------------  -----------------
         BR           0.000000000000     0.000000000000     0.000000000000    78.918337600000
         O           -2.276881000000    -1.899460000000     1.400580000000    15.994914619570
         H           -2.198589000000    -1.582245000000     2.312148000000     1.007825032230
         H           -1.483800000000    -1.556681000000     0.911434000000     1.007825032230
         O            0.558217000000    -1.514625000000     3.077996000000    15.994914619570
         H            0.481697000000    -2.382991000000     2.719831000000     1.007825032230
         H            0.514443000000    -0.980773000000     2.257969000000     1.007825032230
         O           -3.207653000000     0.544694000000    -0.640069000000    15.994914619570
         H           -2.307200000000     0.537132000000    -0.484230000000     1.007825032230
         H           -3.309605000000     1.334027000000    -1.206248000000     1.007825032230
         O           -1.719668000000     1.404403000000     2.550898000000    15.994914619570
         H           -0.978194000000     1.949422000000     2.833464000000     1.007825032230
         H           -1.447545000000     0.991534000000     1.688828000000     1.007825032230

  Charge       = -1
  Multiplicity = 1
  Basis Set: AUG-CC-PVTZ
    Blend: AUG-CC-PVTZ
  Basis Set: (AUG-CC-PVTZ AUX)
    Blend: AUG-CC-PVTZ-JKFIT

    Orbital Energies [Eh]
    ---------------------

    Doubly Occupied:

       1A   -489.789813     2A    -64.930323     3A    -58.284821
       4A    -58.284795     5A    -58.284780     6A    -20.420693
       7A    -20.412379     8A    -20.408681     9A    -20.395808
      10A     -9.602762    11A     -7.210348    12A     -7.210269
      13A     -7.210112    14A     -2.951980    15A     -2.951967
      16A     -2.951806    17A     -2.951674    18A     -2.951648
      19A     -1.210298    20A     -1.207867    21A     -1.188603
      22A     -1.171985    23A     -0.769968    24A     -0.568245
      25A     -0.563667    26A     -0.556545    27A     -0.542072
      28A     -0.452651    29A     -0.439403    30A     -0.428845
      31A     -0.414754    32A     -0.367253    33A     -0.359324
      34A     -0.353528    35A     -0.338170    36A     -0.218008
      37A     -0.216534    38A     -0.213864

  @DF-RHF Final Energy: -2876.80904776657962

   => Energetics <=

    Nuclear Repulsion Energy =            349.6609674605190321
    One-Electron Energy =               -4715.3675385337946864
    Two-Electron Energy =                1488.8975233066964847
    Total Energy =                      -2876.8090477665791695
 Dipole X            :        123.0056947         -120.7472123            2.2584825
 Dipole Y            :         26.2759150          -25.3421325            0.9337825
 Dipole Z            :       -119.2167267          117.4435232           -1.7732035
 Magnitude           :                                                    3.0194277
  Basis Set: (AUG-CC-PVTZ AUX)
    Blend: AUG-CC-PVTZ-RI
	 Reference Energy          =   -2876.8090477665796243 [Eh]
	 Singles Energy            =      -0.0000000000000000 [Eh]
	 Same-Spin Energy          =      -0.3756639170326223 [Eh]
	 Opposite-Spin Energy      =      -1.0858305855563262 [Eh]
	 Correlation Energy        =      -1.4614945025889483 [Eh]
	 Total Energy              =   -2878.2705422691688000 [Eh]

	 ================> DF-SCS-MP2 Energies <==================
	-----------------------------------------------------------
	 SCS Same-Spin Scale       =       0.3333333333333333 [-]
	 SCS Opposite-Spin Scale   =       1.2000000000000000 [-]
	 SCS Same-Spin Energy      =      -0.1252213056775408 [Eh]
	 SCS Opposite-Spin Energy  =      -1.3029967026675913 [Eh]
	 SCS Correlation Energy    =      -1.4282180083451319 [Eh]
	 SCS Total Energy          =   -2878.2372657749247082 [Eh]
	-----------------------------------------------------------

*** Psi4 exiting successfully. Buy a developer a beer!
