                               Psi4 1.9 release

  ==> Input File <==

--------------------------------------------------------------------------
MEMORY 60 GB

molecule dimer {
-1 1
Br     0.000000     0.000000     0.000000
--
0 1
O     -0.589641     1.981122    -2.700950
H     -0.352083     1.498565    -1.927478
H      0.291278     2.138304    -3.079812
O     -0.614349     3.140419     0.660389
H     -1.466447     3.242082     0.197508
H     -0.129896     2.300579     0.382244
O      1.920213    -0.518193     2.687699
H      2.197835     0.425939     2.874306
H      1.083802    -0.483503     2.156645
O     -1.496158    -2.247040     1.826228
H     -1.236232    -1.353537     1.456673
H     -0.761899    -2.827253     1.477870
O     -0.445692     1.514137     3.176920
H     -0.182736     0.818354     3.872867
H     -0.524766     1.099695     2.328947
O     -3.061657     0.895335    -0.093977
H     -2.099177     0.663244     0.089351
H     -3.264239     0.403587    -0.926203

units ang
no_reorient
no_com
symmetry c1
}

set {
basis        aug-cc-pVTZ
scf_type     df
}

energy("mp2", bsse_type="cp")
--------------------------------------------------------------------------

                               Psi4 1.9 release
    Molecular point group: c1
  Charge       = 0
  Multiplicity = 1
  Basis Set: AUG-CC-PVTZ
    Blend: AUG-CC-PVTZ
  Basis Set: (AUG-CC-PVTZ AUX)
    Blend: AUG-CC-PVTZ-JKFIT
  @DF-RHF Final Energy:  -456.31358715923108
    Total Energy =                       -456.3135871592310764
 Dipole X            :         78.1771519          -76.9927941            1.1843578
 Dipole Y            :        -87.9345071           87.0262269           -0.9082802
 Dipole Z            :       -102.1860435          100.8232950           -1.3627486
 Magnitude           :                                                    2.0210789
  Basis Set: (AUG-CC-PVTZ AUX)
    Blend: AUG-CC-PVTZ-RI
	 Reference Energy          =    -456.3135871592310764 [Eh]
	 Singles Energy            =      -0.0000000000000000 [Eh]
	 Same-Spin Energy          =      -0.4175640969445353 [Eh]
	 Opposite-Spin Energy      =      -1.3107519964809033 [Eh]
	 Correlation Energy        =      -1.7283160934254387 [Eh]
	 Total Energy              =    -458.0419032526565388 [Eh]
	 SCS Total Energy          =    -458.0256775873230026 [Eh]
                               Psi4 1.9 release
    Molecular point group: c1
  Multiplicity = 1
  Basis Set: AUG-CC-PVTZ
    Blend: AUG-CC-PVTZ
  Basis Set: (AUG-CC-PVTZ AUX)
    Blend: AUG-CC-PVTZ-JKFIT
  @DF-RHF Final Energy: -2572.53374615673692
    Total Energy =                      -2572.5337461567369246
  Basis Set: (AUG-CC-PVTZ AUX)
	 Singles Energy            =      -0.0000000000000000 [Eh]
	 Same-Spin Energy          =      -0.0928325808478030 [Eh]
	 Opposite-Spin Energy      =      -0.2163666713815191 [Eh]
	 Correlation Energy        =      -0.3091992522293222 [Eh]
	 Total Energy              =   -2572.8429454089664432 [Eh]
	 SCS Total Energy          =   -2572.8243303560107051 [Eh]
                               Psi4 1.9 release
    Molecular point group: c1

    Geometry (in Bohr), charge = -1, multiplicity = 1:

       Center              X                  Y                   Z               Mass
    ------------   -----------------  -----------------  -----------------  -----------------
         BR           0.000000000000     0.000000000000     0.000000000000    78.918337600000
         O           -1.114260002341     3.743778001119    -5.104055778555    15.994914619570
         H           -0.665340443430     2.831877431197    -3.642405532845     1.007825032230
         H            0.550435646371     4.040808932971    -5.820001197899     1.007825032230
         O           -1.160951355449     5.934531829184     1.247954346265    15.994914619570
         H           -2.771183207499     6.126647056277     0.373236027587     1.007825032230
         H           -0.245467864792     4.347464239980     0.722336473100     1.007825032230
         O            3.628676672544    -0.979242850129     5.079015017667    15.994914619570
         H            4.153306218946     0.804908056151     5.431651140760     1.007825032230
         H            2.048088954223    -0.913688250837     4.075468399838     1.007825032230
         O           -2.827328860413    -4.246290192949     3.451070762643    15.994914619570
         H           -2.336139907527    -2.557814230674     2.752713024349     1.007825032230
         H           -1.439780445260    -5.342733857379     2.792769549030     1.007825032230
         O           -0.842235816308     2.861304246422     6.003508722489    15.994914619570
         H           -0.345320993262     1.546464933673     7.318657950323     1.007825032230
         H           -0.991664019952     2.078122371535     4.401071990707     1.007825032230
         O           -5.785693220091     1.691937940537    -0.177590792092    15.994914619570
         H           -3.966869618860     1.253349514353     0.168848919036     1.007825032230
         H           -6.168517718038     0.762668897795    -1.750270006577     1.007825032230

  Charge       = -1
  Multiplicity = 1
  Basis Set: AUG-CC-PVTZ
    Blend: AUG-CC-PVTZ
  Basis Set: (AUG-CC-PVTZ AUX)
    Blend: AUG-CC-PVTZ-JKFIT

    Orbital Energies [Eh]
    ---------------------

    Doubly Occupied:

       1A   -489.823247     2A    -64.964158     3A    -58.318638
       4A    -58.318591     5A    -58.318570     6A    -20.438600
       7A    -20.436560     8A    -20.432350     9A    -20.428207
      10A    -20.419520    11A    -20.408384    12A     -9.636827
      13A     -7.244594    14A     -7.244316    15A     -7.244149
      16A     -2.986191    17A     -2.986097    18A     -2.985930
      19A     -2.985561    20A     -2.985534    21A     -1.229600
      22A     -1.204302    23A     -1.197607    24A     -1.196175
      25A     -1.186853    26A     -1.176958    27A     -0.811496
      28A     -0.583980    29A     -0.579039    30A     -0.572152
      31A     -0.559109    32A     -0.553160    33A     -0.549621
      34A     -0.469732    35A     -0.452060    36A     -0.449946
      37A     -0.438007    38A     -0.430800    39A     -0.414783
      40A     -0.384605    41A     -0.377953    42A     -0.370010
      43A     -0.365144    44A     -0.358823    45A     -0.349217
      46A     -0.255430    47A     -0.249743    48A     -0.247881

  @DF-RHF Final Energy: -3028.91649569675792

   => Energetics <=

    Nuclear Repulsion Energy =            587.2361665477526458
    One-Electron Energy =               -5401.0649033692061494
    Two-Electron Energy =                1784.9122411246955835
    Total Energy =                      -3028.9164956967579201
 Dipole X            :         78.7922284          -76.9927941            1.7994343
 Dipole Y            :        -88.4388708           87.0262269           -1.4126439
 Dipole Z            :       -102.7453689          100.8232950           -1.9220739
 Magnitude           :                                                    2.9879583
  Basis Set: (AUG-CC-PVTZ AUX)
    Blend: AUG-CC-PVTZ-RI
	 Reference Energy          =   -3028.9164956967579201 [Eh]
	 Singles Energy            =      -0.0000000000000000 [Eh]
	 Same-Spin Energy          =      -0.5235473409359588 [Eh]
	 Opposite-Spin Energy      =      -1.5363619526870054 [Eh]
	 Correlation Energy        =      -2.0599092936229644 [Eh]
	 Total Energy              =   -3030.9764049903810701 [Eh]

	 ================> DF-SCS-MP2 Energies <==================
	-----------------------------------------------------------
	 SCS Same-Spin Scale       =       0.3333333333333333 [-]
	 SCS Opposite-Spin Scale   =       1.2000000000000000 [-]
	 SCS Same-Spin Energy      =      -0.1745157803119863 [Eh]
	 SCS Opposite-Spin Energy  =      -1.8436343432244064 [Eh]
	 SCS Correlation Energy    =      -2.0181501235363926 [Eh]
	 SCS Total Energy          =   -3030.9346458202944632 [Eh]
	-----------------------------------------------------------

*** Psi4 exiting successfully. Buy a developer a beer!
