                               Psi4 1.9 release

  ==> Input File <==

--------------------------------------------------------------------------
MEMORY 60 GB

molecule dimer {
-1 1
Br     0.000000     0.000000     0.000000
--
0 1
O      1.746665    -1.522862     2.344313
H      1.302761    -1.244800     1.535866
H      1.477658    -0.946620     3.043779
O     -0.155414     2.367422     2.373797
H      0.139736     1.933532     1.509779
H      0.044268     3.347623     2.380588
O     -0.953764    -2.860809     1.638351
H     -0.679006    -1.912495     1.469971
H     -1.756172    -2.763420     2.109332
O      2.595437     2.106666    -1.112278
H      3.150772     2.235622    -0.338113
H      1.872541     1.501902    -0.905209
O     -3.071740    -0.470450    -1.805587
H     -2.939395    -1.394781    -2.194465
H     -2.208285    -0.394983    -1.343831

units ang
no_reorient
no_com
symmetry c1
}

set {
basis        aug-cc-pVTZ
scf_type     df
}

energy("mp2", bsse_type="cp")
--------------------------------------------------------------------------

                               Psi4 1.9 release
    Molecular point group: c1
  Charge       = 0
  Multiplicity = 1
  Basis Set: AUG-CC-PVTZ
    Blend: AUG-CC-PVTZ
  Basis Set: (AUG-CC-PVTZ AUX)
    Blend: AUG-CC-PVTZ-JKFIT
  @DF-RHF Final Energy:  -380.27427839169530
    Total Energy =                       -380.2742783916953044
 Dipole X            :         -3.1540128            3.2018575            0.0478447
 Dipole Y            :          5.7875546           -5.0619791            0.7255755
 Dipole Z            :        -65.3607196           65.7179945            0.3572748
 Magnitude           :                                                    0.8101816
  Basis Set: (AUG-CC-PVTZ AUX)
    Blend: AUG-CC-PVTZ-RI
	 Reference Energy          =    -380.2742783916953044 [Eh]
	 Singles Energy            =      -0.0000000000000000 [Eh]
	 Same-Spin Energy          =      -0.3448814058436322 [Eh]
	 Opposite-Spin Energy      =      -1.0855668398396012 [Eh]
	 Correlation Energy        =      -1.4304482456832335 [Eh]
	 Total Energy              =    -381.7047266373785419 [Eh]
	 SCS Total Energy          =    -381.6919190681173859 [Eh]
                               Psi4 1.9 release
    Molecular point group: c1
  Multiplicity = 1
  Basis Set: AUG-CC-PVTZ
    Blend: AUG-CC-PVTZ
  Basis Set: (AUG-CC-PVTZ AUX)
    Blend: AUG-CC-PVTZ-JKFIT
  @DF-RHF Final Energy: -2572.53372983156078
    Total Energy =                      -2572.5337298315607768
  Basis Set: (AUG-CC-PVTZ AUX)
	 Singles Energy            =      -0.0000000000000000 [Eh]
	 Same-Spin Energy          =      -0.0912245689783328 [Eh]
	 Opposite-Spin Energy      =      -0.2123561027118375 [Eh]
	 Correlation Energy        =      -0.3035806716901703 [Eh]
	 Total Energy              =   -2572.8373105032510466 [Eh]
	 SCS Total Energy          =   -2572.8189653444742362 [Eh]
                               Psi4 1.9 release
    Molecular point group: c1

    Geometry (in Bohr), charge = -1, multiplicity = 1:

       Center              X                  Y                   Z               Mass
    ------------   -----------------  -----------------  -----------------  -----------------
         BR           0.000000000000     0.000000000000     0.000000000000    78.918337600000
         O            3.300718482923    -2.877792106867     4.430109522350    15.994914619570
         H            2.461861496928    -2.352331080970     2.902366105402     1.007825032230
         H            2.792368927092    -1.788852544881     5.751908696420     1.007825032230
         O           -0.293689896062     4.473779203384     4.485826207433    15.994914619570
         H            0.264062769867     3.653845934809     2.853068819968     1.007825032230
         H            0.083654396122     6.326090641284     4.498659337551     1.007825032230
         O           -1.802352748321    -5.406145507245     3.096034687370    15.994914619570
         H           -1.283135377543    -3.614091766307     2.777842602365     1.007825032230
         H           -3.318684109198    -5.222106969613     3.986059787664     1.007825032230
         O            4.904665105880     3.981021777814    -2.101900795372    15.994914619570
         H            5.954096163761     4.224713300048    -0.638940969457     1.007825032230
         H            3.538589648691     2.838183447277    -1.710597096300     1.007825032230
         O           -5.804747328614    -0.889021655722    -3.412064925687    15.994914619570
         H           -5.554651524540    -2.635754094992    -4.146937841903     1.007825032230
         H           -4.173053856957    -0.746409694212    -2.539472548900     1.007825032230

  Charge       = -1
  Multiplicity = 1
  Basis Set: AUG-CC-PVTZ
    Blend: AUG-CC-PVTZ
  Basis Set: (AUG-CC-PVTZ AUX)
    Blend: AUG-CC-PVTZ-JKFIT

    Orbital Energies [Eh]
    ---------------------

    Doubly Occupied:

       1A   -489.800213     2A    -64.940698     3A    -58.295203
       4A    -58.295183     5A    -58.295164     6A    -20.438856
       7A    -20.436672     8A    -20.431113     9A    -20.420715
      10A    -20.408374    11A     -9.613034    12A     -7.220681
      13A     -7.220582    14A     -7.220325    15A     -2.962350
      16A     -2.962328    17A     -2.962050    18A     -2.961904
      19A     -2.961847    20A     -1.214428    21A     -1.206248
      22A     -1.203004    23A     -1.199869    24A     -1.193320
      25A     -0.780198    26A     -0.593242    27A     -0.580046
      28A     -0.572057    29A     -0.562064    30A     -0.549327
      31A     -0.458003    32A     -0.445560    33A     -0.443867
      34A     -0.432583    35A     -0.430326    36A     -0.376874
      37A     -0.374679    38A     -0.372465    39A     -0.371689
      40A     -0.351115    41A     -0.229725    42A     -0.227961
      43A     -0.223750

  @DF-RHF Final Energy: -2952.86927530094408

   => Energetics <=

    Nuclear Repulsion Energy =            430.2610042380773052
    One-Electron Energy =               -4981.7811670916416915
    Two-Electron Energy =                1598.6508875526201336
    Total Energy =                      -2952.8692753009440821
 Dipole X            :         -3.2619689            3.2018575           -0.0601114
 Dipole Y            :          5.7701237           -5.0619791            0.7081445
 Dipole Z            :        -65.8294077           65.7179945           -0.1114132
 Magnitude           :                                                    0.7193712
  Basis Set: (AUG-CC-PVTZ AUX)
    Blend: AUG-CC-PVTZ-RI
	 Reference Energy          =   -2952.8692753009440821 [Eh]
	 Singles Energy            =      -0.0000000000000000 [Eh]
	 Same-Spin Energy          =      -0.4456849410096674 [Eh]
	 Opposite-Spin Energy      =      -1.3050015587747477 [Eh]
	 Correlation Energy        =      -1.7506864997844152 [Eh]
	 Total Energy              =   -2954.6199618007285608 [Eh]

	 ================> DF-SCS-MP2 Energies <==================
	-----------------------------------------------------------
	 SCS Same-Spin Scale       =       0.3333333333333333 [-]
	 SCS Opposite-Spin Scale   =       1.2000000000000000 [-]
	 SCS Same-Spin Energy      =      -0.1485616470032225 [Eh]
	 SCS Opposite-Spin Energy  =      -1.5660018705296972 [Eh]
	 SCS Correlation Energy    =      -1.7145635175329197 [Eh]
	 SCS Total Energy          =   -2954.5838388184770338 [Eh]
	-----------------------------------------------------------

*** Psi4 exiting successfully. Buy a developer a beer!
