                               Psi4 1.8.2 release

  ==> Input File <==

--------------------------------------------------------------------------
MEMORY 60 GB

molecule dimer {
-1 1
Br         0.000000     0.000000     0.000000
Gh(O)     -0.871621     3.438375     0.383857
Gh(H)     -0.516984     2.572586     0.549013
Gh(H)     -0.363617     4.028043     0.929764
Gh(O)      1.138510     0.841363    -2.887618
Gh(H)      0.694724     0.580199    -2.053917
Gh(H)      2.017329     1.105167    -2.581160
Gh(O)     -3.253094     1.026650    -0.425546
Gh(H)     -3.390640     1.760968    -1.019761
Gh(H)     -2.319946     0.849586    -0.372891
Gh(O)     -0.964777    -1.798146    -2.591474
Gh(H)     -0.682415    -1.413219    -1.710488
Gh(H)     -1.809853    -2.198752    -2.407912
Gh(O)      0.991667     1.473530     2.961882
Gh(H)      1.085614     0.936924     2.131226
Gh(H)      0.113098     1.201158     3.227799

units ang
no_reorient
no_com
symmetry c1
}

set {
basis        aug-cc-pVTZ
scf_type     df
}

energy("mp2")
--------------------------------------------------------------------------

    Molecular point group: c1

    Geometry (in Angstrom), charge = -1, multiplicity = 1:

       Center              X                  Y                   Z               Mass
    ------------   -----------------  -----------------  -----------------  -----------------
         BR           0.000000000000     0.000000000000     0.000000000000    78.918337600000
      Gh(O)          -0.871621000000     3.438375000000     0.383857000000    15.994914619570
      Gh(H)          -0.516984000000     2.572586000000     0.549013000000     1.007825032230
      Gh(H)          -0.363617000000     4.028043000000     0.929764000000     1.007825032230
      Gh(O)           1.138510000000     0.841363000000    -2.887618000000    15.994914619570
      Gh(H)           0.694724000000     0.580199000000    -2.053917000000     1.007825032230
      Gh(H)           2.017329000000     1.105167000000    -2.581160000000     1.007825032230
      Gh(O)          -3.253094000000     1.026650000000    -0.425546000000    15.994914619570
      Gh(H)          -3.390640000000     1.760968000000    -1.019761000000     1.007825032230
      Gh(H)          -2.319946000000     0.849586000000    -0.372891000000     1.007825032230
      Gh(O)          -0.964777000000    -1.798146000000    -2.591474000000    15.994914619570
      Gh(H)          -0.682415000000    -1.413219000000    -1.710488000000     1.007825032230
      Gh(H)          -1.809853000000    -2.198752000000    -2.407912000000     1.007825032230
      Gh(O)           0.991667000000     1.473530000000     2.961882000000    15.994914619570
      Gh(H)           1.085614000000     0.936924000000     2.131226000000     1.007825032230
      Gh(H)           0.113098000000     1.201158000000     3.227799000000     1.007825032230

  Charge       = -1
  Multiplicity = 1
  Basis Set: AUG-CC-PVTZ
    Blend: AUG-CC-PVTZ
  Basis Set: (AUG-CC-PVTZ AUX)
    Blend: AUG-CC-PVTZ-JKFIT

    Orbital Energies [Eh]
    ---------------------

    Doubly Occupied:

       1A   -489.722286     2A    -64.861849     3A    -58.216386
       4A    -58.216385     5A    -58.216385     6A     -9.533308
       7A     -7.140640     8A     -7.140636     9A     -7.140621
      10A     -2.882355    11A     -2.882353    12A     -2.882332
      13A     -2.882323    14A     -2.882313    15A     -0.685990
      16A     -0.139335    17A     -0.139334    18A     -0.139328

  @DF-RHF Final Energy: -2572.53373228641294

   => Energetics <=

    Nuclear Repulsion Energy =              0.0000000000000000
    One-Electron Energy =               -3593.6591483729539505
    Two-Electron Energy =                1021.1254160865408949
    Total Energy =                      -2572.5337322864129419
 Dipole X            :         -0.0001755            0.0000000           -0.0001755
 Dipole Y            :          0.0001547            0.0000000            0.0001547
 Dipole Z            :         -0.0000986            0.0000000           -0.0000986
 Magnitude           :                                                    0.0002539
  Basis Set: (AUG-CC-PVTZ AUX)
    Blend: AUG-CC-PVTZ-RI
	 Reference Energy          =   -2572.5337322864129419 [Eh]
	 Singles Energy            =      -0.0000000000000000 [Eh]
	 Same-Spin Energy          =      -0.0915177334123414 [Eh]
	 Opposite-Spin Energy      =      -0.2131143445139185 [Eh]
	 Correlation Energy        =      -0.3046320779262598 [Eh]
	 Total Energy              =   -2572.8383643643392134 [Eh]

	 ================> DF-SCS-MP2 Energies <==================
	-----------------------------------------------------------
	 SCS Same-Spin Scale       =       0.3333333333333333 [-]
	 SCS Opposite-Spin Scale   =       1.2000000000000000 [-]
	 SCS Same-Spin Energy      =      -0.0305059111374471 [Eh]
	 SCS Opposite-Spin Energy  =      -0.2557372134167021 [Eh]
	 SCS Correlation Energy    =      -0.2862431245541492 [Eh]
	 SCS Total Energy          =   -2572.8199754109668902 [Eh]
	-----------------------------------------------------------

*** Psi4 exiting successfully. Buy a developer a beer!
