                               Psi4 1.9 release

  ==> Input File <==

--------------------------------------------------------------------------
MEMORY 60 GB

molecule dimer {
-1 1
Br     0.000000     0.000000     0.000000
--
0 1
O     -3.203691    -0.706166     0.782016
H     -2.295960    -0.464817     0.667408
H     -3.558639    -0.246998     1.530606
O     -1.688294    -2.239204    -1.689504
H     -1.640223    -2.974459    -1.039912
H     -1.367206    -1.475108    -1.153456
O      1.718343    -2.981602     0.227705
H      1.215621    -3.617408     0.840091
H      1.172353    -2.184568     0.147489
O     -1.023386     2.101542     2.512944
H     -0.754621     1.462034     1.797374
H     -0.259077     2.082588     3.154971

units ang
no_reorient
no_com
symmetry c1
}

set {
basis        aug-cc-pVTZ
scf_type     df
}

energy("mp2", bsse_type="cp")
--------------------------------------------------------------------------

                               Psi4 1.9 release
    Molecular point group: c1
  Charge       = 0
  Multiplicity = 1
  Basis Set: AUG-CC-PVTZ
    Blend: AUG-CC-PVTZ
  Basis Set: (AUG-CC-PVTZ AUX)
    Blend: AUG-CC-PVTZ-JKFIT
  @DF-RHF Final Energy:  -304.22042325321547
    Total Energy =                       -304.2204232532154720
 Dipole X            :         78.1176896          -77.5996683            0.5180214
 Dipole Y            :         72.0282636          -71.8514993            0.1767643
 Dipole Z            :        -37.4452316           38.9469890            1.5017574
 Magnitude           :                                                    1.5983951
  Basis Set: (AUG-CC-PVTZ AUX)
    Blend: AUG-CC-PVTZ-RI
	 Reference Energy          =    -304.2204232532154720 [Eh]
	 Singles Energy            =      -0.0000000000000000 [Eh]
	 Same-Spin Energy          =      -0.2761481909994442 [Eh]
	 Opposite-Spin Energy      =      -0.8695698930217889 [Eh]
	 Correlation Energy        =      -1.1457180840212331 [Eh]
	 Total Energy              =    -305.3661413372366837 [Eh]
	 SCS Total Energy          =    -305.3559565218414491 [Eh]
                               Psi4 1.9 release
    Molecular point group: c1
  Multiplicity = 1
  Basis Set: AUG-CC-PVTZ
    Blend: AUG-CC-PVTZ
  Basis Set: (AUG-CC-PVTZ AUX)
    Blend: AUG-CC-PVTZ-JKFIT
  @DF-RHF Final Energy: -2572.53372171582760
    Total Energy =                      -2572.5337217158275962
  Basis Set: (AUG-CC-PVTZ AUX)
	 Singles Energy            =      -0.0000000000000000 [Eh]
	 Same-Spin Energy          =      -0.0908496485666803 [Eh]
	 Opposite-Spin Energy      =      -0.2115331626687276 [Eh]
	 Correlation Energy        =      -0.3023828112354079 [Eh]
	 Total Energy              =   -2572.8361045270630711 [Eh]
	 SCS Total Energy          =   -2572.8178447272189260 [Eh]
                               Psi4 1.9 release
    Molecular point group: c1

    Geometry (in Bohr), charge = -1, multiplicity = 1:

       Center              X                  Y                   Z               Mass
    ------------   -----------------  -----------------  -----------------  -----------------
         BR           0.000000000000     0.000000000000     0.000000000000    78.918337600000
         O           -6.054098580594    -1.334460339110     1.477796065726    15.994914619570
         H           -4.338735595006    -0.878376828457     1.261218333940     1.007825032230
         H           -6.724853089373    -0.466758573536     2.892426145983     1.007825032230
         O           -3.190413279254    -4.231482299030    -3.192699847866    15.994914619570
         H           -3.099572254677    -5.620912881403    -1.965148874577     1.007825032230
         H           -2.583644897083    -2.787550125472    -2.179715937766     1.007825032230
         O            3.247197659598    -5.634411195117     0.430300087397    15.994914619570
         H            2.297190762355    -6.835910404040     1.587541910462     1.007825032230
         H            2.215426092359    -4.128235222439     0.278713816518     1.007825032230
         O           -1.933919260628     3.971338821147     4.748775928612    15.994914619570
         H           -1.426027018519     2.762843846108     3.396544605019     1.007825032230
         H           -0.489584575405     3.935520952165     5.962031123762     1.007825032230

  Charge       = -1
  Multiplicity = 1
  Basis Set: AUG-CC-PVTZ
    Blend: AUG-CC-PVTZ
  Basis Set: (AUG-CC-PVTZ AUX)
    Blend: AUG-CC-PVTZ-JKFIT

    Orbital Energies [Eh]
    ---------------------

    Doubly Occupied:

       1A   -489.790296     2A    -64.930775     3A    -58.285262
       4A    -58.285256     5A    -58.285245     6A    -20.431709
       7A    -20.428785     8A    -20.413144     9A    -20.404606
      10A     -9.603171    11A     -7.210758    12A     -7.210700
      13A     -7.210497    14A     -2.952399    15A     -2.952386
      16A     -2.952175    17A     -2.952111    18A     -2.952059
      19A     -1.208919    20A     -1.195224    21A     -1.194155
      22A     -1.178209    23A     -0.770173    24A     -0.587981
      25A     -0.563109    26A     -0.557854    27A     -0.536380
      28A     -0.443897    29A     -0.437236    30A     -0.434249
      31A     -0.426451    32A     -0.369227    33A     -0.367084
      34A     -0.363563    35A     -0.345301    36A     -0.219170
      37A     -0.217649    38A     -0.213609

  @DF-RHF Final Energy: -2876.80753721597603

   => Energetics <=

    Nuclear Repulsion Energy =            332.8615727049507313
    One-Electron Energy =               -4681.5766616073096884
    Two-Electron Energy =                1471.9075516863829307
    Total Energy =                      -2876.8075372159755716
 Dipole X            :         78.6739915          -77.5996683            1.0743233
 Dipole Y            :         72.5061925          -71.8514993            0.6546931
 Dipole Z            :        -37.8291323           38.9469890            1.1178567
 Magnitude           :                                                    1.6829727
  Basis Set: (AUG-CC-PVTZ AUX)
    Blend: AUG-CC-PVTZ-RI
	 Reference Energy          =   -2876.8075372159760263 [Eh]
	 Singles Energy            =      -0.0000000000000000 [Eh]
	 Same-Spin Energy          =      -0.3756137771743752 [Eh]
	 Opposite-Spin Energy      =      -1.0874164638160839 [Eh]
	 Correlation Energy        =      -1.4630302409904592 [Eh]
	 Total Energy              =   -2878.2705674569665462 [Eh]

	 ================> DF-SCS-MP2 Energies <==================
	-----------------------------------------------------------
	 SCS Same-Spin Scale       =       0.3333333333333333 [-]
	 SCS Opposite-Spin Scale   =       1.2000000000000000 [-]
	 SCS Same-Spin Energy      =      -0.1252045923914584 [Eh]
	 SCS Opposite-Spin Energy  =      -1.3048997565793006 [Eh]
	 SCS Correlation Energy    =      -1.4301043489707590 [Eh]
	 SCS Total Energy          =   -2878.2376415649468981 [Eh]
	-----------------------------------------------------------

*** Psi4 exiting successfully. Buy a developer a beer!
