                               Psi4 1.9 release

  ==> Input File <==

--------------------------------------------------------------------------
MEMORY 60 GB

molecule dimer {
-1 1
Br     0.000000     0.000000     0.000000
--
0 1
O      1.901186     1.766278     1.976425
H      2.014537     1.299148     2.815032
H      1.226952     1.162183     1.576218
O      1.090075     3.227324    -1.160627
H      2.009569     3.131599    -1.409539
H      0.759246     2.452516    -0.697298
O      1.036749    -1.103900     3.095540
H      0.435450    -1.042285     2.289662
H      1.911055    -1.239199     2.756827
O     -2.629643     2.018819     0.922667
H     -1.841866     1.463958     1.121590
H     -2.314172     2.927331     0.932451
O     -2.583292    -1.610021    -1.363785
H     -2.276380    -1.035941    -0.678244
H     -1.849291    -1.880891    -1.897783

units ang
no_reorient
no_com
symmetry c1
}

set {
basis        aug-cc-pVTZ
scf_type     df
}

energy("mp2", bsse_type="cp")
--------------------------------------------------------------------------

                               Psi4 1.9 release
    Molecular point group: c1
  Charge       = 0
  Multiplicity = 1
  Basis Set: AUG-CC-PVTZ
    Blend: AUG-CC-PVTZ
  Basis Set: (AUG-CC-PVTZ AUX)
    Blend: AUG-CC-PVTZ-JKFIT
  @DF-RHF Final Energy:  -380.28730062518179
    Total Energy =                       -380.2873006251817856
 Dipole X            :         19.4351286          -17.7715514            1.6635772
 Dipole Y            :        -79.5258410           78.6625315           -0.8633095
 Dipole Z            :        -65.3057032           65.3291096            0.0234064
 Magnitude           :                                                    1.8743907
  Basis Set: (AUG-CC-PVTZ AUX)
    Blend: AUG-CC-PVTZ-RI
	 Reference Energy          =    -380.2873006251817856 [Eh]
	 Singles Energy            =      -0.0000000000000000 [Eh]
	 Same-Spin Energy          =      -0.3442242822916314 [Eh]
	 Opposite-Spin Energy      =      -1.0826026284130510 [Eh]
	 Correlation Energy        =      -1.4268269107046825 [Eh]
	 Total Energy              =    -381.7141275358864618 [Eh]
	 SCS Total Energy          =    -381.7011652067079694 [Eh]
                               Psi4 1.9 release
    Molecular point group: c1
  Multiplicity = 1
  Basis Set: AUG-CC-PVTZ
    Blend: AUG-CC-PVTZ
  Basis Set: (AUG-CC-PVTZ AUX)
    Blend: AUG-CC-PVTZ-JKFIT
  @DF-RHF Final Energy: -2572.53372684927490
    Total Energy =                      -2572.5337268492748990
  Basis Set: (AUG-CC-PVTZ AUX)
	 Singles Energy            =      -0.0000000000000000 [Eh]
	 Same-Spin Energy          =      -0.0909216601088605 [Eh]
	 Opposite-Spin Energy      =      -0.2115771156178513 [Eh]
	 Correlation Energy        =      -0.3024987757267118 [Eh]
	 Total Energy              =   -2572.8362256250015889 [Eh]
	 SCS Total Energy          =   -2572.8179266080524030 [Eh]
                               Psi4 1.9 release
    Molecular point group: c1

    Geometry (in Bohr), charge = -1, multiplicity = 1:

       Center              X                  Y                   Z               Mass
    ------------   -----------------  -----------------  -----------------  -----------------
         BR           0.000000000000     0.000000000000     0.000000000000    78.918337600000
         O            3.592720853555     3.337781681421     3.734901957508    15.994914619570
         H            3.806923199601     2.455033916436     5.319639514400     1.007825032230
         H            2.318603249083     2.196207577663     2.978620334017     1.007825032230
         O            2.059943206208     6.098758478117    -2.193267163812    15.994914619570
         H            3.797535040210     5.917864444758    -2.663642673152     1.007825032230
         H            1.434767001849     4.634583558303    -1.317702247829     1.007825032230
         O            1.959171670842    -2.086068669893     5.849722810400    15.994914619570
         H            0.822881241331    -1.969633194673     4.326834099868     1.007825032230
         H            3.611370560687    -2.341746724941     5.209648005268     1.007825032230
         O           -4.969305077727     3.815015006871     1.743587934998    15.994914619570
         H           -3.480622299793     2.766479679173     2.119497925052     1.007825032230
         H           -4.373151287203     5.531853868563     1.762077015409     1.007825032230
         O           -4.881714382086    -3.042498746236    -2.577180144008    15.994914619570
         H           -4.301734757470    -1.957644772133    -1.281695406235     1.007825032230
         H           -3.494653516274    -3.554368861838    -3.586290115550     1.007825032230

  Charge       = -1
  Multiplicity = 1
  Basis Set: AUG-CC-PVTZ
    Blend: AUG-CC-PVTZ
  Basis Set: (AUG-CC-PVTZ AUX)
    Blend: AUG-CC-PVTZ-JKFIT

    Orbital Energies [Eh]
    ---------------------

    Doubly Occupied:

       1A   -489.798362     2A    -64.938892     3A    -58.293401
       4A    -58.293368     5A    -58.293331     6A    -20.440845
       7A    -20.426960     8A    -20.421753     9A    -20.417902
      10A    -20.414903    11A     -9.611319    12A     -7.218934
      13A     -7.218824    14A     -7.218653    15A     -2.960592
      16A     -2.960568    17A     -2.960352    18A     -2.960193
      19A     -2.960148    20A     -1.219497    21A     -1.209905
      22A     -1.206763    23A     -1.205252    24A     -1.197706
      25A     -0.778403    26A     -0.590918    27A     -0.588261
      28A     -0.585788    29A     -0.572322    30A     -0.546225
      31A     -0.459653    32A     -0.451142    33A     -0.443242
      34A     -0.437590    35A     -0.432830    36A     -0.382689
      37A     -0.370123    38A     -0.368181    39A     -0.365194
      40A     -0.360996    41A     -0.226447    42A     -0.225938
      43A     -0.222982

  @DF-RHF Final Energy: -2952.88063620931734

   => Energetics <=

    Nuclear Repulsion Energy =            438.6702707700465567
    One-Electron Energy =               -4998.5871172183296949
    Two-Electron Energy =                1607.0362102389656229
    Total Energy =                      -2952.8806362093173448
 Dipole X            :         19.3828665          -17.7715514            1.6113151
 Dipole Y            :        -79.8914222           78.6625315           -1.2288907
 Dipole Z            :        -65.9074345           65.3291096           -0.5783249
 Magnitude           :                                                    2.1073605
  Basis Set: (AUG-CC-PVTZ AUX)
    Blend: AUG-CC-PVTZ-RI
	 Reference Energy          =   -2952.8806362093173448 [Eh]
	 Singles Energy            =      -0.0000000000000000 [Eh]
	 Same-Spin Energy          =      -0.4444437048298268 [Eh]
	 Opposite-Spin Energy      =      -1.3008675415779343 [Eh]
	 Correlation Energy        =      -1.7453112464077611 [Eh]
	 Total Energy              =   -2954.6259474557250542 [Eh]

	 ================> DF-SCS-MP2 Energies <==================
	-----------------------------------------------------------
	 SCS Same-Spin Scale       =       0.3333333333333333 [-]
	 SCS Opposite-Spin Scale   =       1.2000000000000000 [-]
	 SCS Same-Spin Energy      =      -0.1481479016099423 [Eh]
	 SCS Opposite-Spin Energy  =      -1.5610410498935210 [Eh]
	 SCS Correlation Energy    =      -1.7091889515034633 [Eh]
	 SCS Total Energy          =   -2954.5898251608209648 [Eh]
	-----------------------------------------------------------

*** Psi4 exiting successfully. Buy a developer a beer!
