                               Psi4 1.8.2 release

  ==> Input File <==

--------------------------------------------------------------------------
MEMORY 60 GB

molecule dimer {
-1 1
Br         0.000000     0.000000     0.000000
Gh(O)      2.118565     1.377600    -2.222428
Gh(H)      1.524510     1.021254    -1.485349
Gh(H)      2.481666     0.625784    -2.731423
Gh(O)      1.458491    -2.150671    -1.922163
Gh(H)      0.842838    -1.646061    -1.317309
Gh(H)      2.186106    -1.568774    -2.026988
Gh(O)      1.457423     0.149191     3.119476
Gh(H)      1.197132    -0.104181     2.235110
Gh(H)      2.162739    -0.500210     3.388672
Gh(O)     -0.225623    -2.782781     2.045966
Gh(H)     -0.289413    -2.198172     2.800474
Gh(H)     -0.483719    -2.262648     1.280829
Gh(O)      3.373774    -0.713926     0.596505
Gh(H)      3.202858    -1.598986     0.946685
Gh(H)      2.570736    -0.305260     0.273215

units ang
no_reorient
no_com
symmetry c1
}

set {
basis        aug-cc-pVTZ
scf_type     df
}

energy("mp2")
--------------------------------------------------------------------------

    Molecular point group: c1

    Geometry (in Angstrom), charge = -1, multiplicity = 1:

       Center              X                  Y                   Z               Mass
    ------------   -----------------  -----------------  -----------------  -----------------
         BR           0.000000000000     0.000000000000     0.000000000000    78.918337600000
      Gh(O)           2.118565000000     1.377600000000    -2.222428000000    15.994914619570
      Gh(H)           1.524510000000     1.021254000000    -1.485349000000     1.007825032230
      Gh(H)           2.481666000000     0.625784000000    -2.731423000000     1.007825032230
      Gh(O)           1.458491000000    -2.150671000000    -1.922163000000    15.994914619570
      Gh(H)           0.842838000000    -1.646061000000    -1.317309000000     1.007825032230
      Gh(H)           2.186106000000    -1.568774000000    -2.026988000000     1.007825032230
      Gh(O)           1.457423000000     0.149191000000     3.119476000000    15.994914619570
      Gh(H)           1.197132000000    -0.104181000000     2.235110000000     1.007825032230
      Gh(H)           2.162739000000    -0.500210000000     3.388672000000     1.007825032230
      Gh(O)          -0.225623000000    -2.782781000000     2.045966000000    15.994914619570
      Gh(H)          -0.289413000000    -2.198172000000     2.800474000000     1.007825032230
      Gh(H)          -0.483719000000    -2.262648000000     1.280829000000     1.007825032230
      Gh(O)           3.373774000000    -0.713926000000     0.596505000000    15.994914619570
      Gh(H)           3.202858000000    -1.598986000000     0.946685000000     1.007825032230
      Gh(H)           2.570736000000    -0.305260000000     0.273215000000     1.007825032230

  Charge       = -1
  Multiplicity = 1
  Basis Set: AUG-CC-PVTZ
    Blend: AUG-CC-PVTZ
  Basis Set: (AUG-CC-PVTZ AUX)
    Blend: AUG-CC-PVTZ-JKFIT

    Orbital Energies [Eh]
    ---------------------

    Doubly Occupied:

       1A   -489.722247     2A    -64.861815     3A    -58.216353
       4A    -58.216352     5A    -58.216350     6A     -9.533296
       7A     -7.140628     8A     -7.140624     9A     -7.140610
      10A     -2.882346    11A     -2.882334    12A     -2.882320
      13A     -2.882316    14A     -2.882302    15A     -0.685991
      16A     -0.139336    17A     -0.139335    18A     -0.139331

  @DF-RHF Final Energy: -2572.53373114693386

   => Energetics <=

    Nuclear Repulsion Energy =              0.0000000000000000
    One-Electron Energy =               -3593.6596917443107486
    Two-Electron Energy =                1021.1259605973767748
    Total Energy =                      -2572.5337311469338601
 Dipole X            :          0.0001918            0.0000000            0.0001918
 Dipole Y            :         -0.0000767            0.0000000           -0.0000767
 Dipole Z            :          0.0000513            0.0000000            0.0000513
 Magnitude           :                                                    0.0002129
  Basis Set: (AUG-CC-PVTZ AUX)
    Blend: AUG-CC-PVTZ-RI
	 Reference Energy          =   -2572.5337311469338601 [Eh]
	 Singles Energy            =      -0.0000000000000000 [Eh]
	 Same-Spin Energy          =      -0.0914282647201974 [Eh]
	 Opposite-Spin Energy      =      -0.2129023380831558 [Eh]
	 Correlation Energy        =      -0.3043306028033532 [Eh]
	 Total Energy              =   -2572.8380617497373350 [Eh]

	 ================> DF-SCS-MP2 Energies <==================
	-----------------------------------------------------------
	 SCS Same-Spin Scale       =       0.3333333333333333 [-]
	 SCS Opposite-Spin Scale   =       1.2000000000000000 [-]
	 SCS Same-Spin Energy      =      -0.0304760882400658 [Eh]
	 SCS Opposite-Spin Energy  =      -0.2554828056997869 [Eh]
	 SCS Correlation Energy    =      -0.2859588939398527 [Eh]
	 SCS Total Energy          =   -2572.8196900408738657 [Eh]
	-----------------------------------------------------------

*** Psi4 exiting successfully. Buy a developer a beer!
