                               Psi4 1.8.2 release

  ==> Input File <==

--------------------------------------------------------------------------
MEMORY 60 GB

molecule dimer {
-1 1
Br         0.000000     0.000000     0.000000
O         -2.938072     0.464389    -1.439165
H         -3.102087    -0.253086    -2.073190
H         -2.195405     0.228367    -0.888619
O          0.951332    -1.540440     3.027413
H          0.711603    -1.098178     2.200969
H          1.717176    -1.031261     3.320463
O         -1.884440    -1.671342     2.485385
H         -1.607087    -1.301256     1.617131
H         -1.710697    -2.626941     2.322726
O         -0.392709    -1.832615    -2.914916
H         -0.373963    -1.332135    -2.100379
H         -0.385090    -1.142787    -3.601259
O          2.389714    -2.096131    -1.711884
H          1.528994    -2.124078    -1.386041
H          2.910463    -1.647935    -1.049521

units ang
no_reorient
no_com
symmetry c1
}

set {
basis        aug-cc-pVTZ
scf_type     df
}

energy("mp2")
--------------------------------------------------------------------------

    Molecular point group: c1

    Geometry (in Angstrom), charge = -1, multiplicity = 1:

       Center              X                  Y                   Z               Mass
    ------------   -----------------  -----------------  -----------------  -----------------
         BR           0.000000000000     0.000000000000     0.000000000000    78.918337600000
         O           -2.938072000000     0.464389000000    -1.439165000000    15.994914619570
         H           -3.102087000000    -0.253086000000    -2.073190000000     1.007825032230
         H           -2.195405000000     0.228367000000    -0.888619000000     1.007825032230
         O            0.951332000000    -1.540440000000     3.027413000000    15.994914619570
         H            0.711603000000    -1.098178000000     2.200969000000     1.007825032230
         H            1.717176000000    -1.031261000000     3.320463000000     1.007825032230
         O           -1.884440000000    -1.671342000000     2.485385000000    15.994914619570
         H           -1.607087000000    -1.301256000000     1.617131000000     1.007825032230
         H           -1.710697000000    -2.626941000000     2.322726000000     1.007825032230
         O           -0.392709000000    -1.832615000000    -2.914916000000    15.994914619570
         H           -0.373963000000    -1.332135000000    -2.100379000000     1.007825032230
         H           -0.385090000000    -1.142787000000    -3.601259000000     1.007825032230
         O            2.389714000000    -2.096131000000    -1.711884000000    15.994914619570
         H            1.528994000000    -2.124078000000    -1.386041000000     1.007825032230
         H            2.910463000000    -1.647935000000    -1.049521000000     1.007825032230

  Charge       = -1
  Multiplicity = 1
  Basis Set: AUG-CC-PVTZ
    Blend: AUG-CC-PVTZ
  Basis Set: (AUG-CC-PVTZ AUX)
    Blend: AUG-CC-PVTZ-JKFIT

    Orbital Energies [Eh]
    ---------------------

    Doubly Occupied:

       1A   -489.796382     2A    -64.936769     3A    -58.291286
       4A    -58.291248     5A    -58.291238     6A    -20.432673
       7A    -20.423582     8A    -20.423083     9A    -20.422713
      10A    -20.418729    11A     -9.609067    12A     -7.216702
      13A     -7.216496    14A     -7.216421    15A     -2.958333
      16A     -2.958261    17A     -2.958177    18A     -2.957932
      19A     -2.957925    20A     -1.225356    21A     -1.217499
      22A     -1.208097    23A     -1.203824    24A     -1.195085
      25A     -0.774355    26A     -0.597763    27A     -0.580479
      28A     -0.577778    29A     -0.567568    30A     -0.547431
      31A     -0.457925    32A     -0.449878    33A     -0.448105
      34A     -0.444313    35A     -0.435593    36A     -0.384077
      37A     -0.374146    38A     -0.369076    39A     -0.365124
      40A     -0.354412    41A     -0.225255    42A     -0.221788
      43A     -0.220960

  @DF-RHF Final Energy: -2952.87788118653998

   => Energetics <=

    Nuclear Repulsion Energy =            436.8165767118190388
    One-Electron Energy =               -4994.9431038083066596
    Two-Electron Energy =                1605.2486459099482090
    Total Energy =                      -2952.8778811865395255
 Dipole X            :         34.1456783          -33.0692491            1.0764292
 Dipole Y            :        125.5139609         -124.2275757            1.2863852
 Dipole Z            :         11.2004810          -11.4575153           -0.2570343
 Magnitude           :                                                    1.6969247
  Basis Set: (AUG-CC-PVTZ AUX)
    Blend: AUG-CC-PVTZ-RI
	 Reference Energy          =   -2952.8778811865399803 [Eh]
	 Singles Energy            =      -0.0000000000000000 [Eh]
	 Same-Spin Energy          =      -0.4438287883746707 [Eh]
	 Opposite-Spin Energy      =      -1.3007315587583350 [Eh]
	 Correlation Energy        =      -1.7445603471330058 [Eh]
	 Total Energy              =   -2954.6224415336728271 [Eh]

	 ================> DF-SCS-MP2 Energies <==================
	-----------------------------------------------------------
	 SCS Same-Spin Scale       =       0.3333333333333333 [-]
	 SCS Opposite-Spin Scale   =       1.2000000000000000 [-]
	 SCS Same-Spin Energy      =      -0.1479429294582235 [Eh]
	 SCS Opposite-Spin Energy  =      -1.5608778705100019 [Eh]
	 SCS Correlation Energy    =      -1.7088207999682254 [Eh]
	 SCS Total Energy          =   -2954.5867019865081602 [Eh]
	-----------------------------------------------------------

*** Psi4 exiting successfully. Buy a developer a beer!
