                               Psi4 1.9 release

  ==> Input File <==

--------------------------------------------------------------------------
MEMORY 60 GB

molecule dimer {
-1 1
Br     0.000000     0.000000     0.000000
--
0 1
O      2.964962     1.491294    -0.232552
H      3.167346     2.329112     0.134912
H      2.039397     1.199057     0.005168
O      2.467355    -1.133067     2.039740
H      1.833343    -1.067852     1.347526
H      2.278611    -1.962652     2.509428
O      1.685230    -2.489969    -1.505692
H      1.129809    -1.865417    -1.040823
H      2.217802    -1.919562    -2.100617
O     -1.693532    -0.769404     2.754182
H     -2.198821    -0.054616     3.172365
H     -1.091690    -0.339489     2.159721

units ang
no_reorient
no_com
symmetry c1
}

set {
basis        aug-cc-pVTZ
scf_type     df
}

energy("mp2", bsse_type="cp")
--------------------------------------------------------------------------

                               Psi4 1.9 release
    Molecular point group: c1
  Charge       = 0
  Multiplicity = 1
  Basis Set: AUG-CC-PVTZ
    Blend: AUG-CC-PVTZ
  Basis Set: (AUG-CC-PVTZ AUX)
    Blend: AUG-CC-PVTZ-JKFIT
  @DF-RHF Final Energy:  -304.23170499707805
    Total Energy =                       -304.2317049970780545
 Dipole X            :       -100.6023227           99.7169113           -0.8854114
 Dipole Y            :         52.1977234          -50.8158448            1.3818786
 Dipole Z            :        -57.8053559           57.8881769            0.0828210
 Magnitude           :                                                    1.6432897
  Basis Set: (AUG-CC-PVTZ AUX)
    Blend: AUG-CC-PVTZ-RI
	 Reference Energy          =    -304.2317049970780545 [Eh]
	 Singles Energy            =      -0.0000000000000000 [Eh]
	 Same-Spin Energy          =      -0.2745431771938405 [Eh]
	 Opposite-Spin Energy      =      -0.8646494342501010 [Eh]
	 Correlation Energy        =      -1.1391926114439415 [Eh]
	 Total Energy              =    -305.3708976085220002 [Eh]
	 SCS Total Energy          =    -305.3607987105761481 [Eh]
                               Psi4 1.9 release
    Molecular point group: c1
  Multiplicity = 1
  Basis Set: AUG-CC-PVTZ
    Blend: AUG-CC-PVTZ
  Basis Set: (AUG-CC-PVTZ AUX)
    Blend: AUG-CC-PVTZ-JKFIT
  @DF-RHF Final Energy: -2572.53372298756403
    Total Energy =                      -2572.5337229875640332
  Basis Set: (AUG-CC-PVTZ AUX)
	 Singles Energy            =      -0.0000000000000000 [Eh]
	 Same-Spin Energy          =      -0.0908798658554285 [Eh]
	 Opposite-Spin Energy      =      -0.2114990533567426 [Eh]
	 Correlation Energy        =      -0.3023789192121711 [Eh]
	 Total Energy              =   -2572.8361019067760935 [Eh]
	 SCS Total Energy          =   -2572.8178151402107687 [Eh]
                               Psi4 1.9 release
    Molecular point group: c1

    Geometry (in Bohr), charge = -1, multiplicity = 1:

       Center              X                  Y                   Z               Mass
    ------------   -----------------  -----------------  -----------------  -----------------
         BR           0.000000000000     0.000000000000     0.000000000000    78.918337600000
         O            5.602966152390     2.818137232539    -0.439459589927    15.994914619570
         H            5.985416484564     4.401383795517     0.254946731038     1.007825032230
         H            3.853901791080     2.265889338813     0.009766104616     1.007825032230
         O            4.662625204279    -2.141186311794     3.854549967141    15.994914619570
         H            3.464516164025    -2.017947822522     2.546455086934     1.007825032230
         H            4.305950736456    -3.708874759582     4.742131651555     1.007825032230
         O            3.184623158405    -4.705359470880    -2.845345509293    15.994914619570
         H            2.135029584077    -3.525127239773    -1.966870415077     1.007825032230
         H            4.191038380493    -3.627446460836    -3.969590824481     1.007825032230
         O           -3.200311664699    -1.453962839832     5.204649679666    15.994914619570
         H           -4.155169488905    -0.103209282068     5.994901019988     1.007825032230
         H           -2.062995113901    -0.641541232606     4.081281197400     1.007825032230

  Charge       = -1
  Multiplicity = 1
  Basis Set: AUG-CC-PVTZ
    Blend: AUG-CC-PVTZ
  Basis Set: (AUG-CC-PVTZ AUX)
    Blend: AUG-CC-PVTZ-JKFIT

    Orbital Energies [Eh]
    ---------------------

    Doubly Occupied:

       1A   -489.782364     2A    -64.922845     3A    -58.277352
       4A    -58.277323     5A    -58.277308     6A    -20.419088
       7A    -20.410182     8A    -20.407909     9A    -20.405822
      10A     -9.595229    11A     -7.202834    12A     -7.202682
      13A     -7.202637    14A     -2.944448    15A     -2.944390
      16A     -2.944335    17A     -2.944142    18A     -2.944131
      19A     -1.206278    20A     -1.196915    21A     -1.192501
      22A     -1.188745    23A     -0.762205    24A     -0.574642
      25A     -0.570925    26A     -0.566063    27A     -0.554568
      28A     -0.440660    29A     -0.434177    30A     -0.428302
      31A     -0.416971    32A     -0.365483    33A     -0.357412
      34A     -0.352178    35A     -0.351584    36A     -0.211129
      37A     -0.208686    38A     -0.208263

  @DF-RHF Final Energy: -2876.81164172797617

   => Energetics <=

    Nuclear Repulsion Energy =            335.3949164976598922
    One-Electron Energy =               -4687.0276926330689093
    Two-Electron Energy =                1474.8211344074325098
    Total Energy =                      -2876.8116417279761663
 Dipole X            :       -101.2580571           99.7169113           -1.5411458
 Dipole Y            :         52.4054899          -50.8158448            1.5896451
 Dipole Z            :        -58.1333213           57.8881769           -0.2451444
 Magnitude           :                                                    2.2275991
  Basis Set: (AUG-CC-PVTZ AUX)
    Blend: AUG-CC-PVTZ-RI
	 Reference Energy          =   -2876.8116417279761663 [Eh]
	 Singles Energy            =      -0.0000000000000000 [Eh]
	 Same-Spin Energy          =      -0.3740074836318815 [Eh]
	 Opposite-Spin Energy      =      -1.0829258636429488 [Eh]
	 Correlation Energy        =      -1.4569333472748305 [Eh]
	 Total Energy              =   -2878.2685750752511922 [Eh]

	 ================> DF-SCS-MP2 Energies <==================
	-----------------------------------------------------------
	 SCS Same-Spin Scale       =       0.3333333333333333 [-]
	 SCS Opposite-Spin Scale   =       1.2000000000000000 [-]
	 SCS Same-Spin Energy      =      -0.1246691612106272 [Eh]
	 SCS Opposite-Spin Energy  =      -1.2995110363715385 [Eh]
	 SCS Correlation Energy    =      -1.4241801975821657 [Eh]
	 SCS Total Energy          =   -2878.2358219255584117 [Eh]
	-----------------------------------------------------------

*** Psi4 exiting successfully. Buy a developer a beer!
