                               Psi4 1.9 release

  ==> Input File <==

--------------------------------------------------------------------------
MEMORY 60 GB

molecule dimer {
-1 1
Br     0.000000     0.000000     0.000000
--
0 1
O      1.690071    -2.304698    -1.707218
H      0.923760    -1.889361    -1.295223
H      2.207196    -2.384531    -0.909199
O     -2.116359    -2.882091    -0.092047
H     -1.511941    -2.175131    -0.067796
H     -2.983098    -2.506316    -0.045785
O     -1.756879    -0.866651    -2.837326
H     -1.528892    -0.222600    -3.499136
H     -1.133474    -0.763599    -2.057592
O     -0.689909     3.407484     0.493107
H     -0.675507     2.563674     0.915122
H     -1.403101     3.910690     0.895747
O      1.276028     1.109954    -2.736063
H      0.804335     0.872600    -1.938167
H      1.482357     2.068714    -2.758216
O      3.028986    -1.727961     0.695151
H      2.515532    -2.183866     1.360892
H      2.379498    -1.251815     0.131620

units ang
no_reorient
no_com
symmetry c1
}

set {
basis        aug-cc-pVTZ
scf_type     df
}

energy("mp2", bsse_type="cp")
--------------------------------------------------------------------------

                               Psi4 1.9 release
    Molecular point group: c1
  Charge       = 0
  Multiplicity = 1
  Basis Set: AUG-CC-PVTZ
    Blend: AUG-CC-PVTZ
  Basis Set: (AUG-CC-PVTZ AUX)
    Blend: AUG-CC-PVTZ-JKFIT
  @DF-RHF Final Energy:  -456.33310777618027
    Total Energy =                       -456.3331077761802703
 Dipole X            :        -24.7475906           23.6823672           -1.0652234
 Dipole Y            :         58.5109405          -56.8301968            1.6807438
 Dipole Z            :        112.9668050         -111.0079947            1.9588103
 Magnitude           :                                                    2.7922282
  Basis Set: (AUG-CC-PVTZ AUX)
    Blend: AUG-CC-PVTZ-RI
	 Reference Energy          =    -456.3331077761802703 [Eh]
	 Singles Energy            =      -0.0000000000000000 [Eh]
	 Same-Spin Energy          =      -0.4148528416283691 [Eh]
	 Opposite-Spin Energy      =      -1.3009896852401410 [Eh]
	 Correlation Energy        =      -1.7158425268685100 [Eh]
	 Total Energy              =    -458.0489503030487981 [Eh]
	 SCS Total Energy          =    -458.0325796790112349 [Eh]
                               Psi4 1.9 release
    Molecular point group: c1
  Multiplicity = 1
  Basis Set: AUG-CC-PVTZ
    Blend: AUG-CC-PVTZ
  Basis Set: (AUG-CC-PVTZ AUX)
    Blend: AUG-CC-PVTZ-JKFIT
  @DF-RHF Final Energy: -2572.53373802297074
    Total Energy =                      -2572.5337380229707378
  Basis Set: (AUG-CC-PVTZ AUX)
	 Singles Energy            =      -0.0000000000000000 [Eh]
	 Same-Spin Energy          =      -0.0918748179303005 [Eh]
	 Opposite-Spin Energy      =      -0.2139138482681233 [Eh]
	 Correlation Energy        =      -0.3057886661984238 [Eh]
	 Total Energy              =   -2572.8395266891693609 [Eh]
	 SCS Total Energy          =   -2572.8210595802024727 [Eh]
                               Psi4 1.9 release
    Molecular point group: c1

    Geometry (in Bohr), charge = -1, multiplicity = 1:

       Center              X                  Y                   Z               Mass
    ------------   -----------------  -----------------  -----------------  -----------------
         BR           0.000000000000     0.000000000000     0.000000000000    78.918337600000
         O            3.193771322579    -4.355248021890    -3.226174456452    15.994914619570
         H            1.745653405653    -3.570374842121    -2.447616741394     1.007825032230
         H            4.170995945206    -4.506110527664    -1.718137103540     1.007825032230
         O           -3.999338893148    -5.446362658647    -0.173943620670    15.994914619570
         H           -2.857154407851    -4.110401876993    -0.128115872402     1.007825032230
         H           -5.637238225401    -4.736250823853    -0.086521110654     1.007825032230
         O           -3.320020145568    -1.637733036354    -5.361769068641    15.994914619570
         H           -2.889187155403    -0.420653035527    -6.612408715730     1.007825032230
         H           -2.141955430327    -1.442992979673    -3.888285357933     1.007825032230
         O           -1.303739061488     6.439211536880     0.931837180546    15.994914619570
         H           -1.276523225830     4.844641734957     1.729329951381     1.007825032230
         H           -2.651476616356     7.390133061567     1.692716507700     1.007825032230
         O            2.411343448416     2.097509071856    -5.170409731999    15.994914619570
         H            1.519972863120     1.648975017075    -3.662604815400     1.007825032230
         H            2.801248750155     3.909302891900    -5.212272834856     1.007825032230
         O            5.723953977846    -3.265373045472     1.313645005838    15.994914619570
         H            4.753666539825    -4.126908634699     2.571713166327     1.007825032230
         H            4.496599536075    -2.365587509740     0.248725752633     1.007825032230

  Charge       = -1
  Multiplicity = 1
  Basis Set: AUG-CC-PVTZ
    Blend: AUG-CC-PVTZ
  Basis Set: (AUG-CC-PVTZ AUX)
    Blend: AUG-CC-PVTZ-JKFIT

    Orbital Energies [Eh]
    ---------------------

    Doubly Occupied:

       1A   -489.807399     2A    -64.947982     3A    -58.302489
       4A    -58.302448     5A    -58.302443     6A    -20.449714
       7A    -20.448816     8A    -20.424453     9A    -20.414602
      10A    -20.411694    11A    -20.406065    12A     -9.620383
      13A     -7.228087    14A     -7.227844    15A     -7.227742
      16A     -2.969688    17A     -2.969610    18A     -2.969517
      19A     -2.969203    20A     -2.969197    21A     -1.239490
      22A     -1.237420    23A     -1.225588    24A     -1.200261
      25A     -1.193296    26A     -1.190677    27A     -0.789563
      28A     -0.610259    29A     -0.607735    30A     -0.598469
      31A     -0.576365    32A     -0.566628    33A     -0.544296
      34A     -0.475966    35A     -0.467457    36A     -0.450623
      37A     -0.445848    38A     -0.427348    39A     -0.422591
      40A     -0.395741    41A     -0.387017    42A     -0.375441
      43A     -0.359343    44A     -0.357658    45A     -0.352911
      46A     -0.238058    47A     -0.234285    48A     -0.232749

  @DF-RHF Final Energy: -3028.93219300072815

   => Energetics <=

    Nuclear Repulsion Energy =            564.7479021863383650
    One-Electron Energy =               -5356.2152660122746965
    Two-Electron Energy =                1762.5351708252085245
    Total Energy =                      -3028.9321930007281480
 Dipole X            :        -24.8515902           23.6823672           -1.1692230
 Dipole Y            :         58.8949519          -56.8301968            2.0647551
 Dipole Z            :        113.6248157         -111.0079947            2.6168210
 Magnitude           :                                                    3.5324281
  Basis Set: (AUG-CC-PVTZ AUX)
    Blend: AUG-CC-PVTZ-RI
	 Reference Energy          =   -3028.9321930007281480 [Eh]
	 Singles Energy            =      -0.0000000000000000 [Eh]
	 Same-Spin Energy          =      -0.5172705491983679 [Eh]
	 Opposite-Spin Energy      =      -1.5226881362115958 [Eh]
	 Correlation Energy        =      -2.0399586854099638 [Eh]
	 Total Energy              =   -3030.9721516861382042 [Eh]

	 ================> DF-SCS-MP2 Energies <==================
	-----------------------------------------------------------
	 SCS Same-Spin Scale       =       0.3333333333333333 [-]
	 SCS Opposite-Spin Scale   =       1.2000000000000000 [-]
	 SCS Same-Spin Energy      =      -0.1724235163994560 [Eh]
	 SCS Opposite-Spin Energy  =      -1.8272257634539149 [Eh]
	 SCS Correlation Energy    =      -1.9996492798533709 [Eh]
	 SCS Total Energy          =   -3030.9318422805813498 [Eh]
	-----------------------------------------------------------

*** Psi4 exiting successfully. Buy a developer a beer!
