                               Psi4 1.8.2 release

  ==> Input File <==

--------------------------------------------------------------------------
MEMORY 60 GB

molecule dimer {
-1 1
Br         0.000000     0.000000     0.000000
O          0.779723     2.101047     2.199835
H          0.426021     1.474308     1.520328
H          0.408280     2.960514     1.936831
O          1.680523    -2.227455     1.670762
H          1.216158    -1.563865     1.147402
H          2.593395    -1.916082     1.738707
O         -2.177205    -0.865000     2.509215
H         -2.496326     0.047270     2.768170
H         -1.471994    -0.874637     1.842706
O          3.480100    -0.005299    -0.932052
H          2.930060    -0.789766    -1.221807
H          3.669445     0.562215    -1.658308

units ang
no_reorient
no_com
symmetry c1
}

set {
basis        aug-cc-pVTZ
scf_type     df
}

energy("mp2")
--------------------------------------------------------------------------

    Molecular point group: c1

    Geometry (in Angstrom), charge = -1, multiplicity = 1:

       Center              X                  Y                   Z               Mass
    ------------   -----------------  -----------------  -----------------  -----------------
         BR           0.000000000000     0.000000000000     0.000000000000    78.918337600000
         O            0.779723000000     2.101047000000     2.199835000000    15.994914619570
         H            0.426021000000     1.474308000000     1.520328000000     1.007825032230
         H            0.408280000000     2.960514000000     1.936831000000     1.007825032230
         O            1.680523000000    -2.227455000000     1.670762000000    15.994914619570
         H            1.216158000000    -1.563865000000     1.147402000000     1.007825032230
         H            2.593395000000    -1.916082000000     1.738707000000     1.007825032230
         O           -2.177205000000    -0.865000000000     2.509215000000    15.994914619570
         H           -2.496326000000     0.047270000000     2.768170000000     1.007825032230
         H           -1.471994000000    -0.874637000000     1.842706000000     1.007825032230
         O            3.480100000000    -0.005299000000    -0.932052000000    15.994914619570
         H            2.930060000000    -0.789766000000    -1.221807000000     1.007825032230
         H            3.669445000000     0.562215000000    -1.658308000000     1.007825032230

  Charge       = -1
  Multiplicity = 1
  Basis Set: AUG-CC-PVTZ
    Blend: AUG-CC-PVTZ
  Basis Set: (AUG-CC-PVTZ AUX)
    Blend: AUG-CC-PVTZ-JKFIT

    Orbital Energies [Eh]
    ---------------------

    Doubly Occupied:

       1A   -489.774584     2A    -64.915172     3A    -58.269666
       4A    -58.269651     5A    -58.269608     6A    -20.443079
       7A    -20.406618     8A    -20.398517     9A    -20.398266
      10A     -9.587700    11A     -7.195360    12A     -7.195272
      13A     -7.194948    14A     -2.937065    15A     -2.937037
      16A     -2.936672    17A     -2.936555    18A     -2.936453
      19A     -1.220561    20A     -1.183382    21A     -1.175454
      22A     -1.175005    23A     -0.756358    24A     -0.600152
      25A     -0.563376    26A     -0.552355    27A     -0.538739
      28A     -0.447629    29A     -0.421653    30A     -0.419663
      31A     -0.407283    32A     -0.384961    33A     -0.348406
      34A     -0.344734    35A     -0.341561    36A     -0.203400
      37A     -0.202636    38A     -0.198052

  @DF-RHF Final Energy: -2876.79462731688318

   => Energetics <=

    Nuclear Repulsion Energy =            333.4270281532519675
    One-Electron Energy =               -4683.4681348313415583
    Two-Electron Energy =                1473.2464793612066387
    Total Energy =                      -2876.7946273168831794
 Dipole X            :        -70.9351032           70.6382782           -0.2968251
 Dipole Y            :         16.5307801          -15.2570799            1.2737001
 Dipole Z            :       -100.1767973           97.6158987           -2.5608986
 Magnitude           :                                                    2.8755206
  Basis Set: (AUG-CC-PVTZ AUX)
    Blend: AUG-CC-PVTZ-RI
	 Reference Energy          =   -2876.7946273168831794 [Eh]
	 Singles Energy            =      -0.0000000000000000 [Eh]
	 Same-Spin Energy          =      -0.3747995218309458 [Eh]
	 Opposite-Spin Energy      =      -1.0849634520367839 [Eh]
	 Correlation Energy        =      -1.4597629738677296 [Eh]
	 Total Energy              =   -2878.2543902907509619 [Eh]

	 ================> DF-SCS-MP2 Energies <==================
	-----------------------------------------------------------
	 SCS Same-Spin Scale       =       0.3333333333333333 [-]
	 SCS Opposite-Spin Scale   =       1.2000000000000000 [-]
	 SCS Same-Spin Energy      =      -0.1249331739436486 [Eh]
	 SCS Opposite-Spin Energy  =      -1.3019561424441406 [Eh]
	 SCS Correlation Energy    =      -1.4268893163877892 [Eh]
	 SCS Total Energy          =   -2878.2215166332707668 [Eh]
	-----------------------------------------------------------

*** Psi4 exiting successfully. Buy a developer a beer!
