                               Psi4 1.8.2 release

  ==> Input File <==

--------------------------------------------------------------------------
MEMORY 60 GB

molecule dimer {
0 1
Gh(Br)     0.000000     0.000000     0.000000
O         -0.182304     3.494170    -0.605864
H          0.120242     3.914423     0.257357
H          0.132300     2.594793    -0.587648
Gh(O)     -2.270989    -2.543796    -0.135242
Gh(H)     -1.629269    -1.818732    -0.214141
Gh(H)     -2.769596    -2.373792     0.665191
Gh(O)     -2.622852     0.829441    -1.960167
Gh(H)     -1.727443     0.478275    -1.721753
Gh(H)     -2.825376     0.371547    -2.777806
Gh(O)     -0.227539    -1.062518     3.239792
Gh(H)     -0.110948    -1.919017     2.769254
Gh(H)     -0.127755    -0.388440     2.591113
Gh(O)      3.140969     1.639494    -0.214309
Gh(H)      3.024015     2.037304    -1.045371
Gh(H)      2.229103     1.295954     0.003369

units ang
no_reorient
no_com
symmetry c1
}

set {
basis        aug-cc-pVTZ
scf_type     df
}

energy("mp2")
--------------------------------------------------------------------------

    Molecular point group: c1

    Geometry (in Angstrom), charge = 0, multiplicity = 1:

       Center              X                  Y                   Z               Mass
    ------------   -----------------  -----------------  -----------------  -----------------
      Gh(BR)          0.000000000000     0.000000000000     0.000000000000    78.918337600000
         O           -0.182304000000     3.494170000000    -0.605864000000    15.994914619570
         H            0.120242000000     3.914423000000     0.257357000000     1.007825032230
         H            0.132300000000     2.594793000000    -0.587648000000     1.007825032230
      Gh(O)          -2.270989000000    -2.543796000000    -0.135242000000    15.994914619570
      Gh(H)          -1.629269000000    -1.818732000000    -0.214141000000     1.007825032230
      Gh(H)          -2.769596000000    -2.373792000000     0.665191000000     1.007825032230
      Gh(O)          -2.622852000000     0.829441000000    -1.960167000000    15.994914619570
      Gh(H)          -1.727443000000     0.478275000000    -1.721753000000     1.007825032230
      Gh(H)          -2.825376000000     0.371547000000    -2.777806000000     1.007825032230
      Gh(O)          -0.227539000000    -1.062518000000     3.239792000000    15.994914619570
      Gh(H)          -0.110948000000    -1.919017000000     2.769254000000     1.007825032230
      Gh(H)          -0.127755000000    -0.388440000000     2.591113000000     1.007825032230
      Gh(O)           3.140969000000     1.639494000000    -0.214309000000    15.994914619570
      Gh(H)           3.024015000000     2.037304000000    -1.045371000000     1.007825032230
      Gh(H)           2.229103000000     1.295954000000     0.003369000000     1.007825032230

  Charge       = 0
  Multiplicity = 1
  Basis Set: AUG-CC-PVTZ
    Blend: AUG-CC-PVTZ
  Basis Set: (AUG-CC-PVTZ AUX)
    Blend: AUG-CC-PVTZ-JKFIT

    Orbital Energies [Eh]
    ---------------------

    Doubly Occupied:

       1A    -20.570118     2A     -1.341705     3A     -0.708847
       4A     -0.577109     5A     -0.508076

  @DF-RHF Final Energy:   -76.05697527558623

   => Energetics <=

    Nuclear Repulsion Energy =              8.9854983407275117
    One-Electron Energy =                -122.6732345086277718
    Two-Electron Energy =                  37.6307608923140293
    Total Energy =                        -76.0569752755862254
 Dipole X            :          2.6861282           -2.2788018            0.4073264
 Dipole Y            :        -65.4485334           65.1248302           -0.3237032
 Dipole Z            :         10.3598919           -9.7834958            0.5763961
 Magnitude           :                                                    0.7764863
  Basis Set: (AUG-CC-PVTZ AUX)
    Blend: AUG-CC-PVTZ-RI
	 Reference Energy          =     -76.0569752755862254 [Eh]
	 Singles Energy            =      -0.0000000000000000 [Eh]
	 Same-Spin Energy          =      -0.0687367991597400 [Eh]
	 Opposite-Spin Energy      =      -0.2168522981082980 [Eh]
	 Correlation Energy        =      -0.2855890972680379 [Eh]
	 Total Energy              =     -76.3425643728542695 [Eh]

	 ================> DF-SCS-MP2 Energies <==================
	-----------------------------------------------------------
	 SCS Same-Spin Scale       =       0.3333333333333333 [-]
	 SCS Opposite-Spin Scale   =       1.2000000000000000 [-]
	 SCS Same-Spin Energy      =      -0.0229122663865800 [Eh]
	 SCS Opposite-Spin Energy  =      -0.2602227577299576 [Eh]
	 SCS Correlation Energy    =      -0.2831350241165376 [Eh]
	 SCS Total Energy          =     -76.3401102997027579 [Eh]
	-----------------------------------------------------------

*** Psi4 exiting successfully. Buy a developer a beer!
