                               Psi4 1.8.2 release

  ==> Input File <==

--------------------------------------------------------------------------
MEMORY 60 GB

molecule dimer {
0 1
Gh(Br)     0.000000     0.000000     0.000000
Gh(O)     -2.113858    -2.512859    -1.150525
Gh(H)     -1.719212    -1.655030    -0.988060
Gh(H)     -3.081330    -2.317677    -0.996356
Gh(O)      2.801363    -0.362759    -2.114060
Gh(H)      2.269415    -0.106052    -1.334895
Gh(H)      2.149716    -0.381102    -2.814470
Gh(O)      1.551532     1.868500     2.398071
Gh(H)      0.950373     1.393075     1.807719
Gh(H)      1.026933     2.134675     3.208996
Gh(O)     -2.493947     2.161427     0.432978
Gh(H)     -1.694356     1.623968     0.386821
Gh(H)     -3.103791     1.928874    -0.305995
O         -1.293434    -0.333436     3.221317
H         -0.726989    -0.492791     2.454595
H         -1.835080     0.452199     3.109521
Gh(O)      0.747393     3.065685    -1.348131
Gh(H)      0.606392     2.246399    -0.896833
Gh(H)      0.782266     3.812533    -0.695899

units ang
no_reorient
no_com
symmetry c1
}

set {
basis        aug-cc-pVTZ
scf_type     df
}

energy("mp2")
--------------------------------------------------------------------------

    Molecular point group: c1

    Geometry (in Angstrom), charge = 0, multiplicity = 1:

       Center              X                  Y                   Z               Mass
    ------------   -----------------  -----------------  -----------------  -----------------
      Gh(BR)          0.000000000000     0.000000000000     0.000000000000    78.918337600000
      Gh(O)          -2.113858000000    -2.512859000000    -1.150525000000    15.994914619570
      Gh(H)          -1.719212000000    -1.655030000000    -0.988060000000     1.007825032230
      Gh(H)          -3.081330000000    -2.317677000000    -0.996356000000     1.007825032230
      Gh(O)           2.801363000000    -0.362759000000    -2.114060000000    15.994914619570
      Gh(H)           2.269415000000    -0.106052000000    -1.334895000000     1.007825032230
      Gh(H)           2.149716000000    -0.381102000000    -2.814470000000     1.007825032230
      Gh(O)           1.551532000000     1.868500000000     2.398071000000    15.994914619570
      Gh(H)           0.950373000000     1.393075000000     1.807719000000     1.007825032230
      Gh(H)           1.026933000000     2.134675000000     3.208996000000     1.007825032230
      Gh(O)          -2.493947000000     2.161427000000     0.432978000000    15.994914619570
      Gh(H)          -1.694356000000     1.623968000000     0.386821000000     1.007825032230
      Gh(H)          -3.103791000000     1.928874000000    -0.305995000000     1.007825032230
         O           -1.293434000000    -0.333436000000     3.221317000000    15.994914619570
         H           -0.726989000000    -0.492791000000     2.454595000000     1.007825032230
         H           -1.835080000000     0.452199000000     3.109521000000     1.007825032230
      Gh(O)           0.747393000000     3.065685000000    -1.348131000000    15.994914619570
      Gh(H)           0.606392000000     2.246399000000    -0.896833000000     1.007825032230
      Gh(H)           0.782266000000     3.812533000000    -0.695899000000     1.007825032230

  Charge       = 0
  Multiplicity = 1
  Basis Set: AUG-CC-PVTZ
    Blend: AUG-CC-PVTZ
  Basis Set: (AUG-CC-PVTZ AUX)
    Blend: AUG-CC-PVTZ-JKFIT

    Orbital Energies [Eh]
    ---------------------

    Doubly Occupied:

       1A    -20.564839     2A     -1.345203     3A     -0.727742
       4A     -0.569441     5A     -0.507542

  @DF-RHF Final Energy:   -76.05915229639055

   => Energetics <=

    Nuclear Repulsion Energy =              9.1177858843268389
    One-Electron Energy =                -122.9243392096357184
    Two-Electron Energy =                  37.7474010289183326
    Total Energy =                        -76.0591522963905504
 Dipole X            :         24.4119701          -24.3954969            0.0164732
 Dipole Y            :          5.5424762           -5.1175295            0.4249467
 Dipole Z            :        -59.8095368           59.2139105           -0.5956263
 Magnitude           :                                                    0.7318618
  Basis Set: (AUG-CC-PVTZ AUX)
    Blend: AUG-CC-PVTZ-RI
	 Reference Energy          =     -76.0591522963905504 [Eh]
	 Singles Energy            =      -0.0000000000000000 [Eh]
	 Same-Spin Energy          =      -0.0684116863081879 [Eh]
	 Opposite-Spin Energy      =      -0.2157540169944053 [Eh]
	 Correlation Energy        =      -0.2841657033025933 [Eh]
	 Total Energy              =     -76.3433179996931415 [Eh]

	 ================> DF-SCS-MP2 Energies <==================
	-----------------------------------------------------------
	 SCS Same-Spin Scale       =       0.3333333333333333 [-]
	 SCS Opposite-Spin Scale   =       1.2000000000000000 [-]
	 SCS Same-Spin Energy      =      -0.0228038954360626 [Eh]
	 SCS Opposite-Spin Energy  =      -0.2589048203932864 [Eh]
	 SCS Correlation Energy    =      -0.2817087158293490 [Eh]
	 SCS Total Energy          =     -76.3408610122199036 [Eh]
	-----------------------------------------------------------

*** Psi4 exiting successfully. Buy a developer a beer!
