                               Psi4 1.8.2 release

  ==> Input File <==

--------------------------------------------------------------------------
MEMORY 60 GB

molecule dimer {
0 1
Gh(Br)     0.000000     0.000000     0.000000
O          2.465274    -2.082896    -1.151644
H          2.088415    -1.327484    -0.739582
H          3.392014    -2.150807    -0.795133
Gh(O)     -2.741984    -0.795186    -1.139633
Gh(H)     -3.050808    -1.748838    -1.012684
Gh(H)     -1.833173    -0.702090    -0.816427
Gh(O)     -1.323507     2.305848    -2.078266
Gh(H)     -1.377126     1.531047    -1.554944
Gh(H)     -2.005493     2.942304    -1.677368
Gh(O)     -1.653707     2.630529     1.100887
Gh(H)     -0.964169     2.021284     0.768719
Gh(H)     -1.213494     3.129397     1.794661

units ang
no_reorient
no_com
symmetry c1
}

set {
basis        aug-cc-pVTZ
scf_type     df
}

energy("mp2")
--------------------------------------------------------------------------

    Molecular point group: c1

    Geometry (in Angstrom), charge = 0, multiplicity = 1:

       Center              X                  Y                   Z               Mass
    ------------   -----------------  -----------------  -----------------  -----------------
      Gh(BR)          0.000000000000     0.000000000000     0.000000000000    78.918337600000
         O            2.465274000000    -2.082896000000    -1.151644000000    15.994914619570
         H            2.088415000000    -1.327484000000    -0.739582000000     1.007825032230
         H            3.392014000000    -2.150807000000    -0.795133000000     1.007825032230
      Gh(O)          -2.741984000000    -0.795186000000    -1.139633000000    15.994914619570
      Gh(H)          -3.050808000000    -1.748838000000    -1.012684000000     1.007825032230
      Gh(H)          -1.833173000000    -0.702090000000    -0.816427000000     1.007825032230
      Gh(O)          -1.323507000000     2.305848000000    -2.078266000000    15.994914619570
      Gh(H)          -1.377126000000     1.531047000000    -1.554944000000     1.007825032230
      Gh(H)          -2.005493000000     2.942304000000    -1.677368000000     1.007825032230
      Gh(O)          -1.653707000000     2.630529000000     1.100887000000    15.994914619570
      Gh(H)          -0.964169000000     2.021284000000     0.768719000000     1.007825032230
      Gh(H)          -1.213494000000     3.129397000000     1.794661000000     1.007825032230

  Charge       = 0
  Multiplicity = 1
  Basis Set: AUG-CC-PVTZ
    Blend: AUG-CC-PVTZ
  Basis Set: (AUG-CC-PVTZ AUX)
    Blend: AUG-CC-PVTZ-JKFIT

    Orbital Energies [Eh]
    ---------------------

    Doubly Occupied:

       1A    -20.568254     2A     -1.348315     3A     -0.714909
       4A     -0.580342     5A     -0.509230

  @DF-RHF Final Energy:   -76.05833023280255

   => Energetics <=

    Nuclear Repulsion Energy =              9.1030668008825355
    One-Electron Energy =                -122.8806901665876552
    Two-Electron Energy =                  37.7192931329025853
    Total Energy =                        -76.0583302328025468
 Dipole X            :        -47.2686459           47.6260513            0.3574055
 Dipole Y            :         38.5238520          -38.0618413            0.4620107
 Dipole Z            :         20.8213891          -20.3105251            0.5108640
 Magnitude           :                                                    0.7759991
  Basis Set: (AUG-CC-PVTZ AUX)
    Blend: AUG-CC-PVTZ-RI
	 Reference Energy          =     -76.0583302328025468 [Eh]
	 Singles Energy            =      -0.0000000000000000 [Eh]
	 Same-Spin Energy          =      -0.0685076943278249 [Eh]
	 Opposite-Spin Energy      =      -0.2159663275862651 [Eh]
	 Correlation Energy        =      -0.2844740219140899 [Eh]
	 Total Energy              =     -76.3428042547166399 [Eh]

	 ================> DF-SCS-MP2 Energies <==================
	-----------------------------------------------------------
	 SCS Same-Spin Scale       =       0.3333333333333333 [-]
	 SCS Opposite-Spin Scale   =       1.2000000000000000 [-]
	 SCS Same-Spin Energy      =      -0.0228358981092750 [Eh]
	 SCS Opposite-Spin Energy  =      -0.2591595931035181 [Eh]
	 SCS Correlation Energy    =      -0.2819954912127930 [Eh]
	 SCS Total Energy          =     -76.3403257240153437 [Eh]
	-----------------------------------------------------------

*** Psi4 exiting successfully. Buy a developer a beer!
