                               Psi4 1.8.2 release

  ==> Input File <==

--------------------------------------------------------------------------
MEMORY 60 GB

molecule dimer {
-1 1
Br         0.000000     0.000000     0.000000
Gh(O)      2.124652     1.964937     2.121179
Gh(H)      2.172793     1.368654     2.868479
Gh(H)      1.679122     1.413724     1.418976
Gh(O)      0.104991     3.249169    -0.182748
Gh(H)     -0.717800     3.852559    -0.190945
Gh(H)     -0.198510     2.348694    -0.321779
Gh(O)      2.981573    -1.290363     1.136769
Gh(H)      2.140404    -0.909703     0.930704
Gh(H)      3.672272    -0.882775     0.618927
Gh(O)     -2.479840     1.517813     1.775784
Gh(H)     -2.172611     0.572932     1.816703
Gh(H)     -2.115363     1.956989     2.554860

units ang
no_reorient
no_com
symmetry c1
}

set {
basis        aug-cc-pVTZ
scf_type     df
}

energy("mp2")
--------------------------------------------------------------------------

    Molecular point group: c1

    Geometry (in Angstrom), charge = -1, multiplicity = 1:

       Center              X                  Y                   Z               Mass
    ------------   -----------------  -----------------  -----------------  -----------------
         BR           0.000000000000     0.000000000000     0.000000000000    78.918337600000
      Gh(O)           2.124652000000     1.964937000000     2.121179000000    15.994914619570
      Gh(H)           2.172793000000     1.368654000000     2.868479000000     1.007825032230
      Gh(H)           1.679122000000     1.413724000000     1.418976000000     1.007825032230
      Gh(O)           0.104991000000     3.249169000000    -0.182748000000    15.994914619570
      Gh(H)          -0.717800000000     3.852559000000    -0.190945000000     1.007825032230
      Gh(H)          -0.198510000000     2.348694000000    -0.321779000000     1.007825032230
      Gh(O)           2.981573000000    -1.290363000000     1.136769000000    15.994914619570
      Gh(H)           2.140404000000    -0.909703000000     0.930704000000     1.007825032230
      Gh(H)           3.672272000000    -0.882775000000     0.618927000000     1.007825032230
      Gh(O)          -2.479840000000     1.517813000000     1.775784000000    15.994914619570
      Gh(H)          -2.172611000000     0.572932000000     1.816703000000     1.007825032230
      Gh(H)          -2.115363000000     1.956989000000     2.554860000000     1.007825032230

  Charge       = -1
  Multiplicity = 1
  Basis Set: AUG-CC-PVTZ
    Blend: AUG-CC-PVTZ
  Basis Set: (AUG-CC-PVTZ AUX)
    Blend: AUG-CC-PVTZ-JKFIT

    Orbital Energies [Eh]
    ---------------------

    Doubly Occupied:

       1A   -489.721717     2A    -64.861423     3A    -58.215945
       4A    -58.215942     5A    -58.215940     6A     -9.533162
       7A     -7.140509     8A     -7.140495     9A     -7.140479
      10A     -2.882203    11A     -2.882201    12A     -2.882185
      13A     -2.882181    14A     -2.882173    15A     -0.685992
      16A     -0.139338    17A     -0.139335    18A     -0.139331

  @DF-RHF Final Energy: -2572.53371398117633

   => Energetics <=

    Nuclear Repulsion Energy =              0.0000000000000000
    One-Electron Energy =               -3593.6663281657056359
    Two-Electron Energy =                1021.1326141845288475
    Total Energy =                      -2572.5337139811767884
 Dipole X            :          0.0000851            0.0000000            0.0000851
 Dipole Y            :          0.0001740            0.0000000            0.0001740
 Dipole Z            :          0.0000738            0.0000000            0.0000738
 Magnitude           :                                                    0.0002073
  Basis Set: (AUG-CC-PVTZ AUX)
    Blend: AUG-CC-PVTZ-RI
	 Reference Energy          =   -2572.5337139811763336 [Eh]
	 Singles Energy            =      -0.0000000000000000 [Eh]
	 Same-Spin Energy          =      -0.0900119025576263 [Eh]
	 Opposite-Spin Energy      =      -0.2093431964378379 [Eh]
	 Correlation Energy        =      -0.2993550989954642 [Eh]
	 Total Energy              =   -2572.8330690801717537 [Eh]

	 ================> DF-SCS-MP2 Energies <==================
	-----------------------------------------------------------
	 SCS Same-Spin Scale       =       0.3333333333333333 [-]
	 SCS Opposite-Spin Scale   =       1.2000000000000000 [-]
	 SCS Same-Spin Energy      =      -0.0300039675192088 [Eh]
	 SCS Opposite-Spin Energy  =      -0.2512118357254055 [Eh]
	 SCS Correlation Energy    =      -0.2812158032446143 [Eh]
	 SCS Total Energy          =   -2572.8149297844211105 [Eh]
	-----------------------------------------------------------

*** Psi4 exiting successfully. Buy a developer a beer!
