                               Psi4 1.8.2 release

  ==> Input File <==

--------------------------------------------------------------------------
MEMORY 60 GB

molecule dimer {
-1 1
Br         0.000000     0.000000     0.000000
O         -2.035183     0.505931    -2.714884
H         -1.976795     1.463081    -2.600066
H         -1.297730     0.131163    -2.176587
O          3.263034     0.338969    -1.106453
H          2.366786     0.373527    -0.759632
H          3.697550     0.015590    -0.296441
O          2.178094    -2.034010     1.585940
H          1.627600    -1.749935     0.822231
H          1.500081    -2.085197     2.285919
O          1.183323    -2.765482    -1.699569
H          0.620307    -3.433026    -1.331715
H          0.809411    -1.929569    -1.365631

units ang
no_reorient
no_com
symmetry c1
}

set {
basis        aug-cc-pVTZ
scf_type     df
}

energy("mp2")
--------------------------------------------------------------------------

    Molecular point group: c1

    Geometry (in Angstrom), charge = -1, multiplicity = 1:

       Center              X                  Y                   Z               Mass
    ------------   -----------------  -----------------  -----------------  -----------------
         BR           0.000000000000     0.000000000000     0.000000000000    78.918337600000
         O           -2.035183000000     0.505931000000    -2.714884000000    15.994914619570
         H           -1.976795000000     1.463081000000    -2.600066000000     1.007825032230
         H           -1.297730000000     0.131163000000    -2.176587000000     1.007825032230
         O            3.263034000000     0.338969000000    -1.106453000000    15.994914619570
         H            2.366786000000     0.373527000000    -0.759632000000     1.007825032230
         H            3.697550000000     0.015590000000    -0.296441000000     1.007825032230
         O            2.178094000000    -2.034010000000     1.585940000000    15.994914619570
         H            1.627600000000    -1.749935000000     0.822231000000     1.007825032230
         H            1.500081000000    -2.085197000000     2.285919000000     1.007825032230
         O            1.183323000000    -2.765482000000    -1.699569000000    15.994914619570
         H            0.620307000000    -3.433026000000    -1.331715000000     1.007825032230
         H            0.809411000000    -1.929569000000    -1.365631000000     1.007825032230

  Charge       = -1
  Multiplicity = 1
  Basis Set: AUG-CC-PVTZ
    Blend: AUG-CC-PVTZ
  Basis Set: (AUG-CC-PVTZ AUX)
    Blend: AUG-CC-PVTZ-JKFIT

    Orbital Energies [Eh]
    ---------------------

    Doubly Occupied:

       1A   -489.788607     2A    -64.929010     3A    -58.283514
       4A    -58.283493     5A    -58.283468     6A    -20.425622
       7A    -20.421253     8A    -20.418511     9A    -20.414037
      10A     -9.601383    11A     -7.208958    12A     -7.208820
      13A     -7.208757    14A     -2.950582    15A     -2.950545
      16A     -2.950475    17A     -2.950285    18A     -2.950284
      19A     -1.206464    20A     -1.201314    21A     -1.198334
      22A     -1.197698    23A     -0.765790    24A     -0.570313
      25A     -0.564731    26A     -0.555601    27A     -0.544088
      28A     -0.450783    29A     -0.446531    30A     -0.441694
      31A     -0.438482    32A     -0.370441    33A     -0.363956
      34A     -0.362503    35A     -0.356943    36A     -0.215902
      37A     -0.213865    38A     -0.212764

  @DF-RHF Final Energy: -2876.81580212816471

   => Energetics <=

    Nuclear Repulsion Energy =            332.4408397505719108
    One-Electron Energy =               -4680.7016808006128485
    Two-Electron Energy =                1471.4450389218754935
    Total Energy =                      -2876.8158021281651600
 Dipole X            :        -84.8555281           83.2638918           -1.5916363
 Dipole Y            :         74.2750614          -73.4179425            0.8571189
 Dipole Z            :         71.6921580          -69.7340121            1.9581459
 Magnitude           :                                                    2.6650130
  Basis Set: (AUG-CC-PVTZ AUX)
    Blend: AUG-CC-PVTZ-RI
	 Reference Energy          =   -2876.8158021281647052 [Eh]
	 Singles Energy            =      -0.0000000000000000 [Eh]
	 Same-Spin Energy          =      -0.3736006424862702 [Eh]
	 Opposite-Spin Energy      =      -1.0831285683146823 [Eh]
	 Correlation Energy        =      -1.4567292108009524 [Eh]
	 Total Energy              =   -2878.2725313389655639 [Eh]

	 ================> DF-SCS-MP2 Energies <==================
	-----------------------------------------------------------
	 SCS Same-Spin Scale       =       0.3333333333333333 [-]
	 SCS Opposite-Spin Scale   =       1.2000000000000000 [-]
	 SCS Same-Spin Energy      =      -0.1245335474954234 [Eh]
	 SCS Opposite-Spin Energy  =      -1.2997542819776187 [Eh]
	 SCS Correlation Energy    =      -1.4242878294730421 [Eh]
	 SCS Total Energy          =   -2878.2400899576377924 [Eh]
	-----------------------------------------------------------

*** Psi4 exiting successfully. Buy a developer a beer!
