                               Psi4 1.9 release

  ==> Input File <==

--------------------------------------------------------------------------
MEMORY 60 GB

molecule dimer {
-1 1
Br     0.000000     0.000000     0.000000
--
0 1
O     -1.375620     3.047926    -1.337998
H     -0.877399     3.716957    -0.861773
H     -0.951090     2.166142    -1.171486
O      2.709632    -1.863457     0.517570
H      2.540301    -2.686032     0.113931
H      1.960279    -1.257251     0.338176
O     -1.907275    -2.478936    -1.045372
H     -1.364393    -1.760338    -0.788272
H     -2.530730    -2.108684    -1.652647

units ang
no_reorient
no_com
symmetry c1
}

set {
basis        aug-cc-pVTZ
scf_type     df
}

energy("mp2", bsse_type="cp")
--------------------------------------------------------------------------

                               Psi4 1.9 release
    Molecular point group: c1
  Charge       = 0
  Multiplicity = 1
  Basis Set: AUG-CC-PVTZ
    Blend: AUG-CC-PVTZ
  Basis Set: (AUG-CC-PVTZ AUX)
    Blend: AUG-CC-PVTZ-JKFIT
  @DF-RHF Final Energy:  -228.17700344783938
    Total Energy =                       -228.1770034478393825
 Dipole X            :         10.9087204          -10.9776761           -0.0689556
 Dipole Y            :         23.6521346          -23.2151758            0.4369587
 Dipole Z            :         35.6016604          -35.8074207           -0.2057602
 Magnitude           :                                                    0.4878781
  Basis Set: (AUG-CC-PVTZ AUX)
    Blend: AUG-CC-PVTZ-RI
	 Reference Energy          =    -228.1770034478393825 [Eh]
	 Singles Energy            =      -0.0000000000000000 [Eh]
	 Same-Spin Energy          =      -0.2050840805841050 [Eh]
	 Opposite-Spin Energy      =      -0.6468805498777216 [Eh]
	 Correlation Energy        =      -0.8519646304618266 [Eh]
	 Total Energy              =    -229.0289680783012045 [Eh]
	 SCS Total Energy          =    -229.0216214678873428 [Eh]
                               Psi4 1.9 release
    Molecular point group: c1
  Multiplicity = 1
  Basis Set: AUG-CC-PVTZ
    Blend: AUG-CC-PVTZ
  Basis Set: (AUG-CC-PVTZ AUX)
    Blend: AUG-CC-PVTZ-JKFIT
  @DF-RHF Final Energy: -2572.53370873742961
    Total Energy =                      -2572.5337087374296061
  Basis Set: (AUG-CC-PVTZ AUX)
	 Singles Energy            =      -0.0000000000000000 [Eh]
	 Same-Spin Energy          =      -0.0898205769786970 [Eh]
	 Opposite-Spin Energy      =      -0.2089180898487059 [Eh]
	 Correlation Energy        =      -0.2987386668274029 [Eh]
	 Total Energy              =   -2572.8324474042569818 [Eh]
	 SCS Total Energy          =   -2572.8143506375740799 [Eh]
                               Psi4 1.9 release
    Molecular point group: c1

    Geometry (in Bohr), charge = -1, multiplicity = 1:

       Center              X                  Y                   Z               Mass
    ------------   -----------------  -----------------  -----------------  -----------------
         BR           0.000000000000     0.000000000000     0.000000000000    78.918337600000
         O           -2.599545052702     5.759745390662    -2.528449776410    15.994914619570
         H           -1.658043812751     7.024030750103    -1.628514952314     1.007825032230
         H           -1.797299620662     4.093415128851    -2.213787699808     1.007825032230
         O            5.120462380777    -3.521423376567     0.978065550753    15.994914619570
         H            4.800473166227    -5.075864844216     0.215298387200     1.007825032230
         H            3.704390439486    -2.375860060958     0.639060022203     1.007825032230
         O           -3.604227395933    -4.684510122538    -1.975466779222    15.994914619570
         H           -2.578329097492    -3.326556708236    -1.489618192367     1.007825032230
         H           -4.782386597480    -3.984835245135    -3.123050212060     1.007825032230

  Charge       = -1
  Multiplicity = 1
  Basis Set: AUG-CC-PVTZ
    Blend: AUG-CC-PVTZ
  Basis Set: (AUG-CC-PVTZ AUX)
    Blend: AUG-CC-PVTZ-JKFIT

    Orbital Energies [Eh]
    ---------------------

    Doubly Occupied:

       1A   -489.773258     2A    -64.913632     3A    -58.268133
       4A    -58.268113     5A    -58.268106     6A    -20.425215
       7A    -20.406364     8A    -20.401805     9A     -9.586003
      10A     -7.193620    11A     -7.193488    12A     -7.193295
      13A     -2.935284    14A     -2.935244    15A     -2.935048
      16A     -2.934882    17A     -2.934847    18A     -1.207191
      19A     -1.200512    20A     -1.192801    21A     -0.749765
      22A     -0.574634    23A     -0.573557    24A     -0.568560
      25A     -0.437728    26A     -0.436743    27A     -0.422400
      28A     -0.367641    29A     -0.358296    30A     -0.351137
      31A     -0.201754    32A     -0.199692    33A     -0.194465

  @DF-RHF Final Energy: -2800.75241130636368

   => Energetics <=

    Nuclear Repulsion Energy =            224.5640907794842462
    One-Electron Energy =               -4359.4265787020867720
    Two-Electron Energy =                1334.1100766162392119
    Total Energy =                      -2800.7524113063636833
 Dipole X            :         10.9283458          -10.9776761           -0.0493302
 Dipole Y            :         23.8537899          -23.2151758            0.6386141
 Dipole Z            :         35.8783176          -35.8074207            0.0708969
 Magnitude           :                                                    0.6444283
  Basis Set: (AUG-CC-PVTZ AUX)
    Blend: AUG-CC-PVTZ-RI
	 Reference Energy          =   -2800.7524113063636833 [Eh]
	 Singles Energy            =      -0.0000000000000000 [Eh]
	 Same-Spin Energy          =      -0.3011758573488285 [Eh]
	 Opposite-Spin Energy      =      -0.8603997857275874 [Eh]
	 Correlation Energy        =      -1.1615756430764159 [Eh]
	 Total Energy              =   -2801.9139869494401864 [Eh]

	 ================> DF-SCS-MP2 Energies <==================
	-----------------------------------------------------------
	 SCS Same-Spin Scale       =       0.3333333333333333 [-]
	 SCS Opposite-Spin Scale   =       1.2000000000000000 [-]
	 SCS Same-Spin Energy      =      -0.1003919524496095 [Eh]
	 SCS Opposite-Spin Energy  =      -1.0324797428731047 [Eh]
	 SCS Correlation Energy    =      -1.1328716953227143 [Eh]
	 SCS Total Energy          =   -2801.8852830016862754 [Eh]
	-----------------------------------------------------------

*** Psi4 exiting successfully. Buy a developer a beer!
