                               Psi4 1.8.2 release

  ==> Input File <==

--------------------------------------------------------------------------
MEMORY 60 GB

molecule dimer {
-1 1
Br         0.000000     0.000000     0.000000
O         -1.507113     3.153677     0.727512
H         -1.401126     3.534901     1.636011
H         -1.273360     2.251134     0.805090
O         -2.527257    -1.576289    -1.788391
H         -3.096049    -1.956530    -1.125070
H         -1.908040    -0.983812    -1.315649
O          2.401260     2.203563     1.435866
H          2.471673     2.594887     0.539971
H          1.670040     1.582303     1.398800
O         -1.730997    -2.235948     1.893891
H         -2.644870    -2.455969     1.750518
H         -1.534443    -1.597829     1.213875
O         -3.550632     0.657093     0.107045
H         -4.037137     1.096145    -0.565114
H         -2.546666     0.700240     0.067458
O          1.905718    -2.442782    -1.403529
H          2.150010    -1.702909    -1.963940
H          1.197651    -2.188600    -0.858966

units ang
no_reorient
no_com
symmetry c1
}

set {
basis        aug-cc-pVTZ
scf_type     df
}

energy("mp2")
--------------------------------------------------------------------------

    Molecular point group: c1

    Geometry (in Angstrom), charge = -1, multiplicity = 1:

       Center              X                  Y                   Z               Mass
    ------------   -----------------  -----------------  -----------------  -----------------
         BR           0.000000000000     0.000000000000     0.000000000000    78.918337600000
         O           -1.507113000000     3.153677000000     0.727512000000    15.994914619570
         H           -1.401126000000     3.534901000000     1.636011000000     1.007825032230
         H           -1.273360000000     2.251134000000     0.805090000000     1.007825032230
         O           -2.527257000000    -1.576289000000    -1.788391000000    15.994914619570
         H           -3.096049000000    -1.956530000000    -1.125070000000     1.007825032230
         H           -1.908040000000    -0.983812000000    -1.315649000000     1.007825032230
         O            2.401260000000     2.203563000000     1.435866000000    15.994914619570
         H            2.471673000000     2.594887000000     0.539971000000     1.007825032230
         H            1.670040000000     1.582303000000     1.398800000000     1.007825032230
         O           -1.730997000000    -2.235948000000     1.893891000000    15.994914619570
         H           -2.644870000000    -2.455969000000     1.750518000000     1.007825032230
         H           -1.534443000000    -1.597829000000     1.213875000000     1.007825032230
         O           -3.550632000000     0.657093000000     0.107045000000    15.994914619570
         H           -4.037137000000     1.096145000000    -0.565114000000     1.007825032230
         H           -2.546666000000     0.700240000000     0.067458000000     1.007825032230
         O            1.905718000000    -2.442782000000    -1.403529000000    15.994914619570
         H            2.150010000000    -1.702909000000    -1.963940000000     1.007825032230
         H            1.197651000000    -2.188600000000    -0.858966000000     1.007825032230

  Charge       = -1
  Multiplicity = 1
  Basis Set: AUG-CC-PVTZ
    Blend: AUG-CC-PVTZ
  Basis Set: (AUG-CC-PVTZ AUX)
    Blend: AUG-CC-PVTZ-JKFIT

    Orbital Energies [Eh]
    ---------------------

    Doubly Occupied:

       1A   -489.806692     2A    -64.947112     3A    -58.301633
       4A    -58.301602     5A    -58.301571     6A    -20.442631
       7A    -20.436007     8A    -20.434688     9A    -20.430724
      10A    -20.425652    11A    -20.420056    12A     -9.619391
      13A     -7.227086    14A     -7.226915    15A     -7.226627
      16A     -2.968775    17A     -2.968740    18A     -2.968420
      19A     -2.968193    20A     -2.968127    21A     -1.227527
      22A     -1.223232    23A     -1.216289    24A     -1.215090
      25A     -1.214971    26A     -1.208454    27A     -0.785269
      28A     -0.612074    29A     -0.593986    30A     -0.593086
      31A     -0.587228    32A     -0.583902    33A     -0.579230
      34A     -0.460888    35A     -0.458067    36A     -0.452761
      37A     -0.444835    38A     -0.442747    39A     -0.434738
      40A     -0.394099    41A     -0.382868    42A     -0.378648
      43A     -0.377438    44A     -0.370555    45A     -0.362688
      46A     -0.236630    47A     -0.234610    48A     -0.229406

  @DF-RHF Final Energy: -3028.94259963372451

   => Energetics <=

    Nuclear Repulsion Energy =            549.3679533221832116
    One-Electron Energy =               -5325.2371780669991495
    Two-Electron Energy =                1746.9266251110918802
    Total Energy =                      -3028.9425996337240576
 Dipole X            :         96.3287091          -96.4223023           -0.0935933
 Dipole Y            :          2.9678859           -1.9870980            0.9807878
 Dipole Z            :        -18.0140245           17.6918730           -0.3221515
 Magnitude           :                                                    1.0365742
  Basis Set: (AUG-CC-PVTZ AUX)
    Blend: AUG-CC-PVTZ-RI
	 Reference Energy          =   -3028.9425996337245124 [Eh]
	 Singles Energy            =      -0.0000000000000000 [Eh]
	 Same-Spin Energy          =      -0.5131722722428835 [Eh]
	 Opposite-Spin Energy      =      -1.5166954618776864 [Eh]
	 Correlation Energy        =      -2.0298677341205700 [Eh]
	 Total Energy              =   -3030.9724673678451836 [Eh]

	 ================> DF-SCS-MP2 Energies <==================
	-----------------------------------------------------------
	 SCS Same-Spin Scale       =       0.3333333333333333 [-]
	 SCS Opposite-Spin Scale   =       1.2000000000000000 [-]
	 SCS Same-Spin Energy      =      -0.1710574240809612 [Eh]
	 SCS Opposite-Spin Energy  =      -1.8200345542532237 [Eh]
	 SCS Correlation Energy    =      -1.9910919783341849 [Eh]
	 SCS Total Energy          =   -3030.9336916120587375 [Eh]
	-----------------------------------------------------------

*** Psi4 exiting successfully. Buy a developer a beer!
