                               Psi4 1.8.2 release

  ==> Input File <==

--------------------------------------------------------------------------
MEMORY 60 GB

molecule dimer {
-1 1
Br         0.000000     0.000000     0.000000
O         -0.398772     2.771226    -1.737852
H         -0.167454     1.894529    -1.346899
H         -0.309653     3.428697    -1.020919
O         -3.339806     0.323665     0.990808
H         -2.438001     0.132101     0.746811
H         -3.184475     1.038662     1.636400
O          1.126320     0.799653     2.994782
H          0.909928     0.462489     2.111776
H          1.413076     1.689178     2.896339
O          2.367838    -2.599542    -0.056597
H          3.092019    -3.163533    -0.291148
H          2.688477    -1.665096    -0.038083
O          2.789469     1.923029    -0.987849
H          2.065767     1.315362    -0.700213
H          3.541717     1.356749    -1.006051
O         -0.911427     2.834175     1.397650
H         -0.109751     3.206318     1.722669
H         -0.618486     2.164510     0.761354

units ang
no_reorient
no_com
symmetry c1
}

set {
basis        aug-cc-pVTZ
scf_type     df
}

energy("mp2")
--------------------------------------------------------------------------

    Molecular point group: c1

    Geometry (in Angstrom), charge = -1, multiplicity = 1:

       Center              X                  Y                   Z               Mass
    ------------   -----------------  -----------------  -----------------  -----------------
         BR           0.000000000000     0.000000000000     0.000000000000    78.918337600000
         O           -0.398772000000     2.771226000000    -1.737852000000    15.994914619570
         H           -0.167454000000     1.894529000000    -1.346899000000     1.007825032230
         H           -0.309653000000     3.428697000000    -1.020919000000     1.007825032230
         O           -3.339806000000     0.323665000000     0.990808000000    15.994914619570
         H           -2.438001000000     0.132101000000     0.746811000000     1.007825032230
         H           -3.184475000000     1.038662000000     1.636400000000     1.007825032230
         O            1.126320000000     0.799653000000     2.994782000000    15.994914619570
         H            0.909928000000     0.462489000000     2.111776000000     1.007825032230
         H            1.413076000000     1.689178000000     2.896339000000     1.007825032230
         O            2.367838000000    -2.599542000000    -0.056597000000    15.994914619570
         H            3.092019000000    -3.163533000000    -0.291148000000     1.007825032230
         H            2.688477000000    -1.665096000000    -0.038083000000     1.007825032230
         O            2.789469000000     1.923029000000    -0.987849000000    15.994914619570
         H            2.065767000000     1.315362000000    -0.700213000000     1.007825032230
         H            3.541717000000     1.356749000000    -1.006051000000     1.007825032230
         O           -0.911427000000     2.834175000000     1.397650000000    15.994914619570
         H           -0.109751000000     3.206318000000     1.722669000000     1.007825032230
         H           -0.618486000000     2.164510000000     0.761354000000     1.007825032230

  Charge       = -1
  Multiplicity = 1
  Basis Set: AUG-CC-PVTZ
    Blend: AUG-CC-PVTZ
  Basis Set: (AUG-CC-PVTZ AUX)
    Blend: AUG-CC-PVTZ-JKFIT

    Orbital Energies [Eh]
    ---------------------

    Doubly Occupied:

       1A   -489.805155     2A    -64.945775     3A    -58.300283
       4A    -58.300232     5A    -58.300214     6A    -20.458985
       7A    -20.444142     8A    -20.433034     9A    -20.422068
      10A    -20.416318    11A    -20.411185    12A     -9.618212
      13A     -7.225897    14A     -7.225665    15A     -7.225563
      16A     -2.967521    17A     -2.967472    18A     -2.967321
      19A     -2.967000    20A     -2.966982    21A     -1.237720
      22A     -1.229737    23A     -1.227513    24A     -1.214097
      25A     -1.201750    26A     -1.186602    27A     -0.789062
      28A     -0.611174    29A     -0.592514    30A     -0.589814
      31A     -0.586566    32A     -0.556967    33A     -0.553533
      34A     -0.468018    35A     -0.466110    36A     -0.464814
      37A     -0.446456    38A     -0.444051    39A     -0.428752
      40A     -0.399696    41A     -0.388848    42A     -0.384967
      43A     -0.366856    44A     -0.360843    45A     -0.352838
      46A     -0.235778    47A     -0.232489    48A     -0.231136

  @DF-RHF Final Energy: -3028.93408928146118

   => Energetics <=

    Nuclear Repulsion Energy =            567.8061858342858841
    One-Electron Energy =               -5362.2450916495090496
    Two-Electron Energy =                1765.5048165337616410
    Total Energy =                      -3028.9340892814611834
 Dipole X            :        -35.5835236           37.7040802            2.1205566
 Dipole Y            :       -115.0100541          113.9081820           -1.1018721
 Dipole Z            :        -49.7868234           49.6611938           -0.1256296
 Magnitude           :                                                    2.3930452
  Basis Set: (AUG-CC-PVTZ AUX)
    Blend: AUG-CC-PVTZ-RI
	 Reference Energy          =   -3028.9340892814611834 [Eh]
	 Singles Energy            =      -0.0000000000000000 [Eh]
	 Same-Spin Energy          =      -0.5177858313140863 [Eh]
	 Opposite-Spin Energy      =      -1.5244975270624399 [Eh]
	 Correlation Energy        =      -2.0422833583765261 [Eh]
	 Total Energy              =   -3030.9763726398377912 [Eh]

	 ================> DF-SCS-MP2 Energies <==================
	-----------------------------------------------------------
	 SCS Same-Spin Scale       =       0.3333333333333333 [-]
	 SCS Opposite-Spin Scale   =       1.2000000000000000 [-]
	 SCS Same-Spin Energy      =      -0.1725952771046954 [Eh]
	 SCS Opposite-Spin Energy  =      -1.8293970324749278 [Eh]
	 SCS Correlation Energy    =      -2.0019923095796233 [Eh]
	 SCS Total Energy          =   -3030.9360815910408746 [Eh]
	-----------------------------------------------------------

*** Psi4 exiting successfully. Buy a developer a beer!
