                               Psi4 1.8.2 release

  ==> Input File <==

--------------------------------------------------------------------------
MEMORY 60 GB

molecule dimer {
0 1
Gh(Br)     0.000000     0.000000     0.000000
O          3.287674    -0.889413    -0.174356
H          2.291823    -0.896161    -0.076636
H          3.344902    -0.512476    -1.041446
Gh(O)      0.571519     3.175317    -0.846170
Gh(H)      0.928904     2.305382    -0.539798
Gh(H)      1.302047     3.732851    -1.068660
Gh(O)      0.642149    -1.354710    -2.748407
Gh(H)      0.407845    -0.866599    -1.970799
Gh(H)     -0.147391    -1.177426    -3.323453

units ang
no_reorient
no_com
symmetry c1
}

set {
basis        aug-cc-pVTZ
scf_type     df
}

energy("mp2")
--------------------------------------------------------------------------

    Molecular point group: c1

    Geometry (in Angstrom), charge = 0, multiplicity = 1:

       Center              X                  Y                   Z               Mass
    ------------   -----------------  -----------------  -----------------  -----------------
      Gh(BR)          0.000000000000     0.000000000000     0.000000000000    78.918337600000
         O            3.287674000000    -0.889413000000    -0.174356000000    15.994914619570
         H            2.291823000000    -0.896161000000    -0.076636000000     1.007825032230
         H            3.344902000000    -0.512476000000    -1.041446000000     1.007825032230
      Gh(O)           0.571519000000     3.175317000000    -0.846170000000    15.994914619570
      Gh(H)           0.928904000000     2.305382000000    -0.539798000000     1.007825032230
      Gh(H)           1.302047000000     3.732851000000    -1.068660000000     1.007825032230
      Gh(O)           0.642149000000    -1.354710000000    -2.748407000000    15.994914619570
      Gh(H)           0.407845000000    -0.866599000000    -1.970799000000     1.007825032230
      Gh(H)          -0.147391000000    -1.177426000000    -3.323453000000     1.007825032230

  Charge       = 0
  Multiplicity = 1
  Basis Set: AUG-CC-PVTZ
    Blend: AUG-CC-PVTZ
  Basis Set: (AUG-CC-PVTZ AUX)
    Blend: AUG-CC-PVTZ-JKFIT

    Orbital Energies [Eh]
    ---------------------

    Doubly Occupied:

       1A    -20.572408     2A     -1.349889     3A     -0.697835
       4A     -0.592643     5A     -0.510750

  @DF-RHF Final Energy:   -76.05667114993908

   => Energetics <=

    Nuclear Repulsion Energy =              9.0578330628295731
    One-Electron Energy =                -122.7819549094431864
    Two-Electron Energy =                  37.6674506966745426
    Total Energy =                        -76.0566711499390635
 Dipole X            :        -60.9554077           60.3542941           -0.6011136
 Dipole Y            :         16.3505771          -16.1079140            0.2426631
 Dipole Z            :          4.2430048           -4.7487495           -0.5057447
 Magnitude           :                                                    0.8221926
  Basis Set: (AUG-CC-PVTZ AUX)
    Blend: AUG-CC-PVTZ-RI
	 Reference Energy          =     -76.0566711499390777 [Eh]
	 Singles Energy            =      -0.0000000000000000 [Eh]
	 Same-Spin Energy          =      -0.0688085706921826 [Eh]
	 Opposite-Spin Energy      =      -0.2168951069471271 [Eh]
	 Correlation Energy        =      -0.2857036776393097 [Eh]
	 Total Energy              =     -76.3423748275783822 [Eh]

	 ================> DF-SCS-MP2 Energies <==================
	-----------------------------------------------------------
	 SCS Same-Spin Scale       =       0.3333333333333333 [-]
	 SCS Opposite-Spin Scale   =       1.2000000000000000 [-]
	 SCS Same-Spin Energy      =      -0.0229361902307275 [Eh]
	 SCS Opposite-Spin Energy  =      -0.2602741283365526 [Eh]
	 SCS Correlation Energy    =      -0.2832103185672801 [Eh]
	 SCS Total Energy          =     -76.3398814685063627 [Eh]
	-----------------------------------------------------------

*** Psi4 exiting successfully. Buy a developer a beer!
