                               Psi4 1.8.2 release

  ==> Input File <==

--------------------------------------------------------------------------
MEMORY 60 GB

molecule dimer {
-1 1
Br         0.000000     0.000000     0.000000
Gh(O)      0.537883    -2.592701     1.926681
Gh(H)     -0.386009    -2.598137     2.112065
Gh(H)      0.722606    -1.933912     1.307501
Gh(O)      1.291657    -2.839776    -1.063081
Gh(H)      0.556916    -2.277466    -0.805116
Gh(H)      1.883573    -2.161705    -1.372666
Gh(O)     -1.874314    -0.408243     2.636827
Gh(H)     -1.328717    -0.039733     1.938784
Gh(H)     -2.727285    -0.453675     2.229542

units ang
no_reorient
no_com
symmetry c1
}

set {
basis        aug-cc-pVTZ
scf_type     df
}

energy("mp2")
--------------------------------------------------------------------------

    Molecular point group: c1

    Geometry (in Angstrom), charge = -1, multiplicity = 1:

       Center              X                  Y                   Z               Mass
    ------------   -----------------  -----------------  -----------------  -----------------
         BR           0.000000000000     0.000000000000     0.000000000000    78.918337600000
      Gh(O)           0.537883000000    -2.592701000000     1.926681000000    15.994914619570
      Gh(H)          -0.386009000000    -2.598137000000     2.112065000000     1.007825032230
      Gh(H)           0.722606000000    -1.933912000000     1.307501000000     1.007825032230
      Gh(O)           1.291657000000    -2.839776000000    -1.063081000000    15.994914619570
      Gh(H)           0.556916000000    -2.277466000000    -0.805116000000     1.007825032230
      Gh(H)           1.883573000000    -2.161705000000    -1.372666000000     1.007825032230
      Gh(O)          -1.874314000000    -0.408243000000     2.636827000000    15.994914619570
      Gh(H)          -1.328717000000    -0.039733000000     1.938784000000     1.007825032230
      Gh(H)          -2.727285000000    -0.453675000000     2.229542000000     1.007825032230

  Charge       = -1
  Multiplicity = 1
  Basis Set: AUG-CC-PVTZ
    Blend: AUG-CC-PVTZ
  Basis Set: (AUG-CC-PVTZ AUX)
    Blend: AUG-CC-PVTZ-JKFIT

    Orbital Energies [Eh]
    ---------------------

    Doubly Occupied:

       1A   -489.721580     2A    -64.861333     3A    -58.215849
       4A    -58.215847     5A    -58.215845     6A     -9.533136
       7A     -7.140489     8A     -7.140466     9A     -7.140459
      10A     -2.882175    11A     -2.882172    12A     -2.882165
      13A     -2.882149    14A     -2.882141    15A     -0.685995
      16A     -0.139340    17A     -0.139337    18A     -0.139334

  @DF-RHF Final Energy: -2572.53370855935918

   => Energetics <=

    Nuclear Repulsion Energy =              0.0000000000000000
    One-Electron Energy =               -3593.6677903315803633
    Two-Electron Energy =                1021.1340817722214069
    Total Energy =                      -2572.5337085593591837
 Dipole X            :          0.0000561            0.0000000            0.0000561
 Dipole Y            :         -0.0001370            0.0000000           -0.0001370
 Dipole Z            :          0.0001684            0.0000000            0.0001684
 Magnitude           :                                                    0.0002242
  Basis Set: (AUG-CC-PVTZ AUX)
    Blend: AUG-CC-PVTZ-RI
	 Reference Energy          =   -2572.5337085593591837 [Eh]
	 Singles Energy            =      -0.0000000000000000 [Eh]
	 Same-Spin Energy          =      -0.0897096913220651 [Eh]
	 Opposite-Spin Energy      =      -0.2086851983580383 [Eh]
	 Correlation Energy        =      -0.2983948896801034 [Eh]
	 Total Energy              =   -2572.8321034490390957 [Eh]

	 ================> DF-SCS-MP2 Energies <==================
	-----------------------------------------------------------
	 SCS Same-Spin Scale       =       0.3333333333333333 [-]
	 SCS Opposite-Spin Scale   =       1.2000000000000000 [-]
	 SCS Same-Spin Energy      =      -0.0299032304406884 [Eh]
	 SCS Opposite-Spin Energy  =      -0.2504222380296460 [Eh]
	 SCS Correlation Energy    =      -0.2803254684703343 [Eh]
	 SCS Total Energy          =   -2572.8140340278296208 [Eh]
	-----------------------------------------------------------

*** Psi4 exiting successfully. Buy a developer a beer!
