                               Psi4 1.9 release

  ==> Input File <==

--------------------------------------------------------------------------
MEMORY 60 GB

molecule dimer {
-1 1
Br     0.000000     0.000000     0.000000
--
0 1
O      2.118565     1.377600    -2.222428
H      1.524510     1.021254    -1.485349
H      2.481666     0.625784    -2.731423
O      1.458491    -2.150671    -1.922163
H      0.842838    -1.646061    -1.317309
H      2.186106    -1.568774    -2.026988
O      1.457423     0.149191     3.119476
H      1.197132    -0.104181     2.235110
H      2.162739    -0.500210     3.388672
O     -0.225623    -2.782781     2.045966
H     -0.289413    -2.198172     2.800474
H     -0.483719    -2.262648     1.280829
O      3.373774    -0.713926     0.596505
H      3.202858    -1.598986     0.946685
H      2.570736    -0.305260     0.273215

units ang
no_reorient
no_com
symmetry c1
}

set {
basis        aug-cc-pVTZ
scf_type     df
}

energy("mp2", bsse_type="cp")
--------------------------------------------------------------------------

                               Psi4 1.9 release
    Molecular point group: c1
  Charge       = 0
  Multiplicity = 1
  Basis Set: AUG-CC-PVTZ
    Blend: AUG-CC-PVTZ
  Basis Set: (AUG-CC-PVTZ AUX)
    Blend: AUG-CC-PVTZ-JKFIT
  @DF-RHF Final Energy:  -380.27890013912378
    Total Energy =                       -380.2789001391237775
 Dipole X            :       -153.3068075          152.7966272           -0.5101803
 Dipole Y            :         78.2080128          -78.4273192           -0.2193063
 Dipole Z            :        -30.7341669           30.8077590            0.0735922
 Magnitude           :                                                    0.5601741
  Basis Set: (AUG-CC-PVTZ AUX)
    Blend: AUG-CC-PVTZ-RI
	 Reference Energy          =    -380.2789001391237775 [Eh]
	 Singles Energy            =      -0.0000000000000000 [Eh]
	 Same-Spin Energy          =      -0.3457377644212365 [Eh]
	 Opposite-Spin Energy      =      -1.0860941450163597 [Eh]
	 Correlation Energy        =      -1.4318319094375962 [Eh]
	 Total Energy              =    -381.7107320485613968 [Eh]
	 SCS Total Energy          =    -381.6974590346171681 [Eh]
                               Psi4 1.9 release
    Molecular point group: c1
  Multiplicity = 1
  Basis Set: AUG-CC-PVTZ
    Blend: AUG-CC-PVTZ
  Basis Set: (AUG-CC-PVTZ AUX)
    Blend: AUG-CC-PVTZ-JKFIT
  @DF-RHF Final Energy: -2572.53373114727401
    Total Energy =                      -2572.5337311472740112
  Basis Set: (AUG-CC-PVTZ AUX)
	 Singles Energy            =      -0.0000000000000000 [Eh]
	 Same-Spin Energy          =      -0.0914282647201848 [Eh]
	 Opposite-Spin Energy      =      -0.2129023380827706 [Eh]
	 Correlation Energy        =      -0.3043306028029554 [Eh]
	 Total Energy              =   -2572.8380617500770313 [Eh]
	 SCS Total Energy          =   -2572.8196900412135619 [Eh]
                               Psi4 1.9 release
    Molecular point group: c1

    Geometry (in Bohr), charge = -1, multiplicity = 1:

       Center              X                  Y                   Z               Mass
    ------------   -----------------  -----------------  -----------------  -----------------
         BR           0.000000000000     0.000000000000     0.000000000000    78.918337600000
         O            4.003507628981     2.603286710431    -4.199780253549    15.994914619570
         H            2.880906375522     1.929890364528    -2.806902810723     1.007825032230
         H            4.689669074860     1.182560373694    -5.161641402776     1.007825032230
         O            2.756148546445    -4.064179175965    -3.632361638488    15.994914619570
         H            1.592732988129    -3.110604475797    -2.489353232601     1.007825032230
         H            4.131141621220    -2.964553212739    -3.830452179590     1.007825032230
         O            2.754130318943     0.281930130383     5.894955294939    15.994914619570
         H            2.262251616022    -0.196873557476     4.223745760272     1.007825032230
         H            4.086984390847    -0.945259905215     6.403662009007     1.007825032230
         O           -0.426365677604    -5.258693957128     3.866315401998    15.994914619570
         H           -0.546911307147    -4.153943056650     5.292128881465     1.007825032230
         H           -0.914096431680    -4.275785038315     2.420416023544     1.007825032230
         O            6.375508869190    -1.349124613844     1.127231082466    15.994914619570
         H            6.052524438732    -3.021645618441     1.788975377079     1.007825032230
         H            4.857986980855    -0.576857797057     0.516301523367     1.007825032230

  Charge       = -1
  Multiplicity = 1
  Basis Set: AUG-CC-PVTZ
    Blend: AUG-CC-PVTZ
  Basis Set: (AUG-CC-PVTZ AUX)
    Blend: AUG-CC-PVTZ-JKFIT

    Orbital Energies [Eh]
    ---------------------

    Doubly Occupied:

       1A   -489.804831     2A    -64.945386     3A    -58.299893
       4A    -58.299853     5A    -58.299837     6A    -20.432988
       7A    -20.432844     8A    -20.431412     9A    -20.427740
      10A    -20.416977    11A     -9.617814    12A     -7.225479
      13A     -7.225268    14A     -7.225170    15A     -2.967099
      16A     -2.967025    17A     -2.966923    18A     -2.966655
      19A     -2.966637    20A     -1.220822    21A     -1.216868
      22A     -1.208691    23A     -1.203802    24A     -1.193509
      25A     -0.786778    26A     -0.598785    27A     -0.590057
      28A     -0.576681    29A     -0.568947    30A     -0.564834
      31A     -0.455635    32A     -0.452799    33A     -0.450023
      34A     -0.439980    35A     -0.430754    36A     -0.385514
      37A     -0.379820    38A     -0.370478    39A     -0.366229
      40A     -0.361472    41A     -0.234275    42A     -0.231059
      43A     -0.230519

  @DF-RHF Final Energy: -2952.87705217235680

   => Energetics <=

    Nuclear Repulsion Energy =            456.5387392527835573
    One-Electron Energy =               -5033.9552452376865403
    Two-Electron Energy =                1624.5394538125456165
    Total Energy =                      -2952.8770521723572529
 Dipole X            :       -154.2891097          152.7966272           -1.4924825
 Dipole Y            :         78.7234573          -78.4273192            0.2961381
 Dipole Z            :        -30.6751089           30.8077590            0.1326501
 Magnitude           :                                                    1.5273499
  Basis Set: (AUG-CC-PVTZ AUX)
    Blend: AUG-CC-PVTZ-RI
	 Reference Energy          =   -2952.8770521723567981 [Eh]
	 Singles Energy            =      -0.0000000000000000 [Eh]
	 Same-Spin Energy          =      -0.4471497610835598 [Eh]
	 Opposite-Spin Energy      =      -1.3060721589768842 [Eh]
	 Correlation Energy        =      -1.7532219200604440 [Eh]
	 Total Energy              =   -2954.6302740924170394 [Eh]

	 ================> DF-SCS-MP2 Energies <==================
	-----------------------------------------------------------
	 SCS Same-Spin Scale       =       0.3333333333333333 [-]
	 SCS Opposite-Spin Scale   =       1.2000000000000000 [-]
	 SCS Same-Spin Energy      =      -0.1490499203611866 [Eh]
	 SCS Opposite-Spin Energy  =      -1.5672865907722611 [Eh]
	 SCS Correlation Energy    =      -1.7163365111334477 [Eh]
	 SCS Total Energy          =   -2954.5933886834900477 [Eh]
	-----------------------------------------------------------

*** Psi4 exiting successfully. Buy a developer a beer!
