                               Psi4 1.8.2 release

  ==> Input File <==

--------------------------------------------------------------------------
MEMORY 60 GB

molecule dimer {
-1 1
Br         0.000000     0.000000     0.000000
Gh(O)     -2.305583    -2.407606     0.494450
Gh(H)     -1.867709    -1.598552     0.196248
Gh(H)     -2.635182    -2.303553     1.364687
Gh(O)     -2.542743     1.435325     1.136668
Gh(H)     -2.316989     2.197870     1.699100
Gh(H)     -1.797245     0.909355     0.922860
Gh(O)     -0.667402     0.006100     3.273615
Gh(H)     -1.303297     0.663052     3.442756
Gh(H)     -0.519269    -0.098645     2.327999
Gh(O)      2.326692     2.113075     1.613902
Gh(H)      1.497957     1.639342     1.313777
Gh(H)      2.985432     1.613206     1.112036

units ang
no_reorient
no_com
symmetry c1
}

set {
basis        aug-cc-pVTZ
scf_type     df
}

energy("mp2")
--------------------------------------------------------------------------

    Molecular point group: c1

    Geometry (in Angstrom), charge = -1, multiplicity = 1:

       Center              X                  Y                   Z               Mass
    ------------   -----------------  -----------------  -----------------  -----------------
         BR           0.000000000000     0.000000000000     0.000000000000    78.918337600000
      Gh(O)          -2.305583000000    -2.407606000000     0.494450000000    15.994914619570
      Gh(H)          -1.867709000000    -1.598552000000     0.196248000000     1.007825032230
      Gh(H)          -2.635182000000    -2.303553000000     1.364687000000     1.007825032230
      Gh(O)          -2.542743000000     1.435325000000     1.136668000000    15.994914619570
      Gh(H)          -2.316989000000     2.197870000000     1.699100000000     1.007825032230
      Gh(H)          -1.797245000000     0.909355000000     0.922860000000     1.007825032230
      Gh(O)          -0.667402000000     0.006100000000     3.273615000000    15.994914619570
      Gh(H)          -1.303297000000     0.663052000000     3.442756000000     1.007825032230
      Gh(H)          -0.519269000000    -0.098645000000     2.327999000000     1.007825032230
      Gh(O)           2.326692000000     2.113075000000     1.613902000000    15.994914619570
      Gh(H)           1.497957000000     1.639342000000     1.313777000000     1.007825032230
      Gh(H)           2.985432000000     1.613206000000     1.112036000000     1.007825032230

  Charge       = -1
  Multiplicity = 1
  Basis Set: AUG-CC-PVTZ
    Blend: AUG-CC-PVTZ
  Basis Set: (AUG-CC-PVTZ AUX)
    Blend: AUG-CC-PVTZ-JKFIT

    Orbital Energies [Eh]
    ---------------------

    Doubly Occupied:

       1A   -489.721987     2A    -64.861626     3A    -58.216156
       4A    -58.216154     5A    -58.216153     6A     -9.533234
       7A     -7.140576     8A     -7.140560     9A     -7.140554
      10A     -2.882278    11A     -2.882273    12A     -2.882266
      13A     -2.882252    14A     -2.882234    15A     -0.685993
      16A     -0.139339    17A     -0.139335    18A     -0.139333

  @DF-RHF Final Energy: -2572.53372164463235

   => Energetics <=

    Nuclear Repulsion Energy =              0.0000000000000000
    One-Electron Energy =               -3593.6628357089598467
    Two-Electron Energy =                1021.1291140643276094
    Total Energy =                      -2572.5337216446323509
 Dipole X            :         -0.0001286            0.0000000           -0.0001286
 Dipole Y            :         -0.0000096            0.0000000           -0.0000096
 Dipole Z            :          0.0001966            0.0000000            0.0001966
 Magnitude           :                                                    0.0002351
  Basis Set: (AUG-CC-PVTZ AUX)
    Blend: AUG-CC-PVTZ-RI
	 Reference Energy          =   -2572.5337216446323509 [Eh]
	 Singles Energy            =      -0.0000000000000000 [Eh]
	 Same-Spin Energy          =      -0.0907889606561810 [Eh]
	 Opposite-Spin Energy      =      -0.2114388227210799 [Eh]
	 Correlation Energy        =      -0.3022277833772609 [Eh]
	 Total Energy              =   -2572.8359494280098261 [Eh]

	 ================> DF-SCS-MP2 Energies <==================
	-----------------------------------------------------------
	 SCS Same-Spin Scale       =       0.3333333333333333 [-]
	 SCS Opposite-Spin Scale   =       1.2000000000000000 [-]
	 SCS Same-Spin Energy      =      -0.0302629868853937 [Eh]
	 SCS Opposite-Spin Energy  =      -0.2537265872652959 [Eh]
	 SCS Correlation Energy    =      -0.2839895741506895 [Eh]
	 SCS Total Energy          =   -2572.8177112187831881 [Eh]
	-----------------------------------------------------------

*** Psi4 exiting successfully. Buy a developer a beer!
