                               Psi4 1.8.2 release

  ==> Input File <==

--------------------------------------------------------------------------
MEMORY 60 GB

molecule dimer {
0 1
Gh(Br)     0.000000     0.000000     0.000000
Gh(O)     -0.532809     1.922738    -2.739100
Gh(H)     -0.280531     1.490316    -1.875736
Gh(H)     -0.953311     1.232509    -3.332771
Gh(O)     -1.825040     1.989986     2.364796
Gh(H)     -1.476176     1.902850     3.256188
Gh(H)     -1.117718     1.930523     1.713505
O          1.897897    -0.527032    -2.560802
H          2.254682     0.294757    -2.824082
H          1.284234    -0.440483    -1.819197
Gh(O)     -3.381797     0.146011    -0.729659
Gh(H)     -3.647086     0.178508     0.207781
Gh(H)     -2.420093     0.129388    -0.713625
Gh(O)     -1.303184    -2.414765    -1.874233
Gh(H)     -0.735005    -2.478283    -2.608129
Gh(H)     -1.009543    -1.639149    -1.422000

units ang
no_reorient
no_com
symmetry c1
}

set {
basis        aug-cc-pVTZ
scf_type     df
}

energy("mp2")
--------------------------------------------------------------------------

    Molecular point group: c1

    Geometry (in Angstrom), charge = 0, multiplicity = 1:

       Center              X                  Y                   Z               Mass
    ------------   -----------------  -----------------  -----------------  -----------------
      Gh(BR)          0.000000000000     0.000000000000     0.000000000000    78.918337600000
      Gh(O)          -0.532809000000     1.922738000000    -2.739100000000    15.994914619570
      Gh(H)          -0.280531000000     1.490316000000    -1.875736000000     1.007825032230
      Gh(H)          -0.953311000000     1.232509000000    -3.332771000000     1.007825032230
      Gh(O)          -1.825040000000     1.989986000000     2.364796000000    15.994914619570
      Gh(H)          -1.476176000000     1.902850000000     3.256188000000     1.007825032230
      Gh(H)          -1.117718000000     1.930523000000     1.713505000000     1.007825032230
         O            1.897897000000    -0.527032000000    -2.560802000000    15.994914619570
         H            2.254682000000     0.294757000000    -2.824082000000     1.007825032230
         H            1.284234000000    -0.440483000000    -1.819197000000     1.007825032230
      Gh(O)          -3.381797000000     0.146011000000    -0.729659000000    15.994914619570
      Gh(H)          -3.647086000000     0.178508000000     0.207781000000     1.007825032230
      Gh(H)          -2.420093000000     0.129388000000    -0.713625000000     1.007825032230
      Gh(O)          -1.303184000000    -2.414765000000    -1.874233000000    15.994914619570
      Gh(H)          -0.735005000000    -2.478283000000    -2.608129000000     1.007825032230
      Gh(H)          -1.009543000000    -1.639149000000    -1.422000000000     1.007825032230

  Charge       = 0
  Multiplicity = 1
  Basis Set: AUG-CC-PVTZ
    Blend: AUG-CC-PVTZ
  Basis Set: (AUG-CC-PVTZ AUX)
    Blend: AUG-CC-PVTZ-JKFIT

    Orbital Energies [Eh]
    ---------------------

    Doubly Occupied:

       1A    -20.562235     2A     -1.351999     3A     -0.736381
       4A     -0.570974     5A     -0.508629

  @DF-RHF Final Energy:   -76.05951051920009

   => Energetics <=

    Nuclear Repulsion Energy =              9.2491529304309932
    One-Electron Energy =                -123.1568896151771213
    Two-Electron Energy =                  37.8482261655460377
    Total Energy =                        -76.0595105192000887
 Dipole X            :        -35.5529656           35.3796264           -0.1733392
 Dipole Y            :          8.8673800           -8.2429513            0.6244286
 Dipole Z            :         47.8136572          -47.4882412            0.3254160
 Magnitude           :                                                    0.7251573
  Basis Set: (AUG-CC-PVTZ AUX)
    Blend: AUG-CC-PVTZ-RI
	 Reference Energy          =     -76.0595105192000887 [Eh]
	 Singles Energy            =      -0.0000000000000000 [Eh]
	 Same-Spin Energy          =      -0.0681958952770892 [Eh]
	 Opposite-Spin Energy      =      -0.2153347617365285 [Eh]
	 Correlation Energy        =      -0.2835306570136177 [Eh]
	 Total Energy              =     -76.3430411762137027 [Eh]

	 ================> DF-SCS-MP2 Energies <==================
	-----------------------------------------------------------
	 SCS Same-Spin Scale       =       0.3333333333333333 [-]
	 SCS Opposite-Spin Scale   =       1.2000000000000000 [-]
	 SCS Same-Spin Energy      =      -0.0227319650923631 [Eh]
	 SCS Opposite-Spin Energy  =      -0.2584017140838342 [Eh]
	 SCS Correlation Energy    =      -0.2811336791761972 [Eh]
	 SCS Total Energy          =     -76.3406441983762818 [Eh]
	-----------------------------------------------------------

*** Psi4 exiting successfully. Buy a developer a beer!
