                               Psi4 1.8.2 release

  ==> Input File <==

--------------------------------------------------------------------------
MEMORY 60 GB

molecule dimer {
0 1
Gh(Br)     0.000000     0.000000     0.000000
O          0.341150     0.776241    -3.513535
H          0.559687     1.745389    -3.643795
H          0.259971     0.595020    -2.572308
Gh(O)     -3.228866     0.199860     1.064817
Gh(H)     -2.554272    -0.465074     0.898206
Gh(H)     -4.003385    -0.263674     1.419464
Gh(O)     -1.501421     2.694653    -1.037470
Gh(H)     -1.857259     2.772058    -1.919008
Gh(H)     -1.054329     1.848031    -0.932673
Gh(O)      2.688093     2.201399    -0.380651
Gh(H)      2.548789     3.054275    -0.789423
Gh(H)      1.816747     1.792628    -0.342110

units ang
no_reorient
no_com
symmetry c1
}

set {
basis        aug-cc-pVTZ
scf_type     df
}

energy("mp2")
--------------------------------------------------------------------------

    Molecular point group: c1

    Geometry (in Angstrom), charge = 0, multiplicity = 1:

       Center              X                  Y                   Z               Mass
    ------------   -----------------  -----------------  -----------------  -----------------
      Gh(BR)          0.000000000000     0.000000000000     0.000000000000    78.918337600000
         O            0.341150000000     0.776241000000    -3.513535000000    15.994914619570
         H            0.559687000000     1.745389000000    -3.643795000000     1.007825032230
         H            0.259971000000     0.595020000000    -2.572308000000     1.007825032230
      Gh(O)          -3.228866000000     0.199860000000     1.064817000000    15.994914619570
      Gh(H)          -2.554272000000    -0.465074000000     0.898206000000     1.007825032230
      Gh(H)          -4.003385000000    -0.263674000000     1.419464000000     1.007825032230
      Gh(O)          -1.501421000000     2.694653000000    -1.037470000000    15.994914619570
      Gh(H)          -1.857259000000     2.772058000000    -1.919008000000     1.007825032230
      Gh(H)          -1.054329000000     1.848031000000    -0.932673000000     1.007825032230
      Gh(O)           2.688093000000     2.201399000000    -0.380651000000    15.994914619570
      Gh(H)           2.548789000000     3.054275000000    -0.789423000000     1.007825032230
      Gh(H)           1.816747000000     1.792628000000    -0.342110000000     1.007825032230

  Charge       = 0
  Multiplicity = 1
  Basis Set: AUG-CC-PVTZ
    Blend: AUG-CC-PVTZ
  Basis Set: (AUG-CC-PVTZ AUX)
    Blend: AUG-CC-PVTZ-JKFIT

    Orbital Energies [Eh]
    ---------------------

    Doubly Occupied:

       1A    -20.569181     2A     -1.338412     3A     -0.712835
       4A     -0.571170     5A     -0.506931

  @DF-RHF Final Energy:   -76.05677075032759

   => Energetics <=

    Nuclear Repulsion Energy =              8.9565761475840411
    One-Electron Energy =                -122.6296332215379579
    Two-Electron Energy =                  37.6162863236263263
    Total Energy =                        -76.0567707503275869
 Dipole X            :         -6.6162408            6.7063697            0.0901289
 Dipole Y            :        -15.6386467           16.1577952            0.5191485
 Dipole Z            :         65.4068127          -64.8636833            0.5431295
 Magnitude           :                                                    0.7567219
  Basis Set: (AUG-CC-PVTZ AUX)
    Blend: AUG-CC-PVTZ-RI
	 Reference Energy          =     -76.0567707503275869 [Eh]
	 Singles Energy            =      -0.0000000000000000 [Eh]
	 Same-Spin Energy          =      -0.0687399159178310 [Eh]
	 Opposite-Spin Energy      =      -0.2168758793022841 [Eh]
	 Correlation Energy        =      -0.2856157952201151 [Eh]
	 Total Energy              =     -76.3423865455476971 [Eh]

	 ================> DF-SCS-MP2 Energies <==================
	-----------------------------------------------------------
	 SCS Same-Spin Scale       =       0.3333333333333333 [-]
	 SCS Opposite-Spin Scale   =       1.2000000000000000 [-]
	 SCS Same-Spin Energy      =      -0.0229133053059437 [Eh]
	 SCS Opposite-Spin Energy  =      -0.2602510551627408 [Eh]
	 SCS Correlation Energy    =      -0.2831643604686845 [Eh]
	 SCS Total Energy          =     -76.3399351107962758 [Eh]
	-----------------------------------------------------------

*** Psi4 exiting successfully. Buy a developer a beer!
