                               Psi4 1.8.2 release

  ==> Input File <==

--------------------------------------------------------------------------
MEMORY 60 GB

molecule dimer {
-1 1
Br         0.000000     0.000000     0.000000
Gh(O)     -0.944159     0.763135    -3.171296
Gh(H)     -0.418125     0.642488    -2.380292
Gh(H)     -1.515592     1.518947    -2.946457
Gh(O)      0.266373    -2.666671    -2.063433
Gh(H)     -0.507967    -3.216325    -2.144357
Gh(H)      0.169069    -1.929715    -1.427717
Gh(O)      2.278924     0.586830    -2.040328
Gh(H)      1.783721    -0.048625    -1.465647
Gh(H)      2.356833     0.210882    -2.962479
Gh(O)     -0.660034     3.338372    -0.252519
Gh(H)     -0.523899     2.351649    -0.216782
Gh(H)     -0.034580     3.514831    -0.970765

units ang
no_reorient
no_com
symmetry c1
}

set {
basis        aug-cc-pVTZ
scf_type     df
}

energy("mp2")
--------------------------------------------------------------------------

    Molecular point group: c1

    Geometry (in Angstrom), charge = -1, multiplicity = 1:

       Center              X                  Y                   Z               Mass
    ------------   -----------------  -----------------  -----------------  -----------------
         BR           0.000000000000     0.000000000000     0.000000000000    78.918337600000
      Gh(O)          -0.944159000000     0.763135000000    -3.171296000000    15.994914619570
      Gh(H)          -0.418125000000     0.642488000000    -2.380292000000     1.007825032230
      Gh(H)          -1.515592000000     1.518947000000    -2.946457000000     1.007825032230
      Gh(O)           0.266373000000    -2.666671000000    -2.063433000000    15.994914619570
      Gh(H)          -0.507967000000    -3.216325000000    -2.144357000000     1.007825032230
      Gh(H)           0.169069000000    -1.929715000000    -1.427717000000     1.007825032230
      Gh(O)           2.278924000000     0.586830000000    -2.040328000000    15.994914619570
      Gh(H)           1.783721000000    -0.048625000000    -1.465647000000     1.007825032230
      Gh(H)           2.356833000000     0.210882000000    -2.962479000000     1.007825032230
      Gh(O)          -0.660034000000     3.338372000000    -0.252519000000    15.994914619570
      Gh(H)          -0.523899000000     2.351649000000    -0.216782000000     1.007825032230
      Gh(H)          -0.034580000000     3.514831000000    -0.970765000000     1.007825032230

  Charge       = -1
  Multiplicity = 1
  Basis Set: AUG-CC-PVTZ
    Blend: AUG-CC-PVTZ
  Basis Set: (AUG-CC-PVTZ AUX)
    Blend: AUG-CC-PVTZ-JKFIT

    Orbital Energies [Eh]
    ---------------------

    Doubly Occupied:

       1A   -489.721992     2A    -64.861629     3A    -58.216160
       4A    -58.216158     5A    -58.216156     6A     -9.533234
       7A     -7.140578     8A     -7.140562     9A     -7.140549
      10A     -2.882278    11A     -2.882273    12A     -2.882268
      13A     -2.882251    14A     -2.882236    15A     -0.685993
      16A     -0.139339    17A     -0.139336    18A     -0.139332

  @DF-RHF Final Energy: -2572.53372152066504

   => Energetics <=

    Nuclear Repulsion Energy =              0.0000000000000000
    One-Electron Energy =               -3593.6627983658158882
    Two-Electron Energy =                1021.1290768451509621
    Total Energy =                      -2572.5337215206650399
 Dipole X            :          0.0000609            0.0000000            0.0000609
 Dipole Y            :         -0.0000132            0.0000000           -0.0000132
 Dipole Z            :         -0.0001289            0.0000000           -0.0001289
 Magnitude           :                                                    0.0001431
  Basis Set: (AUG-CC-PVTZ AUX)
    Blend: AUG-CC-PVTZ-RI
	 Reference Energy          =   -2572.5337215206650399 [Eh]
	 Singles Energy            =      -0.0000000000000000 [Eh]
	 Same-Spin Energy          =      -0.0907674451967752 [Eh]
	 Opposite-Spin Energy      =      -0.2113193703955457 [Eh]
	 Correlation Energy        =      -0.3020868155923209 [Eh]
	 Total Energy              =   -2572.8358083362572870 [Eh]

	 ================> DF-SCS-MP2 Energies <==================
	-----------------------------------------------------------
	 SCS Same-Spin Scale       =       0.3333333333333333 [-]
	 SCS Opposite-Spin Scale   =       1.2000000000000000 [-]
	 SCS Same-Spin Energy      =      -0.0302558150655917 [Eh]
	 SCS Opposite-Spin Energy  =      -0.2535832444746549 [Eh]
	 SCS Correlation Energy    =      -0.2838390595402466 [Eh]
	 SCS Total Energy          =   -2572.8175605802052814 [Eh]
	-----------------------------------------------------------

*** Psi4 exiting successfully. Buy a developer a beer!
