                               Psi4 1.8.2 release

  ==> Input File <==

--------------------------------------------------------------------------
MEMORY 60 GB

molecule dimer {
0 1
Gh(Br)     0.000000     0.000000     0.000000
O         -0.271207     3.467914     0.449623
H         -0.241023     2.515481     0.343126
H         -0.990742     3.791271    -0.071397
Gh(O)      2.711279    -1.492542     1.388467
Gh(H)      2.050502    -1.049548     0.918516
Gh(H)      2.762383    -1.071533     2.245460
Gh(O)     -3.165397     1.319402     1.105039
Gh(H)     -2.402253     0.932596     1.588108
Gh(H)     -3.585081     2.039385     1.609883
Gh(O)      2.670633     1.932263     0.597242
Gh(H)      2.022097     1.289442     0.376040
Gh(H)      2.703031     1.805511     1.515012
Gh(O)     -0.063975     0.793039     3.259158
Gh(H)     -0.939639     0.583016     3.552775
Gh(H)     -0.180918     0.683970     2.320537
Gh(O)     -2.832498     0.803970    -1.649860
Gh(H)     -2.012548     0.947282    -2.193061
Gh(H)     -2.533765     0.983576    -0.688689

units ang
no_reorient
no_com
symmetry c1
}

set {
basis        aug-cc-pVTZ
scf_type     df
}

energy("mp2")
--------------------------------------------------------------------------

    Molecular point group: c1

    Geometry (in Angstrom), charge = 0, multiplicity = 1:

       Center              X                  Y                   Z               Mass
    ------------   -----------------  -----------------  -----------------  -----------------
      Gh(BR)          0.000000000000     0.000000000000     0.000000000000    78.918337600000
         O           -0.271207000000     3.467914000000     0.449623000000    15.994914619570
         H           -0.241023000000     2.515481000000     0.343126000000     1.007825032230
         H           -0.990742000000     3.791271000000    -0.071397000000     1.007825032230
      Gh(O)           2.711279000000    -1.492542000000     1.388467000000    15.994914619570
      Gh(H)           2.050502000000    -1.049548000000     0.918516000000     1.007825032230
      Gh(H)           2.762383000000    -1.071533000000     2.245460000000     1.007825032230
      Gh(O)          -3.165397000000     1.319402000000     1.105039000000    15.994914619570
      Gh(H)          -2.402253000000     0.932596000000     1.588108000000     1.007825032230
      Gh(H)          -3.585081000000     2.039385000000     1.609883000000     1.007825032230
      Gh(O)           2.670633000000     1.932263000000     0.597242000000    15.994914619570
      Gh(H)           2.022097000000     1.289442000000     0.376040000000     1.007825032230
      Gh(H)           2.703031000000     1.805511000000     1.515012000000     1.007825032230
      Gh(O)          -0.063975000000     0.793039000000     3.259158000000    15.994914619570
      Gh(H)          -0.939639000000     0.583016000000     3.552775000000     1.007825032230
      Gh(H)          -0.180918000000     0.683970000000     2.320537000000     1.007825032230
      Gh(O)          -2.832498000000     0.803970000000    -1.649860000000    15.994914619570
      Gh(H)          -2.012548000000     0.947282000000    -2.193061000000     1.007825032230
      Gh(H)          -2.533765000000     0.983576000000    -0.688689000000     1.007825032230

  Charge       = 0
  Multiplicity = 1
  Basis Set: AUG-CC-PVTZ
    Blend: AUG-CC-PVTZ
  Basis Set: (AUG-CC-PVTZ AUX)
    Blend: AUG-CC-PVTZ-JKFIT

    Orbital Energies [Eh]
    ---------------------

    Doubly Occupied:

       1A    -20.564813     2A     -1.354017     3A     -0.726565
       4A     -0.579784     5A     -0.509860

  @DF-RHF Final Energy:   -76.06086224978982

   => Energetics <=

    Nuclear Repulsion Energy =              9.2374641662023969
    One-Electron Energy =                -123.1265716084325135
    Two-Electron Energy =                  37.8282451924402920
    Total Energy =                        -76.0608622497898210
 Dipole X            :          5.9623617           -6.4277541           -0.4653924
 Dipole Y            :        -64.7676403           64.3452955           -0.4223447
 Dipole Z            :         -7.7343904            7.3108080           -0.4235823
 Magnitude           :                                                    0.7578833
  Basis Set: (AUG-CC-PVTZ AUX)
    Blend: AUG-CC-PVTZ-RI
	 Reference Energy          =     -76.0608622497898210 [Eh]
	 Singles Energy            =      -0.0000000000000000 [Eh]
	 Same-Spin Energy          =      -0.0682658230035801 [Eh]
	 Opposite-Spin Energy      =      -0.2155418195862035 [Eh]
	 Correlation Energy        =      -0.2838076425897836 [Eh]
	 Total Energy              =     -76.3446698923795992 [Eh]

	 ================> DF-SCS-MP2 Energies <==================
	-----------------------------------------------------------
	 SCS Same-Spin Scale       =       0.3333333333333333 [-]
	 SCS Opposite-Spin Scale   =       1.2000000000000000 [-]
	 SCS Same-Spin Energy      =      -0.0227552743345267 [Eh]
	 SCS Opposite-Spin Energy  =      -0.2586501835034442 [Eh]
	 SCS Correlation Energy    =      -0.2814054578379709 [Eh]
	 SCS Total Energy          =     -76.3422677076277978 [Eh]
	-----------------------------------------------------------

*** Psi4 exiting successfully. Buy a developer a beer!
