                               Psi4 1.8.2 release

  ==> Input File <==

--------------------------------------------------------------------------
MEMORY 60 GB

molecule dimer {
-1 1
Br         0.000000     0.000000     0.000000
O          2.005998     2.469794    -1.548747
H          2.809869     2.228331    -1.965091
H          1.560168     1.628217    -1.200553
O          0.529123     3.007364     1.321262
H          1.470211     3.161375     1.107058
H          0.395327     2.119154     0.958626
O         -1.660321     0.052137    -3.166204
H         -2.229712     0.623741    -2.655572
H         -1.973837     0.013299    -4.074220
O          2.794752     0.356441     1.755247
H          3.260746    -0.479172     1.544679
H          1.859188     0.213200     1.467202

units ang
no_reorient
no_com
symmetry c1
}

set {
basis        aug-cc-pVTZ
scf_type     df
}

energy("mp2")
--------------------------------------------------------------------------

    Molecular point group: c1

    Geometry (in Angstrom), charge = -1, multiplicity = 1:

       Center              X                  Y                   Z               Mass
    ------------   -----------------  -----------------  -----------------  -----------------
         BR           0.000000000000     0.000000000000     0.000000000000    78.918337600000
         O            2.005998000000     2.469794000000    -1.548747000000    15.994914619570
         H            2.809869000000     2.228331000000    -1.965091000000     1.007825032230
         H            1.560168000000     1.628217000000    -1.200553000000     1.007825032230
         O            0.529123000000     3.007364000000     1.321262000000    15.994914619570
         H            1.470211000000     3.161375000000     1.107058000000     1.007825032230
         H            0.395327000000     2.119154000000     0.958626000000     1.007825032230
         O           -1.660321000000     0.052137000000    -3.166204000000    15.994914619570
         H           -2.229712000000     0.623741000000    -2.655572000000     1.007825032230
         H           -1.973837000000     0.013299000000    -4.074220000000     1.007825032230
         O            2.794752000000     0.356441000000     1.755247000000    15.994914619570
         H            3.260746000000    -0.479172000000     1.544679000000     1.007825032230
         H            1.859188000000     0.213200000000     1.467202000000     1.007825032230

  Charge       = -1
  Multiplicity = 1
  Basis Set: AUG-CC-PVTZ
    Blend: AUG-CC-PVTZ
  Basis Set: (AUG-CC-PVTZ AUX)
    Blend: AUG-CC-PVTZ-JKFIT

    Orbital Energies [Eh]
    ---------------------

    Doubly Occupied:

       1A   -489.765452     2A    -64.905819     3A    -58.260317
       4A    -58.260300     5A    -58.260283     6A    -20.444403
       7A    -20.413255     8A    -20.409681     9A    -20.385851
      10A     -9.578176    11A     -7.185766    12A     -7.185596
      13A     -7.185520    14A     -2.927386    15A     -2.927347
      16A     -2.927262    17A     -2.927065    18A     -2.927061
      19A     -1.228465    20A     -1.191991    21A     -1.182203
      22A     -1.167092    23A     -0.742488    24A     -0.605169
      25A     -0.564280    26A     -0.548833    27A     -0.524363
      28A     -0.451427    29A     -0.426068    30A     -0.425291
      31A     -0.413637    32A     -0.386971    33A     -0.357420
      34A     -0.350643    35A     -0.329833    36A     -0.193249
      37A     -0.189823    38A     -0.188562

  @DF-RHF Final Energy: -2876.79613138013929

   => Energetics <=

    Nuclear Repulsion Energy =            328.9761290732564589
    One-Electron Energy =               -4674.8558159116328170
    Two-Electron Energy =                1469.0835554582370150
    Total Energy =                      -2876.7961313801388314
 Dipole X            :        -69.7572631           68.9908319           -0.7664312
 Dipole Y            :       -109.0204228          106.9472227           -2.0732001
 Dipole Z            :         32.6471522          -33.8741099           -1.2269577
 Magnitude           :                                                    2.5280428
  Basis Set: (AUG-CC-PVTZ AUX)
    Blend: AUG-CC-PVTZ-RI
	 Reference Energy          =   -2876.7961313801392862 [Eh]
	 Singles Energy            =      -0.0000000000000000 [Eh]
	 Same-Spin Energy          =      -0.3733769869324015 [Eh]
	 Opposite-Spin Energy      =      -1.0825445156171358 [Eh]
	 Correlation Energy        =      -1.4559215025495373 [Eh]
	 Total Energy              =   -2878.2520528826889858 [Eh]

	 ================> DF-SCS-MP2 Energies <==================
	-----------------------------------------------------------
	 SCS Same-Spin Scale       =       0.3333333333333333 [-]
	 SCS Opposite-Spin Scale   =       1.2000000000000000 [-]
	 SCS Same-Spin Energy      =      -0.1244589956441338 [Eh]
	 SCS Opposite-Spin Energy  =      -1.2990534187405629 [Eh]
	 SCS Correlation Energy    =      -1.4235124143846967 [Eh]
	 SCS Total Energy          =   -2878.2196437945240177 [Eh]
	-----------------------------------------------------------

*** Psi4 exiting successfully. Buy a developer a beer!
