                               Psi4 1.8.2 release

  ==> Input File <==

--------------------------------------------------------------------------
MEMORY 60 GB

molecule dimer {
-1 1
Br         0.000000     0.000000     0.000000
Gh(O)     -3.203691    -0.706166     0.782016
Gh(H)     -2.295960    -0.464817     0.667408
Gh(H)     -3.558639    -0.246998     1.530606
Gh(O)     -1.688294    -2.239204    -1.689504
Gh(H)     -1.640223    -2.974459    -1.039912
Gh(H)     -1.367206    -1.475108    -1.153456
Gh(O)      1.718343    -2.981602     0.227705
Gh(H)      1.215621    -3.617408     0.840091
Gh(H)      1.172353    -2.184568     0.147489
Gh(O)     -1.023386     2.101542     2.512944
Gh(H)     -0.754621     1.462034     1.797374
Gh(H)     -0.259077     2.082588     3.154971

units ang
no_reorient
no_com
symmetry c1
}

set {
basis        aug-cc-pVTZ
scf_type     df
}

energy("mp2")
--------------------------------------------------------------------------

    Molecular point group: c1

    Geometry (in Angstrom), charge = -1, multiplicity = 1:

       Center              X                  Y                   Z               Mass
    ------------   -----------------  -----------------  -----------------  -----------------
         BR           0.000000000000     0.000000000000     0.000000000000    78.918337600000
      Gh(O)          -3.203691000000    -0.706166000000     0.782016000000    15.994914619570
      Gh(H)          -2.295960000000    -0.464817000000     0.667408000000     1.007825032230
      Gh(H)          -3.558639000000    -0.246998000000     1.530606000000     1.007825032230
      Gh(O)          -1.688294000000    -2.239204000000    -1.689504000000    15.994914619570
      Gh(H)          -1.640223000000    -2.974459000000    -1.039912000000     1.007825032230
      Gh(H)          -1.367206000000    -1.475108000000    -1.153456000000     1.007825032230
      Gh(O)           1.718343000000    -2.981602000000     0.227705000000    15.994914619570
      Gh(H)           1.215621000000    -3.617408000000     0.840091000000     1.007825032230
      Gh(H)           1.172353000000    -2.184568000000     0.147489000000     1.007825032230
      Gh(O)          -1.023386000000     2.101542000000     2.512944000000    15.994914619570
      Gh(H)          -0.754621000000     1.462034000000     1.797374000000     1.007825032230
      Gh(H)          -0.259077000000     2.082588000000     3.154971000000     1.007825032230

  Charge       = -1
  Multiplicity = 1
  Basis Set: AUG-CC-PVTZ
    Blend: AUG-CC-PVTZ
  Basis Set: (AUG-CC-PVTZ AUX)
    Blend: AUG-CC-PVTZ-JKFIT

    Orbital Energies [Eh]
    ---------------------

    Doubly Occupied:

       1A   -489.722031     2A    -64.861657     3A    -58.216188
       4A    -58.216185     5A    -58.216184     6A     -9.533244
       7A     -7.140591     8A     -7.140568     9A     -7.140555
      10A     -2.882288    11A     -2.882281    12A     -2.882274
      13A     -2.882258    14A     -2.882252    15A     -0.685994
      16A     -0.139340    17A     -0.139335    18A     -0.139332

  @DF-RHF Final Energy: -2572.53372171485171

   => Energetics <=

    Nuclear Repulsion Energy =              0.0000000000000000
    One-Electron Energy =               -3593.6623300795649811
    Two-Electron Energy =                1021.1286083647133864
    Total Energy =                      -2572.5337217148517084
 Dipole X            :         -0.0002320            0.0000000           -0.0002320
 Dipole Y            :         -0.0001188            0.0000000           -0.0001188
 Dipole Z            :          0.0000678            0.0000000            0.0000678
 Magnitude           :                                                    0.0002694
  Basis Set: (AUG-CC-PVTZ AUX)
    Blend: AUG-CC-PVTZ-RI
	 Reference Energy          =   -2572.5337217148517084 [Eh]
	 Singles Energy            =      -0.0000000000000000 [Eh]
	 Same-Spin Energy          =      -0.0908496485671824 [Eh]
	 Opposite-Spin Energy      =      -0.2115331626694426 [Eh]
	 Correlation Energy        =      -0.3023828112366250 [Eh]
	 Total Energy              =   -2572.8361045260885476 [Eh]

	 ================> DF-SCS-MP2 Energies <==================
	-----------------------------------------------------------
	 SCS Same-Spin Scale       =       0.3333333333333333 [-]
	 SCS Opposite-Spin Scale   =       1.2000000000000000 [-]
	 SCS Same-Spin Energy      =      -0.0302832161890608 [Eh]
	 SCS Opposite-Spin Energy  =      -0.2538397952033311 [Eh]
	 SCS Correlation Energy    =      -0.2841230113923919 [Eh]
	 SCS Total Energy          =   -2572.8178447262439477 [Eh]
	-----------------------------------------------------------

*** Psi4 exiting successfully. Buy a developer a beer!
