                               Psi4 1.8.2 release

  ==> Input File <==

--------------------------------------------------------------------------
MEMORY 60 GB

molecule dimer {
-1 1
Br         0.000000     0.000000     0.000000
Gh(O)     -1.259613    -1.972372    -2.351696
Gh(H)     -0.860891    -1.435419    -1.661193
Gh(H)     -2.112677    -2.309575    -2.092339
Gh(O)     -2.845407     1.529579    -0.341206
Gh(H)     -3.404442     0.725851    -0.231895
Gh(H)     -1.918137     1.227655    -0.418924
Gh(O)      1.203798     0.989340    -2.982723
Gh(H)      1.383848     1.404532    -2.151666
Gh(H)      0.917733     0.079877    -2.748949
Gh(O)     -1.942333    -2.300435     1.090951
Gh(H)     -1.277267    -1.678503     0.760063
Gh(H)     -1.677310    -3.142909     0.788314
Gh(O)      2.995159    -1.396829    -0.963849
Gh(H)      2.160999    -1.154144    -0.534338
Gh(H)      3.403321    -0.551585    -1.226511

units ang
no_reorient
no_com
symmetry c1
}

set {
basis        aug-cc-pVTZ
scf_type     df
}

energy("mp2")
--------------------------------------------------------------------------

    Molecular point group: c1

    Geometry (in Angstrom), charge = -1, multiplicity = 1:

       Center              X                  Y                   Z               Mass
    ------------   -----------------  -----------------  -----------------  -----------------
         BR           0.000000000000     0.000000000000     0.000000000000    78.918337600000
      Gh(O)          -1.259613000000    -1.972372000000    -2.351696000000    15.994914619570
      Gh(H)          -0.860891000000    -1.435419000000    -1.661193000000     1.007825032230
      Gh(H)          -2.112677000000    -2.309575000000    -2.092339000000     1.007825032230
      Gh(O)          -2.845407000000     1.529579000000    -0.341206000000    15.994914619570
      Gh(H)          -3.404442000000     0.725851000000    -0.231895000000     1.007825032230
      Gh(H)          -1.918137000000     1.227655000000    -0.418924000000     1.007825032230
      Gh(O)           1.203798000000     0.989340000000    -2.982723000000    15.994914619570
      Gh(H)           1.383848000000     1.404532000000    -2.151666000000     1.007825032230
      Gh(H)           0.917733000000     0.079877000000    -2.748949000000     1.007825032230
      Gh(O)          -1.942333000000    -2.300435000000     1.090951000000    15.994914619570
      Gh(H)          -1.277267000000    -1.678503000000     0.760063000000     1.007825032230
      Gh(H)          -1.677310000000    -3.142909000000     0.788314000000     1.007825032230
      Gh(O)           2.995159000000    -1.396829000000    -0.963849000000    15.994914619570
      Gh(H)           2.160999000000    -1.154144000000    -0.534338000000     1.007825032230
      Gh(H)           3.403321000000    -0.551585000000    -1.226511000000     1.007825032230

  Charge       = -1
  Multiplicity = 1
  Basis Set: AUG-CC-PVTZ
    Blend: AUG-CC-PVTZ
  Basis Set: (AUG-CC-PVTZ AUX)
    Blend: AUG-CC-PVTZ-JKFIT

    Orbital Energies [Eh]
    ---------------------

    Doubly Occupied:

       1A   -489.722391     2A    -64.861916     3A    -58.216459
       4A    -58.216457     5A    -58.216455     6A     -9.533329
       7A     -7.140660     8A     -7.140651     9A     -7.140642
      10A     -2.882376    11A     -2.882369    12A     -2.882367
      13A     -2.882347    14A     -2.882332    15A     -0.685990
      16A     -0.139335    17A     -0.139332    18A     -0.139331

  @DF-RHF Final Energy: -2572.53373364331856

   => Energetics <=

    Nuclear Repulsion Energy =              0.0000000000000000
    One-Electron Energy =               -3593.6579856956714139
    Two-Electron Energy =                1021.1242520523528583
    Total Energy =                      -2572.5337336433185556
 Dipole X            :         -0.0000804            0.0000000           -0.0000804
 Dipole Y            :         -0.0001340            0.0000000           -0.0001340
 Dipole Z            :         -0.0002315            0.0000000           -0.0002315
 Magnitude           :                                                    0.0002793
  Basis Set: (AUG-CC-PVTZ AUX)
    Blend: AUG-CC-PVTZ-RI
	 Reference Energy          =   -2572.5337336433185556 [Eh]
	 Singles Energy            =      -0.0000000000000000 [Eh]
	 Same-Spin Energy          =      -0.0917711802170105 [Eh]
	 Opposite-Spin Energy      =      -0.2137414844832889 [Eh]
	 Correlation Energy        =      -0.3055126647002995 [Eh]
	 Total Energy              =   -2572.8392463080190282 [Eh]

	 ================> DF-SCS-MP2 Energies <==================
	-----------------------------------------------------------
	 SCS Same-Spin Scale       =       0.3333333333333333 [-]
	 SCS Opposite-Spin Scale   =       1.2000000000000000 [-]
	 SCS Same-Spin Energy      =      -0.0305903934056702 [Eh]
	 SCS Opposite-Spin Energy  =      -0.2564897813799467 [Eh]
	 SCS Correlation Energy    =      -0.2870801747856169 [Eh]
	 SCS Total Energy          =   -2572.8208138181043978 [Eh]
	-----------------------------------------------------------

*** Psi4 exiting successfully. Buy a developer a beer!
