                               Psi4 1.8.2 release

  ==> Input File <==

--------------------------------------------------------------------------
MEMORY 60 GB

molecule dimer {
0 1
Gh(Br)     0.000000     0.000000     0.000000
O          1.214755     2.032402     2.352565
H          0.843379     1.290858     1.788319
H          2.176535     2.115299     2.233161
Gh(O)     -1.899098     2.893105     0.263373
Gh(H)     -2.377616     3.120026    -0.530168
Gh(H)     -1.651951     1.952131     0.230723
Gh(O)      1.184394     2.722133    -1.786102
Gh(H)      0.888960     1.954533    -1.303810
Gh(H)      0.985690     3.441294    -1.194986
Gh(O)     -3.316529    -1.099441    -0.081057
Gh(H)     -2.506499    -0.600404    -0.183707
Gh(H)     -3.485828    -1.108557     0.900656

units ang
no_reorient
no_com
symmetry c1
}

set {
basis        aug-cc-pVTZ
scf_type     df
}

energy("mp2")
--------------------------------------------------------------------------

    Molecular point group: c1

    Geometry (in Angstrom), charge = 0, multiplicity = 1:

       Center              X                  Y                   Z               Mass
    ------------   -----------------  -----------------  -----------------  -----------------
      Gh(BR)          0.000000000000     0.000000000000     0.000000000000    78.918337600000
         O            1.214755000000     2.032402000000     2.352565000000    15.994914619570
         H            0.843379000000     1.290858000000     1.788319000000     1.007825032230
         H            2.176535000000     2.115299000000     2.233161000000     1.007825032230
      Gh(O)          -1.899098000000     2.893105000000     0.263373000000    15.994914619570
      Gh(H)          -2.377616000000     3.120026000000    -0.530168000000     1.007825032230
      Gh(H)          -1.651951000000     1.952131000000     0.230723000000     1.007825032230
      Gh(O)           1.184394000000     2.722133000000    -1.786102000000    15.994914619570
      Gh(H)           0.888960000000     1.954533000000    -1.303810000000     1.007825032230
      Gh(H)           0.985690000000     3.441294000000    -1.194986000000     1.007825032230
      Gh(O)          -3.316529000000    -1.099441000000    -0.081057000000    15.994914619570
      Gh(H)          -2.506499000000    -0.600404000000    -0.183707000000     1.007825032230
      Gh(H)          -3.485828000000    -1.108557000000     0.900656000000     1.007825032230

  Charge       = 0
  Multiplicity = 1
  Basis Set: AUG-CC-PVTZ
    Blend: AUG-CC-PVTZ
  Basis Set: (AUG-CC-PVTZ AUX)
    Blend: AUG-CC-PVTZ-JKFIT

    Orbital Energies [Eh]
    ---------------------

    Doubly Occupied:

       1A    -20.569175     2A     -1.334138     3A     -0.712826
       4A     -0.566373     5A     -0.505809

  @DF-RHF Final Energy:   -76.05552089132901

   => Energetics <=

    Nuclear Repulsion Energy =              8.8973884260207399
    One-Electron Energy =                -122.5291699189742189
    Two-Electron Energy =                  37.5762606016244689
    Total Energy =                        -76.0555208913290102
 Dipole X            :        -23.6745272           24.0712445            0.3967173
 Dipole Y            :        -37.5994010           37.1621691           -0.4372319
 Dipole Z            :        -43.6192411           43.1651242           -0.4541169
 Magnitude           :                                                    0.7448346
  Basis Set: (AUG-CC-PVTZ AUX)
    Blend: AUG-CC-PVTZ-RI
	 Reference Energy          =     -76.0555208913290102 [Eh]
	 Singles Energy            =      -0.0000000000000000 [Eh]
	 Same-Spin Energy          =      -0.0688308970240577 [Eh]
	 Opposite-Spin Energy      =      -0.2170527223419182 [Eh]
	 Correlation Energy        =      -0.2858836193659759 [Eh]
	 Total Energy              =     -76.3414045106949857 [Eh]

	 ================> DF-SCS-MP2 Energies <==================
	-----------------------------------------------------------
	 SCS Same-Spin Scale       =       0.3333333333333333 [-]
	 SCS Opposite-Spin Scale   =       1.2000000000000000 [-]
	 SCS Same-Spin Energy      =      -0.0229436323413526 [Eh]
	 SCS Opposite-Spin Energy  =      -0.2604632668103019 [Eh]
	 SCS Correlation Energy    =      -0.2834068991516544 [Eh]
	 SCS Total Energy          =     -76.3389277904806676 [Eh]
	-----------------------------------------------------------

*** Psi4 exiting successfully. Buy a developer a beer!
