                               Psi4 1.8.2 release

  ==> Input File <==

--------------------------------------------------------------------------
MEMORY 60 GB

molecule dimer {
-1 1
Br         0.000000     0.000000     0.000000
O         -0.589641     1.981122    -2.700950
H         -0.352083     1.498565    -1.927478
H          0.291278     2.138304    -3.079812
O         -0.614349     3.140419     0.660389
H         -1.466447     3.242082     0.197508
H         -0.129896     2.300579     0.382244
O          1.920213    -0.518193     2.687699
H          2.197835     0.425939     2.874306
H          1.083802    -0.483503     2.156645
O         -1.496158    -2.247040     1.826228
H         -1.236232    -1.353537     1.456673
H         -0.761899    -2.827253     1.477870
O         -0.445692     1.514137     3.176920
H         -0.182736     0.818354     3.872867
H         -0.524766     1.099695     2.328947
O         -3.061657     0.895335    -0.093977
H         -2.099177     0.663244     0.089351
H         -3.264239     0.403587    -0.926203

units ang
no_reorient
no_com
symmetry c1
}

set {
basis        aug-cc-pVTZ
scf_type     df
}

energy("mp2")
--------------------------------------------------------------------------

    Molecular point group: c1

    Geometry (in Angstrom), charge = -1, multiplicity = 1:

       Center              X                  Y                   Z               Mass
    ------------   -----------------  -----------------  -----------------  -----------------
         BR           0.000000000000     0.000000000000     0.000000000000    78.918337600000
         O           -0.589641000000     1.981122000000    -2.700950000000    15.994914619570
         H           -0.352083000000     1.498565000000    -1.927478000000     1.007825032230
         H            0.291278000000     2.138304000000    -3.079812000000     1.007825032230
         O           -0.614349000000     3.140419000000     0.660389000000    15.994914619570
         H           -1.466447000000     3.242082000000     0.197508000000     1.007825032230
         H           -0.129896000000     2.300579000000     0.382244000000     1.007825032230
         O            1.920213000000    -0.518193000000     2.687699000000    15.994914619570
         H            2.197835000000     0.425939000000     2.874306000000     1.007825032230
         H            1.083802000000    -0.483503000000     2.156645000000     1.007825032230
         O           -1.496158000000    -2.247040000000     1.826228000000    15.994914619570
         H           -1.236232000000    -1.353537000000     1.456673000000     1.007825032230
         H           -0.761899000000    -2.827253000000     1.477870000000     1.007825032230
         O           -0.445692000000     1.514137000000     3.176920000000    15.994914619570
         H           -0.182736000000     0.818354000000     3.872867000000     1.007825032230
         H           -0.524766000000     1.099695000000     2.328947000000     1.007825032230
         O           -3.061657000000     0.895335000000    -0.093977000000    15.994914619570
         H           -2.099177000000     0.663244000000     0.089351000000     1.007825032230
         H           -3.264239000000     0.403587000000    -0.926203000000     1.007825032230

  Charge       = -1
  Multiplicity = 1
  Basis Set: AUG-CC-PVTZ
    Blend: AUG-CC-PVTZ
  Basis Set: (AUG-CC-PVTZ AUX)
    Blend: AUG-CC-PVTZ-JKFIT

    Orbital Energies [Eh]
    ---------------------

    Doubly Occupied:

       1A   -489.823247     2A    -64.964158     3A    -58.318638
       4A    -58.318591     5A    -58.318570     6A    -20.438600
       7A    -20.436560     8A    -20.432350     9A    -20.428207
      10A    -20.419520    11A    -20.408384    12A     -9.636827
      13A     -7.244594    14A     -7.244316    15A     -7.244149
      16A     -2.986191    17A     -2.986097    18A     -2.985930
      19A     -2.985561    20A     -2.985534    21A     -1.229600
      22A     -1.204302    23A     -1.197607    24A     -1.196175
      25A     -1.186853    26A     -1.176958    27A     -0.811496
      28A     -0.583980    29A     -0.579039    30A     -0.572152
      31A     -0.559109    32A     -0.553160    33A     -0.549621
      34A     -0.469732    35A     -0.452060    36A     -0.449946
      37A     -0.438007    38A     -0.430800    39A     -0.414783
      40A     -0.384605    41A     -0.377953    42A     -0.370010
      43A     -0.365144    44A     -0.358823    45A     -0.349217
      46A     -0.255430    47A     -0.249743    48A     -0.247881

  @DF-RHF Final Energy: -3028.91649569780839

   => Energetics <=

    Nuclear Repulsion Energy =            587.2361665477526458
    One-Electron Energy =               -5401.0649033703748501
    Two-Electron Energy =                1784.9122411248138178
    Total Energy =                      -3028.9164956978083865
 Dipole X            :         78.7922284          -76.9927941            1.7994343
 Dipole Y            :        -88.4388708           87.0262269           -1.4126439
 Dipole Z            :       -102.7453689          100.8232950           -1.9220739
 Magnitude           :                                                    2.9879583
  Basis Set: (AUG-CC-PVTZ AUX)
    Blend: AUG-CC-PVTZ-RI
	 Reference Energy          =   -3028.9164956978083865 [Eh]
	 Singles Energy            =      -0.0000000000000000 [Eh]
	 Same-Spin Energy          =      -0.5235473409369640 [Eh]
	 Opposite-Spin Energy      =      -1.5363619526967511 [Eh]
	 Correlation Energy        =      -2.0599092936337149 [Eh]
	 Total Energy              =   -3030.9764049914419957 [Eh]

	 ================> DF-SCS-MP2 Energies <==================
	-----------------------------------------------------------
	 SCS Same-Spin Scale       =       0.3333333333333333 [-]
	 SCS Opposite-Spin Scale   =       1.2000000000000000 [-]
	 SCS Same-Spin Energy      =      -0.1745157803123213 [Eh]
	 SCS Opposite-Spin Energy  =      -1.8436343432361013 [Eh]
	 SCS Correlation Energy    =      -2.0181501235484225 [Eh]
	 SCS Total Energy          =   -3030.9346458213567530 [Eh]
	-----------------------------------------------------------

*** Psi4 exiting successfully. Buy a developer a beer!
