                               Psi4 1.8.2 release

  ==> Input File <==

--------------------------------------------------------------------------
MEMORY 60 GB

molecule dimer {
-1 1
Br         0.000000     0.000000     0.000000
O         -2.693192    -1.679912     0.355723
H         -1.875366    -1.176432     0.015423
H         -3.226162    -1.909403    -0.424515
O         -1.448803     2.589056    -1.473057
H         -1.905026     2.601791    -0.617480
H         -1.862488     3.210439    -2.073139
O         -2.142334     0.188851    -2.736695
H         -1.900358     0.972141    -2.236676
H         -2.330046     0.458810    -3.593644
O          0.593152     0.691607    -3.130397
H          0.790973     0.153655    -3.929734
H          0.103934     0.137581    -2.474532
O          1.279965    -2.599480    -1.667778
H          0.899924    -2.394763    -2.551512
H          1.123623    -1.790753    -1.235832
O          0.507220    -0.594639     3.390560
H          1.000701     0.236302     3.548363
H          0.075494    -0.431779     2.468449
O         -2.141177     1.800887     1.874188
H         -1.623828     1.273723     1.198477
H         -1.535113     2.232496     2.500517

units ang
no_reorient
no_com
symmetry c1
}

set {
basis        aug-cc-pVTZ
scf_type     df
}

energy("mp2")
--------------------------------------------------------------------------

    Molecular point group: c1

    Geometry (in Angstrom), charge = -1, multiplicity = 1:

       Center              X                  Y                   Z               Mass
    ------------   -----------------  -----------------  -----------------  -----------------
         BR           0.000000000000     0.000000000000     0.000000000000    78.918337600000
         O           -2.693192000000    -1.679912000000     0.355723000000    15.994914619570
         H           -1.875366000000    -1.176432000000     0.015423000000     1.007825032230
         H           -3.226162000000    -1.909403000000    -0.424515000000     1.007825032230
         O           -1.448803000000     2.589056000000    -1.473057000000    15.994914619570
         H           -1.905026000000     2.601791000000    -0.617480000000     1.007825032230
         H           -1.862488000000     3.210439000000    -2.073139000000     1.007825032230
         O           -2.142334000000     0.188851000000    -2.736695000000    15.994914619570
         H           -1.900358000000     0.972141000000    -2.236676000000     1.007825032230
         H           -2.330046000000     0.458810000000    -3.593644000000     1.007825032230
         O            0.593152000000     0.691607000000    -3.130397000000    15.994914619570
         H            0.790973000000     0.153655000000    -3.929734000000     1.007825032230
         H            0.103934000000     0.137581000000    -2.474532000000     1.007825032230
         O            1.279965000000    -2.599480000000    -1.667778000000    15.994914619570
         H            0.899924000000    -2.394763000000    -2.551512000000     1.007825032230
         H            1.123623000000    -1.790753000000    -1.235832000000     1.007825032230
         O            0.507220000000    -0.594639000000     3.390560000000    15.994914619570
         H            1.000701000000     0.236302000000     3.548363000000     1.007825032230
         H            0.075494000000    -0.431779000000     2.468449000000     1.007825032230
         O           -2.141177000000     1.800887000000     1.874188000000    15.994914619570
         H           -1.623828000000     1.273723000000     1.198477000000     1.007825032230
         H           -1.535113000000     2.232496000000     2.500517000000     1.007825032230

  Charge       = -1
  Multiplicity = 1
  Basis Set: AUG-CC-PVTZ
    Blend: AUG-CC-PVTZ
  Basis Set: (AUG-CC-PVTZ AUX)
    Blend: AUG-CC-PVTZ-JKFIT

    Orbital Energies [Eh]
    ---------------------

    Doubly Occupied:

       1A   -489.790894     2A    -64.931687     3A    -58.286190
       4A    -58.286160     5A    -58.286098     6A    -20.466429
       7A    -20.431211     8A    -20.423943     9A    -20.423773
      10A    -20.422087    11A    -20.420907    12A    -20.397597
      13A     -9.604250    14A     -7.212113    15A     -7.211805
      16A     -7.211444    17A     -2.953784    18A     -2.953724
      19A     -2.953270    20A     -2.952922    21A     -2.952836
      22A     -1.253986    23A     -1.227877    24A     -1.212474
      25A     -1.201606    26A     -1.194161    27A     -1.183686
      28A     -1.164908    29A     -0.777434    30A     -0.627635
      31A     -0.608137    32A     -0.579276    33A     -0.569901
      34A     -0.564745    35A     -0.542025    36A     -0.535685
      37A     -0.483031    38A     -0.456414    39A     -0.454277
      40A     -0.440456    41A     -0.433298    42A     -0.430576
      43A     -0.409424    44A     -0.402981    45A     -0.389576
      46A     -0.373305    47A     -0.367372    48A     -0.358836
      49A     -0.351902    50A     -0.337563    51A     -0.225524
      52A     -0.219394    53A     -0.215465

  @DF-RHF Final Energy: -3104.96987609218604

   => Energetics <=

    Nuclear Repulsion Energy =            712.1353846165538926
    One-Electron Energy =               -5757.8784023132920993
    Two-Electron Energy =                1940.7731416045521655
    Total Energy =                      -3104.9698760921860412
 Dipole X            :        114.9720159         -114.5648164            0.4071995
 Dipole Y            :        -10.5724348           12.7457643            2.1733295
 Dipole Z            :         67.3705089          -68.9853649           -1.6148560
 Magnitude           :                                                    2.7380527
  Basis Set: (AUG-CC-PVTZ AUX)
    Blend: AUG-CC-PVTZ-RI
	 Reference Energy          =   -3104.9698760921860412 [Eh]
	 Singles Energy            =      -0.0000000000000000 [Eh]
	 Same-Spin Energy          =      -0.5926510184481477 [Eh]
	 Opposite-Spin Energy      =      -1.7504336826407652 [Eh]
	 Correlation Energy        =      -2.3430847010889129 [Eh]
	 Total Energy              =   -3107.3129607932751242 [Eh]

	 ================> DF-SCS-MP2 Energies <==================
	-----------------------------------------------------------
	 SCS Same-Spin Scale       =       0.3333333333333333 [-]
	 SCS Opposite-Spin Scale   =       1.2000000000000000 [-]
	 SCS Same-Spin Energy      =      -0.1975503394827159 [Eh]
	 SCS Opposite-Spin Energy  =      -2.1005204191689182 [Eh]
	 SCS Correlation Energy    =      -2.2980707586516340 [Eh]
	 SCS Total Energy          =   -3107.2679468508376885 [Eh]
	-----------------------------------------------------------

*** Psi4 exiting successfully. Buy a developer a beer!
