                               Psi4 1.8.2 release

  ==> Input File <==

--------------------------------------------------------------------------
MEMORY 60 GB

molecule dimer {
0 1
Gh(Br)     0.000000     0.000000     0.000000
Gh(O)     -0.715270    -2.143185    -2.690953
Gh(H)     -0.563893    -1.589694    -1.915422
Gh(H)     -1.625719    -2.500042    -2.562483
Gh(O)     -0.675884     1.561881     2.819312
Gh(H)     -0.778240     0.984108     2.081935
Gh(H)     -0.783142     0.966168     3.565114
O          3.548531     0.288888     0.674836
H          3.267816     0.447228    -0.188013
H          2.925434     0.795554     1.221031
Gh(O)      0.805282    -3.287647     0.275183
Gh(H)      0.393183    -3.703796    -0.501561
Gh(H)      0.316995    -2.472699     0.427040
Gh(O)      0.567571     0.362353    -3.511137
Gh(H)      0.176105    -0.507486    -3.248833
Gh(H)      0.283747     0.465117    -4.388978
Gh(O)     -3.239559    -1.622188     0.083527
Gh(H)     -3.422506    -1.982973     0.976307
Gh(H)     -2.282082    -1.379107     0.094225
Gh(O)     -2.191170     2.688530    -0.728488
Gh(H)     -2.809150     2.418920    -1.425226
Gh(H)     -1.544401     2.015253    -0.624480

units ang
no_reorient
no_com
symmetry c1
}

set {
basis        aug-cc-pVTZ
scf_type     df
}

energy("mp2")
--------------------------------------------------------------------------

    Molecular point group: c1

    Geometry (in Angstrom), charge = 0, multiplicity = 1:

       Center              X                  Y                   Z               Mass
    ------------   -----------------  -----------------  -----------------  -----------------
      Gh(BR)          0.000000000000     0.000000000000     0.000000000000    78.918337600000
      Gh(O)          -0.715270000000    -2.143185000000    -2.690953000000    15.994914619570
      Gh(H)          -0.563893000000    -1.589694000000    -1.915422000000     1.007825032230
      Gh(H)          -1.625719000000    -2.500042000000    -2.562483000000     1.007825032230
      Gh(O)          -0.675884000000     1.561881000000     2.819312000000    15.994914619570
      Gh(H)          -0.778240000000     0.984108000000     2.081935000000     1.007825032230
      Gh(H)          -0.783142000000     0.966168000000     3.565114000000     1.007825032230
         O            3.548531000000     0.288888000000     0.674836000000    15.994914619570
         H            3.267816000000     0.447228000000    -0.188013000000     1.007825032230
         H            2.925434000000     0.795554000000     1.221031000000     1.007825032230
      Gh(O)           0.805282000000    -3.287647000000     0.275183000000    15.994914619570
      Gh(H)           0.393183000000    -3.703796000000    -0.501561000000     1.007825032230
      Gh(H)           0.316995000000    -2.472699000000     0.427040000000     1.007825032230
      Gh(O)           0.567571000000     0.362353000000    -3.511137000000    15.994914619570
      Gh(H)           0.176105000000    -0.507486000000    -3.248833000000     1.007825032230
      Gh(H)           0.283747000000     0.465117000000    -4.388978000000     1.007825032230
      Gh(O)          -3.239559000000    -1.622188000000     0.083527000000    15.994914619570
      Gh(H)          -3.422506000000    -1.982973000000     0.976307000000     1.007825032230
      Gh(H)          -2.282082000000    -1.379107000000     0.094225000000     1.007825032230
      Gh(O)          -2.191170000000     2.688530000000    -0.728488000000    15.994914619570
      Gh(H)          -2.809150000000     2.418920000000    -1.425226000000     1.007825032230
      Gh(H)          -1.544401000000     2.015253000000    -0.624480000000     1.007825032230

  Charge       = 0
  Multiplicity = 1
  Basis Set: AUG-CC-PVTZ
    Blend: AUG-CC-PVTZ
  Basis Set: (AUG-CC-PVTZ AUX)
    Blend: AUG-CC-PVTZ-JKFIT

    Orbital Energies [Eh]
    ---------------------

    Doubly Occupied:

       1A    -20.565269     2A     -1.360437     3A     -0.723100
       4A     -0.587882     5A     -0.511504

  @DF-RHF Final Energy:   -76.05968445894015

   => Energetics <=

    Nuclear Repulsion Energy =              9.3098271763037133
    One-Electron Energy =                -123.2426383317609151
    Two-Electron Energy =                  37.8731266965170548
    Total Energy =                        -76.0596844589401542
 Dipole X            :        -65.9523826           65.3495602           -0.6028224
 Dipole Y            :         -6.2727330            6.7158712            0.4431382
 Dipole Z            :        -12.3745619           12.1541629           -0.2203990
 Magnitude           :                                                    0.7799628
  Basis Set: (AUG-CC-PVTZ AUX)
    Blend: AUG-CC-PVTZ-RI
	 Reference Energy          =     -76.0596844589401542 [Eh]
	 Singles Energy            =      -0.0000000000000000 [Eh]
	 Same-Spin Energy          =      -0.0681703983131652 [Eh]
	 Opposite-Spin Energy      =      -0.2148382535006151 [Eh]
	 Correlation Energy        =      -0.2830086518137803 [Eh]
	 Total Energy              =     -76.3426931107539275 [Eh]

	 ================> DF-SCS-MP2 Energies <==================
	-----------------------------------------------------------
	 SCS Same-Spin Scale       =       0.3333333333333333 [-]
	 SCS Opposite-Spin Scale   =       1.2000000000000000 [-]
	 SCS Same-Spin Energy      =      -0.0227234661043884 [Eh]
	 SCS Opposite-Spin Energy  =      -0.2578059042007381 [Eh]
	 SCS Correlation Energy    =      -0.2805293703051265 [Eh]
	 SCS Total Energy          =     -76.3402138292452861 [Eh]
	-----------------------------------------------------------

*** Psi4 exiting successfully. Buy a developer a beer!
