                               Psi4 1.8.2 release

  ==> Input File <==

--------------------------------------------------------------------------
MEMORY 60 GB

molecule dimer {
-1 1
Br         0.000000     0.000000     0.000000
O         -1.098908    -3.071508    -0.487534
H         -0.293885    -3.421066    -1.019080
H         -0.905828    -2.104128    -0.516759
O          1.164874    -2.706180     2.071644
H          1.253804    -2.143184     2.914441
H          0.471840    -2.302890     1.514895
O          0.575450    -0.529067    -2.994827
H          0.141283    -0.085171    -2.247597
H          1.099265    -1.253083    -2.580112
O         -0.792664     1.020897     3.205548
H          0.118432     0.983099     2.910144
H         -0.793424     1.323019     4.123454
O          3.168574    -1.492021    -0.608818
H          3.582456    -1.338518     0.262661
H          2.354410    -0.982806    -0.504585

units ang
no_reorient
no_com
symmetry c1
}

set {
basis        aug-cc-pVTZ
scf_type     df
}

energy("mp2")
--------------------------------------------------------------------------

    Molecular point group: c1

    Geometry (in Angstrom), charge = -1, multiplicity = 1:

       Center              X                  Y                   Z               Mass
    ------------   -----------------  -----------------  -----------------  -----------------
         BR           0.000000000000     0.000000000000     0.000000000000    78.918337600000
         O           -1.098908000000    -3.071508000000    -0.487534000000    15.994914619570
         H           -0.293885000000    -3.421066000000    -1.019080000000     1.007825032230
         H           -0.905828000000    -2.104128000000    -0.516759000000     1.007825032230
         O            1.164874000000    -2.706180000000     2.071644000000    15.994914619570
         H            1.253804000000    -2.143184000000     2.914441000000     1.007825032230
         H            0.471840000000    -2.302890000000     1.514895000000     1.007825032230
         O            0.575450000000    -0.529067000000    -2.994827000000    15.994914619570
         H            0.141283000000    -0.085171000000    -2.247597000000     1.007825032230
         H            1.099265000000    -1.253083000000    -2.580112000000     1.007825032230
         O           -0.792664000000     1.020897000000     3.205548000000    15.994914619570
         H            0.118432000000     0.983099000000     2.910144000000     1.007825032230
         H           -0.793424000000     1.323019000000     4.123454000000     1.007825032230
         O            3.168574000000    -1.492021000000    -0.608818000000    15.994914619570
         H            3.582456000000    -1.338518000000     0.262661000000     1.007825032230
         H            2.354410000000    -0.982806000000    -0.504585000000     1.007825032230

  Charge       = -1
  Multiplicity = 1
  Basis Set: AUG-CC-PVTZ
    Blend: AUG-CC-PVTZ
  Basis Set: (AUG-CC-PVTZ AUX)
    Blend: AUG-CC-PVTZ-JKFIT

    Orbital Energies [Eh]
    ---------------------

    Doubly Occupied:

       1A   -489.784412     2A    -64.925015     3A    -58.279516
       4A    -58.279487     5A    -58.279443     6A    -20.453275
       7A    -20.432155     8A    -20.427797     9A    -20.420427
      10A    -20.401427    11A     -9.597534    12A     -7.205185
      13A     -7.205033    14A     -7.204855    15A     -2.946838
      16A     -2.946825    17A     -2.946559    18A     -2.946378
      19A     -2.946324    20A     -1.235008    21A     -1.208726
      22A     -1.193939    23A     -1.181230    24A     -1.179804
      25A     -0.765530    26A     -0.606803    27A     -0.565602
      28A     -0.563497    29A     -0.544198    30A     -0.532356
      31A     -0.462505    32A     -0.454402    33A     -0.438283
      34A     -0.435883    35A     -0.425785    36A     -0.395042
      37A     -0.375364    38A     -0.364967    39A     -0.356781
      40A     -0.345793    41A     -0.212931    42A     -0.211824
      43A     -0.208994

  @DF-RHF Final Energy: -2952.85605643916642

   => Energetics <=

    Nuclear Repulsion Energy =            444.4681662269439357
    One-Electron Energy =               -5010.8609734640758688
    Two-Electron Energy =                1613.5367507979653965
    Total Energy =                      -2952.8560564391664229
 Dipole X            :        -58.6900339           58.8970205            0.2069866
 Dipole Y            :        125.9874508         -123.8673145            2.1201363
 Dipole Z            :        -25.2756479           27.1091909            1.8335429
 Magnitude           :                                                    2.8106407
  Basis Set: (AUG-CC-PVTZ AUX)
    Blend: AUG-CC-PVTZ-RI
	 Reference Energy          =   -2952.8560564391664229 [Eh]
	 Singles Energy            =      -0.0000000000000000 [Eh]
	 Same-Spin Energy          =      -0.4464526326558237 [Eh]
	 Opposite-Spin Energy      =      -1.3065596042252361 [Eh]
	 Correlation Energy        =      -1.7530122368810597 [Eh]
	 Total Energy              =   -2954.6090686760476274 [Eh]

	 ================> DF-SCS-MP2 Energies <==================
	-----------------------------------------------------------
	 SCS Same-Spin Scale       =       0.3333333333333333 [-]
	 SCS Opposite-Spin Scale   =       1.2000000000000000 [-]
	 SCS Same-Spin Energy      =      -0.1488175442186079 [Eh]
	 SCS Opposite-Spin Energy  =      -1.5678715250702833 [Eh]
	 SCS Correlation Energy    =      -1.7166890692888912 [Eh]
	 SCS Total Energy          =   -2954.5727455084552275 [Eh]
	-----------------------------------------------------------

*** Psi4 exiting successfully. Buy a developer a beer!
