                               Psi4 1.8.2 release

  ==> Input File <==

--------------------------------------------------------------------------
MEMORY 60 GB

molecule dimer {
0 1
Gh(Br)     0.000000     0.000000     0.000000
Gh(O)      1.511211    -0.168000    -2.972187
Gh(H)      2.300196    -0.449638    -2.419504
Gh(H)      0.943137     0.223193    -2.310831
Gh(O)     -2.135097    -1.069176    -2.156148
Gh(H)     -2.291668    -1.987712    -2.053824
Gh(H)     -1.409818    -0.862642    -1.615508
Gh(O)      1.040320     2.889251     1.678946
Gh(H)      1.410094     3.396924     2.390933
Gh(H)      0.075886     2.963889     1.828063
O         -1.696817    -2.672274     0.961891
H         -1.090811    -1.965370     1.008221
H         -2.536867    -2.318802     1.134748
Gh(O)      1.036428    -2.376018     2.104145
Gh(H)      1.818587    -2.060646     2.627672
Gh(H)      0.759851    -1.655806     1.452707

units ang
no_reorient
no_com
symmetry c1
}

set {
basis        aug-cc-pVTZ
scf_type     df
}

energy("mp2")
--------------------------------------------------------------------------

    Molecular point group: c1

    Geometry (in Angstrom), charge = 0, multiplicity = 1:

       Center              X                  Y                   Z               Mass
    ------------   -----------------  -----------------  -----------------  -----------------
      Gh(BR)          0.000000000000     0.000000000000     0.000000000000    78.918337600000
      Gh(O)           1.511211000000    -0.168000000000    -2.972187000000    15.994914619570
      Gh(H)           2.300196000000    -0.449638000000    -2.419504000000     1.007825032230
      Gh(H)           0.943137000000     0.223193000000    -2.310831000000     1.007825032230
      Gh(O)          -2.135097000000    -1.069176000000    -2.156148000000    15.994914619570
      Gh(H)          -2.291668000000    -1.987712000000    -2.053824000000     1.007825032230
      Gh(H)          -1.409818000000    -0.862642000000    -1.615508000000     1.007825032230
      Gh(O)           1.040320000000     2.889251000000     1.678946000000    15.994914619570
      Gh(H)           1.410094000000     3.396924000000     2.390933000000     1.007825032230
      Gh(H)           0.075886000000     2.963889000000     1.828063000000     1.007825032230
         O           -1.696817000000    -2.672274000000     0.961891000000    15.994914619570
         H           -1.090811000000    -1.965370000000     1.008221000000     1.007825032230
         H           -2.536867000000    -2.318802000000     1.134748000000     1.007825032230
      Gh(O)           1.036428000000    -2.376018000000     2.104145000000    15.994914619570
      Gh(H)           1.818587000000    -2.060646000000     2.627672000000     1.007825032230
      Gh(H)           0.759851000000    -1.655806000000     1.452707000000     1.007825032230

  Charge       = 0
  Multiplicity = 1
  Basis Set: AUG-CC-PVTZ
    Blend: AUG-CC-PVTZ
  Basis Set: (AUG-CC-PVTZ AUX)
    Blend: AUG-CC-PVTZ-JKFIT

    Orbital Energies [Eh]
    ---------------------

    Doubly Occupied:

       1A    -20.561149     2A     -1.366374     3A     -0.737883
       4A     -0.585395     5A     -0.512055

  @DF-RHF Final Energy:   -76.06099708753317

   => Energetics <=

    Nuclear Repulsion Energy =              9.4589154339263928
    One-Electron Energy =                -123.5141098294416935
    Two-Electron Energy =                  37.9941973079821409
    Total Energy =                        -76.0609970875331669
 Dipole X            :         32.3473744          -32.5074732           -0.1600988
 Dipole Y            :         49.2178657          -48.4948397            0.7230260
 Dipole Z            :        -18.4414953           18.5913089            0.1498136
 Magnitude           :                                                    0.7555411
  Basis Set: (AUG-CC-PVTZ AUX)
    Blend: AUG-CC-PVTZ-RI
	 Reference Energy          =     -76.0609970875331669 [Eh]
	 Singles Energy            =      -0.0000000000000000 [Eh]
	 Same-Spin Energy          =      -0.0678974407199269 [Eh]
	 Opposite-Spin Energy      =      -0.2143926111980561 [Eh]
	 Correlation Energy        =      -0.2822900519179830 [Eh]
	 Total Energy              =     -76.3432871394511494 [Eh]

	 ================> DF-SCS-MP2 Energies <==================
	-----------------------------------------------------------
	 SCS Same-Spin Scale       =       0.3333333333333333 [-]
	 SCS Opposite-Spin Scale   =       1.2000000000000000 [-]
	 SCS Same-Spin Energy      =      -0.0226324802399756 [Eh]
	 SCS Opposite-Spin Energy  =      -0.2572711334376673 [Eh]
	 SCS Correlation Energy    =      -0.2799036136776429 [Eh]
	 SCS Total Energy          =     -76.3409007012108134 [Eh]
	-----------------------------------------------------------

*** Psi4 exiting successfully. Buy a developer a beer!
