                               Psi4 1.9 release

  ==> Input File <==

--------------------------------------------------------------------------
MEMORY 60 GB

molecule dimer {
-1 1
Br     0.000000     0.000000     0.000000
--
0 1
O     -0.715270    -2.143185    -2.690953
H     -0.563893    -1.589694    -1.915422
H     -1.625719    -2.500042    -2.562483
O     -0.675884     1.561881     2.819312
H     -0.778240     0.984108     2.081935
H     -0.783142     0.966168     3.565114
O      3.548531     0.288888     0.674836
H      3.267816     0.447228    -0.188013
H      2.925434     0.795554     1.221031
O      0.805282    -3.287647     0.275183
H      0.393183    -3.703796    -0.501561
H      0.316995    -2.472699     0.427040
O      0.567571     0.362353    -3.511137
H      0.176105    -0.507486    -3.248833
H      0.283747     0.465117    -4.388978
O     -3.239559    -1.622188     0.083527
H     -3.422506    -1.982973     0.976307
H     -2.282082    -1.379107     0.094225
O     -2.191170     2.688530    -0.728488
H     -2.809150     2.418920    -1.425226
H     -1.544401     2.015253    -0.624480

units ang
no_reorient
no_com
symmetry c1
}

set {
basis        aug-cc-pVTZ
scf_type     df
}

energy("mp2", bsse_type="cp")
--------------------------------------------------------------------------

                               Psi4 1.9 release
    Molecular point group: c1
  Charge       = 0
  Multiplicity = 1
  Basis Set: AUG-CC-PVTZ
    Blend: AUG-CC-PVTZ
  Basis Set: (AUG-CC-PVTZ AUX)
    Blend: AUG-CC-PVTZ-JKFIT
  @DF-RHF Final Energy:  -532.40874596993649
    Total Energy =                       -532.4087459699364899
 Dipole X            :         39.0210618          -40.9122777           -1.8912159
 Dipole Y            :         42.6270405          -43.9444340           -1.3173934
 Dipole Z            :         58.5330490          -58.7914660           -0.2584170
 Magnitude           :                                                    2.3192676
  Basis Set: (AUG-CC-PVTZ AUX)
    Blend: AUG-CC-PVTZ-RI
	 Reference Energy          =    -532.4087459699364899 [Eh]
	 Singles Energy            =      -0.0000000000000000 [Eh]
	 Same-Spin Energy          =      -0.4824290609000272 [Eh]
	 Opposite-Spin Energy      =      -1.5155371966311932 [Eh]
	 Correlation Energy        =      -1.9979662575312205 [Eh]
	 Total Energy              =    -534.4067122274676649 [Eh]
	 SCS Total Energy          =    -534.3882002928605743 [Eh]
                               Psi4 1.9 release
    Molecular point group: c1
  Multiplicity = 1
  Basis Set: AUG-CC-PVTZ
    Blend: AUG-CC-PVTZ
  Basis Set: (AUG-CC-PVTZ AUX)
    Blend: AUG-CC-PVTZ-JKFIT
  @DF-RHF Final Energy: -2572.53373700688826
    Total Energy =                      -2572.5337370068882592
  Basis Set: (AUG-CC-PVTZ AUX)
	 Singles Energy            =      -0.0000000000000000 [Eh]
	 Same-Spin Energy          =      -0.0915503839824229 [Eh]
	 Opposite-Spin Energy      =      -0.2129787857530367 [Eh]
	 Correlation Energy        =      -0.3045291697354596 [Eh]
	 Total Energy              =   -2572.8382661766236197 [Eh]
	 SCS Total Energy          =   -2572.8198283444526169 [Eh]
                               Psi4 1.9 release
    Molecular point group: c1

    Geometry (in Bohr), charge = -1, multiplicity = 1:

       Center              X                  Y                   Z               Mass
    ------------   -----------------  -----------------  -----------------  -----------------
         BR           0.000000000000     0.000000000000     0.000000000000    78.918337600000
         O           -1.351664405756    -4.050032686189    -5.085164186479    15.994914619570
         H           -1.065603334063    -3.004086283284    -3.619622994677     1.007825032230
         H           -3.072163666953    -4.724394682142    -4.842391071142     1.007825032230
         O           -1.277235652579     2.951527330556     5.327727542217    15.994914619570
         H           -1.470660459876     1.859694597872     3.934286961005     1.007825032230
         H           -1.479923897343     1.825792911181     6.737089066035     1.007825032230
         O            6.705751737697     0.545919200931     1.275255219599    15.994914619570
         H            6.175277268389     0.845138435636    -0.355293078026     1.007825032230
         H            5.528269058103     1.503379178012     2.307414180694     1.007825032230
         O            1.521762433761    -6.212752427183     0.520020504382    15.994914619570
         H            0.743008187186    -6.999160064566    -0.947812925211     1.007825032230
         H            0.599033733140    -4.672723900693     0.806988644616     1.007825032230
         O            1.072553746752     0.684747930738    -6.635087318962    15.994914619570
         H            0.332790219324    -0.959009552504    -6.139404597350     1.007825032230
         H            0.536204118920     0.878943746295    -8.293966390660     1.007825032230
         O           -6.121879277262    -3.065491044004     0.157843154081    15.994914619570
         H           -6.467599002736    -3.747275884177     1.844952844367     1.007825032230
         H           -4.312509975837    -2.606134527702     0.178059444171     1.007825032230
         O           -4.140711194319     5.080585380077    -1.376642805683    15.994914619570
         H           -5.308524145330     4.571096319392    -2.693286806882     1.007825032230
         H           -2.918494917883     3.808276243507    -1.180096170826     1.007825032230

  Charge       = -1
  Multiplicity = 1
  Basis Set: AUG-CC-PVTZ
    Blend: AUG-CC-PVTZ
  Basis Set: (AUG-CC-PVTZ AUX)
    Blend: AUG-CC-PVTZ-JKFIT

    Orbital Energies [Eh]
    ---------------------

    Doubly Occupied:

       1A   -489.800510     2A    -64.940939     3A    -58.295477
       4A    -58.295412     5A    -58.295387     6A    -20.465501
       7A    -20.457263     8A    -20.431570     9A    -20.428672
      10A    -20.427227    11A    -20.425030    12A    -20.421822
      13A     -9.613195    14A     -7.220941    15A     -7.220614
      16A     -7.220464    17A     -2.962615    18A     -2.962510
      19A     -2.962323    20A     -2.961902    21A     -2.961884
      22A     -1.247429    23A     -1.227972    24A     -1.223151
      25A     -1.220972    26A     -1.218940    27A     -1.210804
      28A     -1.210714    29A     -0.779893    30A     -0.618738
      31A     -0.593648    32A     -0.586689    33A     -0.586618
      34A     -0.579524    35A     -0.577700    36A     -0.576188
      37A     -0.490018    38A     -0.470075    39A     -0.455465
      40A     -0.454142    41A     -0.453675    42A     -0.447821
      43A     -0.439152    44A     -0.406060    45A     -0.396906
      46A     -0.377264    47A     -0.376157    48A     -0.373341
      49A     -0.372544    50A     -0.368606    51A     -0.231370
      52A     -0.226375    53A     -0.224951

  @DF-RHF Final Energy: -3105.00532122110872

   => Energetics <=

    Nuclear Repulsion Energy =            671.2396094591243809
    One-Electron Energy =               -5674.9015306086548662
    Two-Electron Energy =                1898.6565999284218833
    Total Energy =                      -3105.0053212211087157
 Dipole X            :         39.6275920          -40.9122777           -1.2846857
 Dipole Y            :         43.0783112          -43.9444340           -0.8661228
 Dipole Z            :         58.6025901          -58.7914660           -0.1888759
 Magnitude           :                                                    1.5608523
  Basis Set: (AUG-CC-PVTZ AUX)
    Blend: AUG-CC-PVTZ-RI
	 Reference Energy          =   -3105.0053212211087157 [Eh]
	 Singles Energy            =      -0.0000000000000000 [Eh]
	 Same-Spin Energy          =      -0.5843989900043849 [Eh]
	 Opposite-Spin Energy      =      -1.7367318843563677 [Eh]
	 Correlation Energy        =      -2.3211308743607528 [Eh]
	 Total Energy              =   -3107.3264520954694490 [Eh]

	 ================> DF-SCS-MP2 Energies <==================
	-----------------------------------------------------------
	 SCS Same-Spin Scale       =       0.3333333333333333 [-]
	 SCS Opposite-Spin Scale   =       1.2000000000000000 [-]
	 SCS Same-Spin Energy      =      -0.1947996633347950 [Eh]
	 SCS Opposite-Spin Energy  =      -2.0840782612276412 [Eh]
	 SCS Correlation Energy    =      -2.2788779245624360 [Eh]
	 SCS Total Energy          =   -3107.2841991456712094 [Eh]
	-----------------------------------------------------------

*** Psi4 exiting successfully. Buy a developer a beer!
