                               Psi4 1.8.2 release

  ==> Input File <==

--------------------------------------------------------------------------
MEMORY 60 GB

molecule dimer {
0 1
Gh(Br)     0.000000     0.000000     0.000000
Gh(O)     -1.555931    -2.410735     1.903242
Gh(H)     -1.336158    -1.685951     1.329705
Gh(H)     -1.202065    -2.143102     2.753233
Gh(O)      1.417048     1.968120    -2.039520
Gh(H)      1.167136     1.401234    -1.339808
Gh(H)      2.306972     2.196646    -1.827799
Gh(O)     -2.508795     2.074873    -1.101146
Gh(H)     -3.092353     1.814461    -0.316996
Gh(H)     -1.909740     1.348917    -1.007525
Gh(O)      2.328483    -2.470186    -0.546566
Gh(H)      1.861807    -3.293107    -0.316598
Gh(H)      1.615156    -1.824846    -0.512308
O         -1.332291    -0.652158    -3.288020
H         -0.891184    -0.465234    -2.411088
H         -0.886797    -0.114013    -3.927637

units ang
no_reorient
no_com
symmetry c1
}

set {
basis        aug-cc-pVTZ
scf_type     df
}

energy("mp2")
--------------------------------------------------------------------------

    Molecular point group: c1

    Geometry (in Angstrom), charge = 0, multiplicity = 1:

       Center              X                  Y                   Z               Mass
    ------------   -----------------  -----------------  -----------------  -----------------
      Gh(BR)          0.000000000000     0.000000000000     0.000000000000    78.918337600000
      Gh(O)          -1.555931000000    -2.410735000000     1.903242000000    15.994914619570
      Gh(H)          -1.336158000000    -1.685951000000     1.329705000000     1.007825032230
      Gh(H)          -1.202065000000    -2.143102000000     2.753233000000     1.007825032230
      Gh(O)           1.417048000000     1.968120000000    -2.039520000000    15.994914619570
      Gh(H)           1.167136000000     1.401234000000    -1.339808000000     1.007825032230
      Gh(H)           2.306972000000     2.196646000000    -1.827799000000     1.007825032230
      Gh(O)          -2.508795000000     2.074873000000    -1.101146000000    15.994914619570
      Gh(H)          -3.092353000000     1.814461000000    -0.316996000000     1.007825032230
      Gh(H)          -1.909740000000     1.348917000000    -1.007525000000     1.007825032230
      Gh(O)           2.328483000000    -2.470186000000    -0.546566000000    15.994914619570
      Gh(H)           1.861807000000    -3.293107000000    -0.316598000000     1.007825032230
      Gh(H)           1.615156000000    -1.824846000000    -0.512308000000     1.007825032230
         O           -1.332291000000    -0.652158000000    -3.288020000000    15.994914619570
         H           -0.891184000000    -0.465234000000    -2.411088000000     1.007825032230
         H           -0.886797000000    -0.114013000000    -3.927637000000     1.007825032230

  Charge       = 0
  Multiplicity = 1
  Basis Set: AUG-CC-PVTZ
    Blend: AUG-CC-PVTZ
  Basis Set: (AUG-CC-PVTZ AUX)
    Blend: AUG-CC-PVTZ-JKFIT

    Orbital Energies [Eh]
    ---------------------

    Doubly Occupied:

       1A    -20.569044     2A     -1.344920     3A     -0.712447
       4A     -0.578369     5A     -0.508585

  @DF-RHF Final Energy:   -76.05789618148523

   => Energetics <=

    Nuclear Repulsion Energy =              9.0459128307426671
    One-Electron Energy =                -122.7808869926133184
    Two-Electron Energy =                  37.6770779803854197
    Total Energy =                        -76.0578961814852335
 Dipole X            :         24.0886246          -23.5012180            0.5874066
 Dipole Y            :         11.4358639          -10.9538183            0.4820456
 Dipole Z            :         61.8352322          -61.6861126            0.1491196
 Magnitude           :                                                    0.7743715
  Basis Set: (AUG-CC-PVTZ AUX)
    Blend: AUG-CC-PVTZ-RI
	 Reference Energy          =     -76.0578961814852335 [Eh]
	 Singles Energy            =      -0.0000000000000000 [Eh]
	 Same-Spin Energy          =      -0.0686263922430679 [Eh]
	 Opposite-Spin Energy      =      -0.2165262978084372 [Eh]
	 Correlation Energy        =      -0.2851526900515051 [Eh]
	 Total Energy              =     -76.3430488715367375 [Eh]

	 ================> DF-SCS-MP2 Energies <==================
	-----------------------------------------------------------
	 SCS Same-Spin Scale       =       0.3333333333333333 [-]
	 SCS Opposite-Spin Scale   =       1.2000000000000000 [-]
	 SCS Same-Spin Energy      =      -0.0228754640810226 [Eh]
	 SCS Opposite-Spin Energy  =      -0.2598315573701246 [Eh]
	 SCS Correlation Energy    =      -0.2827070214511473 [Eh]
	 SCS Total Energy          =     -76.3406032029363786 [Eh]
	-----------------------------------------------------------

*** Psi4 exiting successfully. Buy a developer a beer!
