                               Psi4 1.8.2 release

  ==> Input File <==

--------------------------------------------------------------------------
MEMORY 60 GB

molecule dimer {
0 1
Gh(Br)     0.000000     0.000000     0.000000
Gh(O)     -2.548049    -2.354520     0.519339
Gh(H)     -2.666770    -2.821685    -0.323927
Gh(H)     -1.695142    -1.848878     0.456973
Gh(O)     -1.457981     0.902302     2.719317
Gh(H)     -1.294948     0.555730     1.798206
Gh(H)     -0.692664     1.324571     3.139780
Gh(O)     -3.298663     0.026340    -1.099442
Gh(H)     -2.351904     0.032069    -0.730133
Gh(H)     -3.819150     0.744102    -0.672524
Gh(O)      3.011971     1.575496    -0.920955
Gh(H)      2.415873     2.197453    -0.478182
Gh(H)      3.797578     1.977003    -0.551870
O          0.351201    -2.642806    -2.030331
H          0.280321    -2.081072    -1.262730
H          0.561185    -3.499150    -1.619153

units ang
no_reorient
no_com
symmetry c1
}

set {
basis        aug-cc-pVTZ
scf_type     df
}

energy("mp2")
--------------------------------------------------------------------------

    Molecular point group: c1

    Geometry (in Angstrom), charge = 0, multiplicity = 1:

       Center              X                  Y                   Z               Mass
    ------------   -----------------  -----------------  -----------------  -----------------
      Gh(BR)          0.000000000000     0.000000000000     0.000000000000    78.918337600000
      Gh(O)          -2.548049000000    -2.354520000000     0.519339000000    15.994914619570
      Gh(H)          -2.666770000000    -2.821685000000    -0.323927000000     1.007825032230
      Gh(H)          -1.695142000000    -1.848878000000     0.456973000000     1.007825032230
      Gh(O)          -1.457981000000     0.902302000000     2.719317000000    15.994914619570
      Gh(H)          -1.294948000000     0.555730000000     1.798206000000     1.007825032230
      Gh(H)          -0.692664000000     1.324571000000     3.139780000000     1.007825032230
      Gh(O)          -3.298663000000     0.026340000000    -1.099442000000    15.994914619570
      Gh(H)          -2.351904000000     0.032069000000    -0.730133000000     1.007825032230
      Gh(H)          -3.819150000000     0.744102000000    -0.672524000000     1.007825032230
      Gh(O)           3.011971000000     1.575496000000    -0.920955000000    15.994914619570
      Gh(H)           2.415873000000     2.197453000000    -0.478182000000     1.007825032230
      Gh(H)           3.797578000000     1.977003000000    -0.551870000000     1.007825032230
         O            0.351201000000    -2.642806000000    -2.030331000000    15.994914619570
         H            0.280321000000    -2.081072000000    -1.262730000000     1.007825032230
         H            0.561185000000    -3.499150000000    -1.619153000000     1.007825032230

  Charge       = 0
  Multiplicity = 1
  Basis Set: AUG-CC-PVTZ
    Blend: AUG-CC-PVTZ
  Basis Set: (AUG-CC-PVTZ AUX)
    Blend: AUG-CC-PVTZ-JKFIT

    Orbital Energies [Eh]
    ---------------------

    Doubly Occupied:

       1A    -20.569630     2A     -1.352903     3A     -0.707991
       4A     -0.590182     5A     -0.510823

  @DF-RHF Final Energy:   -76.05955075469558

   => Energetics <=

    Nuclear Repulsion Energy =              9.1452255882306943
    One-Electron Energy =                -122.9464913705288609
    Two-Electron Energy =                  37.7417150276026092
    Total Energy =                        -76.0595507546955645
 Dipole X            :         -6.8085614            6.8996055            0.0910442
 Dipole Y            :         50.3088444          -50.4985276           -0.1896833
 Dipole Z            :         36.9153047          -36.1401259            0.7751789
 Magnitude           :                                                    0.8032254
  Basis Set: (AUG-CC-PVTZ AUX)
    Blend: AUG-CC-PVTZ-RI
	 Reference Energy          =     -76.0595507546955787 [Eh]
	 Singles Energy            =      -0.0000000000000000 [Eh]
	 Same-Spin Energy          =      -0.0685666409447804 [Eh]
	 Opposite-Spin Energy      =      -0.2162319588771958 [Eh]
	 Correlation Energy        =      -0.2847985998219763 [Eh]
	 Total Energy              =     -76.3443493545175613 [Eh]

	 ================> DF-SCS-MP2 Energies <==================
	-----------------------------------------------------------
	 SCS Same-Spin Scale       =       0.3333333333333333 [-]
	 SCS Opposite-Spin Scale   =       1.2000000000000000 [-]
	 SCS Same-Spin Energy      =      -0.0228555469815935 [Eh]
	 SCS Opposite-Spin Energy  =      -0.2594783506526350 [Eh]
	 SCS Correlation Energy    =      -0.2823338976342285 [Eh]
	 SCS Total Energy          =     -76.3418846523298100 [Eh]
	-----------------------------------------------------------

*** Psi4 exiting successfully. Buy a developer a beer!
