                               Psi4 1.8.2 release

  ==> Input File <==

--------------------------------------------------------------------------
MEMORY 60 GB

molecule dimer {
0 1
Gh(Br)     0.000000     0.000000     0.000000
Gh(O)     -2.305583    -2.407606     0.494450
Gh(H)     -1.867709    -1.598552     0.196248
Gh(H)     -2.635182    -2.303553     1.364687
O         -2.542743     1.435325     1.136668
H         -2.316989     2.197870     1.699100
H         -1.797245     0.909355     0.922860
Gh(O)     -0.667402     0.006100     3.273615
Gh(H)     -1.303297     0.663052     3.442756
Gh(H)     -0.519269    -0.098645     2.327999
Gh(O)      2.326692     2.113075     1.613902
Gh(H)      1.497957     1.639342     1.313777
Gh(H)      2.985432     1.613206     1.112036

units ang
no_reorient
no_com
symmetry c1
}

set {
basis        aug-cc-pVTZ
scf_type     df
}

energy("mp2")
--------------------------------------------------------------------------

    Molecular point group: c1

    Geometry (in Angstrom), charge = 0, multiplicity = 1:

       Center              X                  Y                   Z               Mass
    ------------   -----------------  -----------------  -----------------  -----------------
      Gh(BR)          0.000000000000     0.000000000000     0.000000000000    78.918337600000
      Gh(O)          -2.305583000000    -2.407606000000     0.494450000000    15.994914619570
      Gh(H)          -1.867709000000    -1.598552000000     0.196248000000     1.007825032230
      Gh(H)          -2.635182000000    -2.303553000000     1.364687000000     1.007825032230
         O           -2.542743000000     1.435325000000     1.136668000000    15.994914619570
         H           -2.316989000000     2.197870000000     1.699100000000     1.007825032230
         H           -1.797245000000     0.909355000000     0.922860000000     1.007825032230
      Gh(O)          -0.667402000000     0.006100000000     3.273615000000    15.994914619570
      Gh(H)          -1.303297000000     0.663052000000     3.442756000000     1.007825032230
      Gh(H)          -0.519269000000    -0.098645000000     2.327999000000     1.007825032230
      Gh(O)           2.326692000000     2.113075000000     1.613902000000    15.994914619570
      Gh(H)           1.497957000000     1.639342000000     1.313777000000     1.007825032230
      Gh(H)           2.985432000000     1.613206000000     1.112036000000     1.007825032230

  Charge       = 0
  Multiplicity = 1
  Basis Set: AUG-CC-PVTZ
    Blend: AUG-CC-PVTZ
  Basis Set: (AUG-CC-PVTZ AUX)
    Blend: AUG-CC-PVTZ-JKFIT

    Orbital Energies [Eh]
    ---------------------

    Doubly Occupied:

       1A    -20.562924     2A     -1.348985     3A     -0.733918
       4A     -0.569160     5A     -0.508008

  @DF-RHF Final Energy:   -76.05893084634985

   => Energetics <=

    Nuclear Repulsion Energy =              9.1963597701057722
    One-Electron Energy =                -123.0645855103805104
    Two-Electron Energy =                  37.8092948939248714
    Total Energy =                        -76.0589308463498668
 Dipole X            :         46.8812895          -46.2154785            0.6658110
 Dipole Y            :        -27.4130886           27.5707735            0.1576849
 Dipole Z            :        -21.9029009           22.1387160            0.2358152
 Magnitude           :                                                    0.7237248
  Basis Set: (AUG-CC-PVTZ AUX)
    Blend: AUG-CC-PVTZ-RI
	 Reference Energy          =     -76.0589308463498526 [Eh]
	 Singles Energy            =      -0.0000000000000000 [Eh]
	 Same-Spin Energy          =      -0.0682999090327388 [Eh]
	 Opposite-Spin Energy      =      -0.2157553992428296 [Eh]
	 Correlation Energy        =      -0.2840553082755684 [Eh]
	 Total Energy              =     -76.3429861546254216 [Eh]

	 ================> DF-SCS-MP2 Energies <==================
	-----------------------------------------------------------
	 SCS Same-Spin Scale       =       0.3333333333333333 [-]
	 SCS Opposite-Spin Scale   =       1.2000000000000000 [-]
	 SCS Same-Spin Energy      =      -0.0227666363442463 [Eh]
	 SCS Opposite-Spin Energy  =      -0.2589064790913955 [Eh]
	 SCS Correlation Energy    =      -0.2816731154356417 [Eh]
	 SCS Total Energy          =     -76.3406039617854901 [Eh]
	-----------------------------------------------------------

*** Psi4 exiting successfully. Buy a developer a beer!
