                               Psi4 1.8.2 release

  ==> Input File <==

--------------------------------------------------------------------------
MEMORY 60 GB

molecule dimer {
0 1
Gh(Br)     0.000000     0.000000     0.000000
Gh(O)     -1.696690     2.934160     0.134506
Gh(H)     -1.321713     2.170825    -0.262468
Gh(H)     -2.582990     2.990468    -0.140736
Gh(O)      2.205792     1.542061    -1.989152
Gh(H)      1.378254     1.355469    -1.592385
Gh(H)      1.896691     1.977670    -2.832326
O          2.682266     1.638353     1.709860
H          1.939337     1.329311     1.132545
H          2.900490     2.498860     1.415817

units ang
no_reorient
no_com
symmetry c1
}

set {
basis        aug-cc-pVTZ
scf_type     df
}

energy("mp2")
--------------------------------------------------------------------------

    Molecular point group: c1

    Geometry (in Angstrom), charge = 0, multiplicity = 1:

       Center              X                  Y                   Z               Mass
    ------------   -----------------  -----------------  -----------------  -----------------
      Gh(BR)          0.000000000000     0.000000000000     0.000000000000    78.918337600000
      Gh(O)          -1.696690000000     2.934160000000     0.134506000000    15.994914619570
      Gh(H)          -1.321713000000     2.170825000000    -0.262468000000     1.007825032230
      Gh(H)          -2.582990000000     2.990468000000    -0.140736000000     1.007825032230
      Gh(O)           2.205792000000     1.542061000000    -1.989152000000    15.994914619570
      Gh(H)           1.378254000000     1.355469000000    -1.592385000000     1.007825032230
      Gh(H)           1.896691000000     1.977670000000    -2.832326000000     1.007825032230
         O            2.682266000000     1.638353000000     1.709860000000    15.994914619570
         H            1.939337000000     1.329311000000     1.132545000000     1.007825032230
         H            2.900490000000     2.498860000000     1.415817000000     1.007825032230

  Charge       = 0
  Multiplicity = 1
  Basis Set: AUG-CC-PVTZ
    Blend: AUG-CC-PVTZ
  Basis Set: (AUG-CC-PVTZ AUX)
    Blend: AUG-CC-PVTZ-JKFIT

    Orbital Energies [Eh]
    ---------------------

    Doubly Occupied:

       1A    -20.567242     2A     -1.350289     3A     -0.718238
       4A     -0.580337     5A     -0.509458

  @DF-RHF Final Energy:   -76.05876352787173

   => Energetics <=

    Nuclear Repulsion Energy =              9.1452413058395248
    One-Electron Energy =                -122.9568787537388772
    Two-Electron Energy =                  37.7528739200276391
    Total Energy =                        -76.0587635278717187
 Dipole X            :        -50.0402659           49.6959326           -0.3443333
 Dipole Y            :        -31.6278957           32.0025025            0.3746068
 Dipole Z            :        -31.2446729           30.6650432           -0.5796298
 Magnitude           :                                                    0.7712758
  Basis Set: (AUG-CC-PVTZ AUX)
    Blend: AUG-CC-PVTZ-RI
	 Reference Energy          =     -76.0587635278717329 [Eh]
	 Singles Energy            =      -0.0000000000000000 [Eh]
	 Same-Spin Energy          =      -0.0684298701955958 [Eh]
	 Opposite-Spin Energy      =      -0.2158160548417590 [Eh]
	 Correlation Energy        =      -0.2842459250373547 [Eh]
	 Total Energy              =     -76.3430094529090866 [Eh]

	 ================> DF-SCS-MP2 Energies <==================
	-----------------------------------------------------------
	 SCS Same-Spin Scale       =       0.3333333333333333 [-]
	 SCS Opposite-Spin Scale   =       1.2000000000000000 [-]
	 SCS Same-Spin Energy      =      -0.0228099567318652 [Eh]
	 SCS Opposite-Spin Energy  =      -0.2589792658101108 [Eh]
	 SCS Correlation Energy    =      -0.2817892225419760 [Eh]
	 SCS Total Energy          =     -76.3405527504137069 [Eh]
	-----------------------------------------------------------

*** Psi4 exiting successfully. Buy a developer a beer!
