                               Psi4 1.8.2 release

  ==> Input File <==

--------------------------------------------------------------------------
MEMORY 60 GB

molecule dimer {
-1 1
Br         0.000000     0.000000     0.000000
O         -1.002720     1.993124     2.321313
H         -0.351528     2.133751     3.042936
H         -0.543410     1.349055     1.802299
O          0.307659    -1.113457     3.179549
H          0.146511    -1.014538     2.251034
H          0.916176    -0.384364     3.369983
O          0.134938     2.890842    -2.146499
H          0.910478     2.837152    -2.697170
H          0.278111     2.304641    -1.426932
O          2.679835     2.140169     0.858685
H          2.130372     1.676874     0.222200
H          2.422386     3.080482     0.748396
O          2.910957    -1.444106     1.064877
H          2.876759    -2.399112     0.943677
H          1.992337    -1.112588     0.882055
O         -2.729613     2.306210     0.073831
H         -2.217593     2.158831     0.876539
H         -2.952467     1.398441    -0.249696

units ang
no_reorient
no_com
symmetry c1
}

set {
basis        aug-cc-pVTZ
scf_type     df
}

energy("mp2")
--------------------------------------------------------------------------

    Molecular point group: c1

    Geometry (in Angstrom), charge = -1, multiplicity = 1:

       Center              X                  Y                   Z               Mass
    ------------   -----------------  -----------------  -----------------  -----------------
         BR           0.000000000000     0.000000000000     0.000000000000    78.918337600000
         O           -1.002720000000     1.993124000000     2.321313000000    15.994914619570
         H           -0.351528000000     2.133751000000     3.042936000000     1.007825032230
         H           -0.543410000000     1.349055000000     1.802299000000     1.007825032230
         O            0.307659000000    -1.113457000000     3.179549000000    15.994914619570
         H            0.146511000000    -1.014538000000     2.251034000000     1.007825032230
         H            0.916176000000    -0.384364000000     3.369983000000     1.007825032230
         O            0.134938000000     2.890842000000    -2.146499000000    15.994914619570
         H            0.910478000000     2.837152000000    -2.697170000000     1.007825032230
         H            0.278111000000     2.304641000000    -1.426932000000     1.007825032230
         O            2.679835000000     2.140169000000     0.858685000000    15.994914619570
         H            2.130372000000     1.676874000000     0.222200000000     1.007825032230
         H            2.422386000000     3.080482000000     0.748396000000     1.007825032230
         O            2.910957000000    -1.444106000000     1.064877000000    15.994914619570
         H            2.876759000000    -2.399112000000     0.943677000000     1.007825032230
         H            1.992337000000    -1.112588000000     0.882055000000     1.007825032230
         O           -2.729613000000     2.306210000000     0.073831000000    15.994914619570
         H           -2.217593000000     2.158831000000     0.876539000000     1.007825032230
         H           -2.952467000000     1.398441000000    -0.249696000000     1.007825032230

  Charge       = -1
  Multiplicity = 1
  Basis Set: AUG-CC-PVTZ
    Blend: AUG-CC-PVTZ
  Basis Set: (AUG-CC-PVTZ AUX)
    Blend: AUG-CC-PVTZ-JKFIT

    Orbital Energies [Eh]
    ---------------------

    Doubly Occupied:

       1A   -489.802289     2A    -64.942821     3A    -58.297329
       4A    -58.297300     5A    -58.297271     6A    -20.443125
       7A    -20.437751     8A    -20.433024     9A    -20.425711
      10A    -20.424569    11A    -20.408928    12A     -9.615210
      13A     -7.222845    14A     -7.222691    15A     -7.222583
      16A     -2.964468    17A     -2.964443    18A     -2.964283
      19A     -2.964092    20A     -2.964055    21A     -1.229658
      22A     -1.227926    23A     -1.222337    24A     -1.216198
      25A     -1.200390    26A     -1.185694    27A     -0.783503
      28A     -0.597880    29A     -0.589278    30A     -0.584747
      31A     -0.577176    32A     -0.568340    33A     -0.552424
      34A     -0.473580    35A     -0.462061    36A     -0.454259
      37A     -0.453321    38A     -0.439376    39A     -0.422368
      40A     -0.390088    41A     -0.384382    42A     -0.381147
      43A     -0.375970    44A     -0.361577    45A     -0.352022
      46A     -0.231929    47A     -0.229383    48A     -0.228215

  @DF-RHF Final Energy: -3028.94043045569015

   => Energetics <=

    Nuclear Repulsion Energy =            569.1062662001631907
    One-Electron Energy =               -5365.1133538762060198
    Two-Electron Energy =                1767.0666572203526812
    Total Energy =                      -3028.9404304556901479
 Dipole X            :        -44.9963424           45.3847587            0.3884162
 Dipole Y            :       -126.4698423          125.1204316           -1.3494107
 Dipole Z            :       -100.4400434           99.3606073           -1.0794362
 Magnitude           :                                                    1.7711462
  Basis Set: (AUG-CC-PVTZ AUX)
    Blend: AUG-CC-PVTZ-RI
	 Reference Energy          =   -3028.9404304556901479 [Eh]
	 Singles Energy            =      -0.0000000000000000 [Eh]
	 Same-Spin Energy          =      -0.5166345056871989 [Eh]
	 Opposite-Spin Energy      =      -1.5228648177295458 [Eh]
	 Correlation Energy        =      -2.0394993234167447 [Eh]
	 Total Energy              =   -3030.9799297791068966 [Eh]

	 ================> DF-SCS-MP2 Energies <==================
	-----------------------------------------------------------
	 SCS Same-Spin Scale       =       0.3333333333333333 [-]
	 SCS Opposite-Spin Scale   =       1.2000000000000000 [-]
	 SCS Same-Spin Energy      =      -0.1722115018957330 [Eh]
	 SCS Opposite-Spin Energy  =      -1.8274377812754550 [Eh]
	 SCS Correlation Energy    =      -1.9996492831711881 [Eh]
	 SCS Total Energy          =   -3030.9400797388611863 [Eh]
	-----------------------------------------------------------

*** Psi4 exiting successfully. Buy a developer a beer!
