                               Psi4 1.8.2 release

  ==> Input File <==

--------------------------------------------------------------------------
MEMORY 60 GB

molecule dimer {
-1 1
Br         0.000000     0.000000     0.000000
O          1.048984    -1.751826     2.468714
H          0.346226    -1.574453     3.123380
H          0.851106    -1.311539     1.644549
O         -2.820287    -2.108900     0.576548
H         -2.511233    -1.229356     0.357885
H         -2.113463    -2.779649     0.548949
O          3.567175    -0.231884     0.328854
H          2.744073    -0.227220     0.878728
H          4.212940     0.263403     0.897667
O         -3.465849     0.836464    -0.133478
H         -3.736443     0.132471    -0.710973
H         -3.073107     1.425776    -0.768412
O         -0.059575     2.949979    -1.773779
H          0.033635     2.297669    -1.066174
H         -0.868960     2.765295    -2.220305

units ang
no_reorient
no_com
symmetry c1
}

set {
basis        aug-cc-pVTZ
scf_type     df
}

energy("mp2")
--------------------------------------------------------------------------

    Molecular point group: c1

    Geometry (in Angstrom), charge = -1, multiplicity = 1:

       Center              X                  Y                   Z               Mass
    ------------   -----------------  -----------------  -----------------  -----------------
         BR           0.000000000000     0.000000000000     0.000000000000    78.918337600000
         O            1.048984000000    -1.751826000000     2.468714000000    15.994914619570
         H            0.346226000000    -1.574453000000     3.123380000000     1.007825032230
         H            0.851106000000    -1.311539000000     1.644549000000     1.007825032230
         O           -2.820287000000    -2.108900000000     0.576548000000    15.994914619570
         H           -2.511233000000    -1.229356000000     0.357885000000     1.007825032230
         H           -2.113463000000    -2.779649000000     0.548949000000     1.007825032230
         O            3.567175000000    -0.231884000000     0.328854000000    15.994914619570
         H            2.744073000000    -0.227220000000     0.878728000000     1.007825032230
         H            4.212940000000     0.263403000000     0.897667000000     1.007825032230
         O           -3.465849000000     0.836464000000    -0.133478000000    15.994914619570
         H           -3.736443000000     0.132471000000    -0.710973000000     1.007825032230
         H           -3.073107000000     1.425776000000    -0.768412000000     1.007825032230
         O           -0.059575000000     2.949979000000    -1.773779000000    15.994914619570
         H            0.033635000000     2.297669000000    -1.066174000000     1.007825032230
         H           -0.868960000000     2.765295000000    -2.220305000000     1.007825032230

  Charge       = -1
  Multiplicity = 1
  Basis Set: AUG-CC-PVTZ
    Blend: AUG-CC-PVTZ
  Basis Set: (AUG-CC-PVTZ AUX)
    Blend: AUG-CC-PVTZ-JKFIT

    Orbital Energies [Eh]
    ---------------------

    Doubly Occupied:

       1A   -489.773044     2A    -64.913538     3A    -58.268042
       4A    -58.268036     5A    -58.267974     6A    -20.454753
       7A    -20.433511     8A    -20.422928     9A    -20.421977
      10A    -20.409785    11A     -9.585985    12A     -7.193751
      13A     -7.193500    14A     -7.193160    15A     -2.935452
      16A     -2.935413    17A     -2.934973    18A     -2.934728
      19A     -2.934651    20A     -1.249242    21A     -1.212295
      22A     -1.203434    23A     -1.198540    24A     -1.193824
      25A     -0.751137    26A     -0.607231    27A     -0.584572
      28A     -0.583324    29A     -0.574859    30A     -0.555659
      31A     -0.484007    32A     -0.443827    33A     -0.443705
      34A     -0.432556    35A     -0.426523    36A     -0.400781
      37A     -0.369921    38A     -0.369274    39A     -0.368968
      40A     -0.357390    41A     -0.204507    42A     -0.199110
      43A     -0.194462

  @DF-RHF Final Energy: -2952.86494521655050

   => Energetics <=

    Nuclear Repulsion Energy =            426.9614615385821139
    One-Electron Energy =               -4975.8841134861650062
    Two-Electron Energy =                1596.0577067310325674
    Total Energy =                      -2952.8649452165509501
 Dipole X            :         33.4659442          -33.9236869           -0.4577427
 Dipole Y            :          5.3828723           -5.0775788            0.3052935
 Dipole Z            :        -27.6161143           27.2501644           -0.3659499
 Magnitude           :                                                    0.6607963
  Basis Set: (AUG-CC-PVTZ AUX)
    Blend: AUG-CC-PVTZ-RI
	 Reference Energy          =   -2952.8649452165504954 [Eh]
	 Singles Energy            =      -0.0000000000000000 [Eh]
	 Same-Spin Energy          =      -0.4421040931484194 [Eh]
	 Opposite-Spin Energy      =      -1.2977185603535393 [Eh]
	 Correlation Energy        =      -1.7398226535019587 [Eh]
	 Total Energy              =   -2954.6047678700524557 [Eh]

	 ================> DF-SCS-MP2 Energies <==================
	-----------------------------------------------------------
	 SCS Same-Spin Scale       =       0.3333333333333333 [-]
	 SCS Opposite-Spin Scale   =       1.2000000000000000 [-]
	 SCS Same-Spin Energy      =      -0.1473680310494731 [Eh]
	 SCS Opposite-Spin Energy  =      -1.5572622724242471 [Eh]
	 SCS Correlation Energy    =      -1.7046303034737202 [Eh]
	 SCS Total Energy          =   -2954.5695755200240455 [Eh]
	-----------------------------------------------------------

*** Psi4 exiting successfully. Buy a developer a beer!
