                               Psi4 1.8.2 release

  ==> Input File <==

--------------------------------------------------------------------------
MEMORY 60 GB

molecule dimer {
0 1
Gh(Br)     0.000000     0.000000     0.000000
O          2.325004    -1.298634    -2.213133
H          2.857483    -1.255111    -1.413986
H          2.313941    -0.417505    -2.644260
Gh(O)     -1.248098     0.645875    -3.275602
Gh(H)     -0.485089     1.037878    -2.846501
Gh(H)     -1.311819    -0.293005    -2.968019
Gh(O)     -3.258963    -0.749716     1.164907
Gh(H)     -2.392241    -0.545925     0.838651
Gh(H)     -3.799812    -0.010076     0.950904
Gh(O)     -1.050932     1.717097     2.665447
Gh(H)     -0.953034     1.208500     1.826221
Gh(H)     -1.159093     2.719158     2.537031
Gh(O)      0.684386     2.811876    -1.890060
Gh(H)      1.381221     2.308150    -2.327268
Gh(H)      0.564161     2.487954    -0.988929

units ang
no_reorient
no_com
symmetry c1
}

set {
basis        aug-cc-pVTZ
scf_type     df
}

energy("mp2")
--------------------------------------------------------------------------

    Molecular point group: c1

    Geometry (in Angstrom), charge = 0, multiplicity = 1:

       Center              X                  Y                   Z               Mass
    ------------   -----------------  -----------------  -----------------  -----------------
      Gh(BR)          0.000000000000     0.000000000000     0.000000000000    78.918337600000
         O            2.325004000000    -1.298634000000    -2.213133000000    15.994914619570
         H            2.857483000000    -1.255111000000    -1.413986000000     1.007825032230
         H            2.313941000000    -0.417505000000    -2.644260000000     1.007825032230
      Gh(O)          -1.248098000000     0.645875000000    -3.275602000000    15.994914619570
      Gh(H)          -0.485089000000     1.037878000000    -2.846501000000     1.007825032230
      Gh(H)          -1.311819000000    -0.293005000000    -2.968019000000     1.007825032230
      Gh(O)          -3.258963000000    -0.749716000000     1.164907000000    15.994914619570
      Gh(H)          -2.392241000000    -0.545925000000     0.838651000000     1.007825032230
      Gh(H)          -3.799812000000    -0.010076000000     0.950904000000     1.007825032230
      Gh(O)          -1.050932000000     1.717097000000     2.665447000000    15.994914619570
      Gh(H)          -0.953034000000     1.208500000000     1.826221000000     1.007825032230
      Gh(H)          -1.159093000000     2.719158000000     2.537031000000     1.007825032230
      Gh(O)           0.684386000000     2.811876000000    -1.890060000000    15.994914619570
      Gh(H)           1.381221000000     2.308150000000    -2.327268000000     1.007825032230
      Gh(H)           0.564161000000     2.487954000000    -0.988929000000     1.007825032230

  Charge       = 0
  Multiplicity = 1
  Basis Set: AUG-CC-PVTZ
    Blend: AUG-CC-PVTZ
  Basis Set: (AUG-CC-PVTZ AUX)
    Blend: AUG-CC-PVTZ-JKFIT

    Orbital Energies [Eh]
    ---------------------

    Doubly Occupied:

       1A    -20.567304     2A     -1.343269     3A     -0.719046
       4A     -0.572912     5A     -0.507738

  @DF-RHF Final Energy:   -76.05879262271677

   => Energetics <=

    Nuclear Repulsion Energy =              9.0532659337391816
    One-Electron Energy =                -122.8035738253189919
    Two-Electron Energy =                  37.6915152688630499
    Total Energy =                        -76.0587926227167657
 Dipole X            :        -44.5712676           44.9215414            0.3502738
 Dipole Y            :         23.4107616          -22.7932869            0.6174747
 Dipole Z            :         41.3751264          -41.1266955            0.2484309
 Magnitude           :                                                    0.7521201
  Basis Set: (AUG-CC-PVTZ AUX)
    Blend: AUG-CC-PVTZ-RI
	 Reference Energy          =     -76.0587926227167657 [Eh]
	 Singles Energy            =      -0.0000000000000000 [Eh]
	 Same-Spin Energy          =      -0.0685397850996047 [Eh]
	 Opposite-Spin Energy      =      -0.2159738531990829 [Eh]
	 Correlation Energy        =      -0.2845136382986876 [Eh]
	 Total Energy              =     -76.3433062610154565 [Eh]

	 ================> DF-SCS-MP2 Energies <==================
	-----------------------------------------------------------
	 SCS Same-Spin Scale       =       0.3333333333333333 [-]
	 SCS Opposite-Spin Scale   =       1.2000000000000000 [-]
	 SCS Same-Spin Energy      =      -0.0228465950332016 [Eh]
	 SCS Opposite-Spin Energy  =      -0.2591686238388995 [Eh]
	 SCS Correlation Energy    =      -0.2820152188721011 [Eh]
	 SCS Total Energy          =     -76.3408078415888696 [Eh]
	-----------------------------------------------------------

*** Psi4 exiting successfully. Buy a developer a beer!
