                               Psi4 1.8.2 release

  ==> Input File <==

--------------------------------------------------------------------------
MEMORY 60 GB

molecule dimer {
0 1
Gh(Br)     0.000000     0.000000     0.000000
Gh(O)      0.621247    -0.253886     3.242490
Gh(H)      0.234566     0.055975     2.396675
Gh(H)      0.415263     0.421387     3.885040
O         -0.516566     3.494598     0.217594
H         -0.532078     2.526620     0.174775
H         -1.057899     3.829521    -0.470581
Gh(O)     -2.996306     0.834889     0.610223
Gh(H)     -2.026873     0.813467     0.442268
Gh(H)     -3.320349    -0.026119     0.263152
Gh(O)      2.165559     2.220841    -1.401461
Gh(H)      1.379243     2.086322    -1.915582
Gh(H)      1.950098     2.837132    -0.711281
Gh(O)     -0.802070     1.843563    -2.594464
Gh(H)     -1.311892     2.734430    -2.481891
Gh(H)     -0.751670     1.215067    -1.902978

units ang
no_reorient
no_com
symmetry c1
}

set {
basis        aug-cc-pVTZ
scf_type     df
}

energy("mp2")
--------------------------------------------------------------------------

    Molecular point group: c1

    Geometry (in Angstrom), charge = 0, multiplicity = 1:

       Center              X                  Y                   Z               Mass
    ------------   -----------------  -----------------  -----------------  -----------------
      Gh(BR)          0.000000000000     0.000000000000     0.000000000000    78.918337600000
      Gh(O)           0.621247000000    -0.253886000000     3.242490000000    15.994914619570
      Gh(H)           0.234566000000     0.055975000000     2.396675000000     1.007825032230
      Gh(H)           0.415263000000     0.421387000000     3.885040000000     1.007825032230
         O           -0.516566000000     3.494598000000     0.217594000000    15.994914619570
         H           -0.532078000000     2.526620000000     0.174775000000     1.007825032230
         H           -1.057899000000     3.829521000000    -0.470581000000     1.007825032230
      Gh(O)          -2.996306000000     0.834889000000     0.610223000000    15.994914619570
      Gh(H)          -2.026873000000     0.813467000000     0.442268000000     1.007825032230
      Gh(H)          -3.320349000000    -0.026119000000     0.263152000000     1.007825032230
      Gh(O)           2.165559000000     2.220841000000    -1.401461000000    15.994914619570
      Gh(H)           1.379243000000     2.086322000000    -1.915582000000     1.007825032230
      Gh(H)           1.950098000000     2.837132000000    -0.711281000000     1.007825032230
      Gh(O)          -0.802070000000     1.843563000000    -2.594464000000    15.994914619570
      Gh(H)          -1.311892000000     2.734430000000    -2.481891000000     1.007825032230
      Gh(H)          -0.751670000000     1.215067000000    -1.902978000000     1.007825032230

  Charge       = 0
  Multiplicity = 1
  Basis Set: AUG-CC-PVTZ
    Blend: AUG-CC-PVTZ
  Basis Set: (AUG-CC-PVTZ AUX)
    Blend: AUG-CC-PVTZ-JKFIT

    Orbital Energies [Eh]
    ---------------------

    Doubly Occupied:

       1A    -20.564555     2A     -1.353058     3A     -0.727370
       4A     -0.578003     5A     -0.509538

  @DF-RHF Final Energy:   -76.06033109733639

   => Energetics <=

    Nuclear Repulsion Energy =              9.2268104705864360
    One-Electron Energy =                -123.1092323845536498
    Two-Electron Energy =                  37.8220908166308334
    Total Energy =                        -76.0603310973363875
 Dipole X            :         10.4365146          -10.8139672           -0.3774526
 Dipole Y            :        -65.2653398           64.8420308           -0.4233090
 Dipole Z            :         -3.2256348            2.7305522           -0.4950826
 Magnitude           :                                                    0.7528398
  Basis Set: (AUG-CC-PVTZ AUX)
    Blend: AUG-CC-PVTZ-RI
	 Reference Energy          =     -76.0603310973363875 [Eh]
	 Singles Energy            =      -0.0000000000000000 [Eh]
	 Same-Spin Energy          =      -0.0682932012852949 [Eh]
	 Opposite-Spin Energy      =      -0.2157366331617309 [Eh]
	 Correlation Energy        =      -0.2840298344470258 [Eh]
	 Total Energy              =     -76.3443609317834131 [Eh]

	 ================> DF-SCS-MP2 Energies <==================
	-----------------------------------------------------------
	 SCS Same-Spin Scale       =       0.3333333333333333 [-]
	 SCS Opposite-Spin Scale   =       1.2000000000000000 [-]
	 SCS Same-Spin Energy      =      -0.0227644004284316 [Eh]
	 SCS Opposite-Spin Energy  =      -0.2588839597940771 [Eh]
	 SCS Correlation Energy    =      -0.2816483602225088 [Eh]
	 SCS Total Energy          =     -76.3419794575588924 [Eh]
	-----------------------------------------------------------

*** Psi4 exiting successfully. Buy a developer a beer!
