                               Psi4 1.8.2 release

  ==> Input File <==

--------------------------------------------------------------------------
MEMORY 60 GB

molecule dimer {
0 1
Gh(Br)     0.000000     0.000000     0.000000
Gh(O)     -0.944159     0.763135    -3.171296
Gh(H)     -0.418125     0.642488    -2.380292
Gh(H)     -1.515592     1.518947    -2.946457
O          0.266373    -2.666671    -2.063433
H         -0.507967    -3.216325    -2.144357
H          0.169069    -1.929715    -1.427717
Gh(O)      2.278924     0.586830    -2.040328
Gh(H)      1.783721    -0.048625    -1.465647
Gh(H)      2.356833     0.210882    -2.962479
Gh(O)     -0.660034     3.338372    -0.252519
Gh(H)     -0.523899     2.351649    -0.216782
Gh(H)     -0.034580     3.514831    -0.970765

units ang
no_reorient
no_com
symmetry c1
}

set {
basis        aug-cc-pVTZ
scf_type     df
}

energy("mp2")
--------------------------------------------------------------------------

    Molecular point group: c1

    Geometry (in Angstrom), charge = 0, multiplicity = 1:

       Center              X                  Y                   Z               Mass
    ------------   -----------------  -----------------  -----------------  -----------------
      Gh(BR)          0.000000000000     0.000000000000     0.000000000000    78.918337600000
      Gh(O)          -0.944159000000     0.763135000000    -3.171296000000    15.994914619570
      Gh(H)          -0.418125000000     0.642488000000    -2.380292000000     1.007825032230
      Gh(H)          -1.515592000000     1.518947000000    -2.946457000000     1.007825032230
         O            0.266373000000    -2.666671000000    -2.063433000000    15.994914619570
         H           -0.507967000000    -3.216325000000    -2.144357000000     1.007825032230
         H            0.169069000000    -1.929715000000    -1.427717000000     1.007825032230
      Gh(O)           2.278924000000     0.586830000000    -2.040328000000    15.994914619570
      Gh(H)           1.783721000000    -0.048625000000    -1.465647000000     1.007825032230
      Gh(H)           2.356833000000     0.210882000000    -2.962479000000     1.007825032230
      Gh(O)          -0.660034000000     3.338372000000    -0.252519000000    15.994914619570
      Gh(H)          -0.523899000000     2.351649000000    -0.216782000000     1.007825032230
      Gh(H)          -0.034580000000     3.514831000000    -0.970765000000     1.007825032230

  Charge       = 0
  Multiplicity = 1
  Basis Set: AUG-CC-PVTZ
    Blend: AUG-CC-PVTZ
  Basis Set: (AUG-CC-PVTZ AUX)
    Blend: AUG-CC-PVTZ-JKFIT

    Orbital Energies [Eh]
    ---------------------

    Doubly Occupied:

       1A    -20.564008     2A     -1.342899     3A     -0.730427
       4A     -0.564785     5A     -0.506678

  @DF-RHF Final Energy:   -76.05783171174375

   => Energetics <=

    Nuclear Repulsion Energy =              9.0966649791199536
    One-Electron Energy =                -122.8913965019444277
    Two-Electron Energy =                  37.7368998110807325
    Total Energy =                        -76.0578317117437450
 Dipole X            :         -3.9828988            3.3865517           -0.5963471
 Dipole Y            :         50.1643318          -50.0388291            0.1255027
 Dipole Z            :         38.3227087          -37.9448275            0.3778811
 Magnitude           :                                                    0.7170599
  Basis Set: (AUG-CC-PVTZ AUX)
    Blend: AUG-CC-PVTZ-RI
	 Reference Energy          =     -76.0578317117437450 [Eh]
	 Singles Energy            =      -0.0000000000000000 [Eh]
	 Same-Spin Energy          =      -0.0684533146815587 [Eh]
	 Opposite-Spin Energy      =      -0.2158776768746934 [Eh]
	 Correlation Energy        =      -0.2843309915562521 [Eh]
	 Total Energy              =     -76.3421627032999908 [Eh]

	 ================> DF-SCS-MP2 Energies <==================
	-----------------------------------------------------------
	 SCS Same-Spin Scale       =       0.3333333333333333 [-]
	 SCS Opposite-Spin Scale   =       1.2000000000000000 [-]
	 SCS Same-Spin Energy      =      -0.0228177715605196 [Eh]
	 SCS Opposite-Spin Energy  =      -0.2590532122496321 [Eh]
	 SCS Correlation Energy    =      -0.2818709838101516 [Eh]
	 SCS Total Energy          =     -76.3397026955538962 [Eh]
	-----------------------------------------------------------

*** Psi4 exiting successfully. Buy a developer a beer!
