                               Psi4 1.8.2 release

  ==> Input File <==

--------------------------------------------------------------------------
MEMORY 60 GB

molecule dimer {
-1 1
Br         0.000000     0.000000     0.000000
O          0.907785    -3.270542     0.005052
H          0.638022    -2.382067     0.033667
H          1.487598    -3.318185     0.780281
O         -0.442867    -1.493360     2.705895
H         -0.557517    -2.505349     2.636657
H         -0.309218    -1.143022     1.794908
O          3.300513    -1.122755    -0.539692
H          3.130969    -1.988896    -0.865131
H          2.387446    -0.783323    -0.362168
O         -1.677447     1.488794     2.663873
H         -1.236549     1.357234     3.514456
H         -1.130855     0.928758     2.068196
O          2.470751    -0.161330     2.335308
H          2.923351    -1.018032     2.221032
H          1.582633    -0.292052     2.024141

units ang
no_reorient
no_com
symmetry c1
}

set {
basis        aug-cc-pVTZ
scf_type     df
}

energy("mp2")
--------------------------------------------------------------------------

    Molecular point group: c1

    Geometry (in Angstrom), charge = -1, multiplicity = 1:

       Center              X                  Y                   Z               Mass
    ------------   -----------------  -----------------  -----------------  -----------------
         BR           0.000000000000     0.000000000000     0.000000000000    78.918337600000
         O            0.907785000000    -3.270542000000     0.005052000000    15.994914619570
         H            0.638022000000    -2.382067000000     0.033667000000     1.007825032230
         H            1.487598000000    -3.318185000000     0.780281000000     1.007825032230
         O           -0.442867000000    -1.493360000000     2.705895000000    15.994914619570
         H           -0.557517000000    -2.505349000000     2.636657000000     1.007825032230
         H           -0.309218000000    -1.143022000000     1.794908000000     1.007825032230
         O            3.300513000000    -1.122755000000    -0.539692000000    15.994914619570
         H            3.130969000000    -1.988896000000    -0.865131000000     1.007825032230
         H            2.387446000000    -0.783323000000    -0.362168000000     1.007825032230
         O           -1.677447000000     1.488794000000     2.663873000000    15.994914619570
         H           -1.236549000000     1.357234000000     3.514456000000     1.007825032230
         H           -1.130855000000     0.928758000000     2.068196000000     1.007825032230
         O            2.470751000000    -0.161330000000     2.335308000000    15.994914619570
         H            2.923351000000    -1.018032000000     2.221032000000     1.007825032230
         H            1.582633000000    -0.292052000000     2.024141000000     1.007825032230

  Charge       = -1
  Multiplicity = 1
  Basis Set: AUG-CC-PVTZ
    Blend: AUG-CC-PVTZ
  Basis Set: (AUG-CC-PVTZ AUX)
    Blend: AUG-CC-PVTZ-JKFIT

    Orbital Energies [Eh]
    ---------------------

    Doubly Occupied:

       1A   -489.800154     2A    -64.940745     3A    -58.295241
       4A    -58.295216     5A    -58.295179     6A    -20.445071
       7A    -20.429212     8A    -20.425808     9A    -20.416922
      10A    -20.416871    11A     -9.613212    12A     -7.220955
      13A     -7.220741    14A     -7.220401    15A     -2.962634
      16A     -2.962603    17A     -2.962186    18A     -2.961974
      19A     -2.961897    20A     -1.242647    21A     -1.212580
      22A     -1.203210    23A     -1.196234    24A     -1.192277
      25A     -0.784035    26A     -0.598365    27A     -0.577863
      28A     -0.570004    29A     -0.564047    30A     -0.550773
      31A     -0.480134    32A     -0.453908    33A     -0.444766
      34A     -0.438426    35A     -0.433479    36A     -0.393748
      37A     -0.377547    38A     -0.370544    39A     -0.358166
      40A     -0.354613    41A     -0.230621    42A     -0.229535
      43A     -0.223328

  @DF-RHF Final Energy: -2952.86863371831396

   => Energetics <=

    Nuclear Repulsion Energy =            463.8583640269062016
    One-Electron Energy =               -5048.7982398297572217
    Two-Electron Energy =                1632.0712420845370616
    Total Energy =                      -2952.8686337183139585
 Dipole X            :        -86.3443612           85.7666564           -0.5777048
 Dipole Y            :         89.3308788          -89.9858819           -0.6550032
 Dipole Z            :       -135.7039401          134.5665036           -1.1374365
 Magnitude           :                                                    1.4340620
  Basis Set: (AUG-CC-PVTZ AUX)
    Blend: AUG-CC-PVTZ-RI
	 Reference Energy          =   -2952.8686337183139585 [Eh]
	 Singles Energy            =      -0.0000000000000000 [Eh]
	 Same-Spin Energy          =      -0.4492193117676668 [Eh]
	 Opposite-Spin Energy      =      -1.3099768952332784 [Eh]
	 Correlation Energy        =      -1.7591962070009453 [Eh]
	 Total Energy              =   -2954.6278299253149271 [Eh]

	 ================> DF-SCS-MP2 Energies <==================
	-----------------------------------------------------------
	 SCS Same-Spin Scale       =       0.3333333333333333 [-]
	 SCS Opposite-Spin Scale   =       1.2000000000000000 [-]
	 SCS Same-Spin Energy      =      -0.1497397705892223 [Eh]
	 SCS Opposite-Spin Energy  =      -1.5719722742799340 [Eh]
	 SCS Correlation Energy    =      -1.7217120448691563 [Eh]
	 SCS Total Energy          =   -2954.5903457631829951 [Eh]
	-----------------------------------------------------------

*** Psi4 exiting successfully. Buy a developer a beer!
