                               Psi4 1.9 release

  ==> Input File <==

--------------------------------------------------------------------------
MEMORY 60 GB

molecule dimer {
-1 1
Br     0.000000     0.000000     0.000000
--
0 1
O     -1.772441    -1.013978     2.474033
H     -1.574978    -0.449582     3.217609
H     -1.403679    -0.590186     1.642038
O      0.153443     3.026345    -1.370826
H     -0.355384     2.308360    -1.026650
H     -0.493762     3.710273    -1.432334
O     -2.091719     2.479956     1.054046
H     -1.732622     2.926053     1.826747
H     -1.314715     1.926701     0.771278
O     -2.844312    -0.096528    -2.039101
H     -2.475962     0.417129    -2.754453
H     -2.104157    -0.194575    -1.466153
O      0.017861    -2.734789    -2.364762
H      0.784096    -3.289794    -2.529533
H      0.337217    -2.049244    -1.765328
O      2.661036     0.539110    -2.156861
H      2.239767     1.400442    -1.867415
H      2.677201    -0.043631    -1.356634

units ang
no_reorient
no_com
symmetry c1
}

set {
basis        aug-cc-pVTZ
scf_type     df
}

energy("mp2", bsse_type="cp")
--------------------------------------------------------------------------

                               Psi4 1.9 release
    Molecular point group: c1
  Charge       = 0
  Multiplicity = 1
  Basis Set: AUG-CC-PVTZ
    Blend: AUG-CC-PVTZ
  Basis Set: (AUG-CC-PVTZ AUX)
    Blend: AUG-CC-PVTZ-JKFIT
  @DF-RHF Final Energy:  -456.34292896928105
    Total Energy =                       -456.3429289692810471
 Dipole X            :         70.1959412          -68.8352281            1.3607131
 Dipole Y            :        -43.5210057           44.7352485            1.2142428
 Dipole Z            :         80.6404654          -79.3091523            1.3313131
 Magnitude           :                                                    2.2579460
  Basis Set: (AUG-CC-PVTZ AUX)
    Blend: AUG-CC-PVTZ-RI
	 Reference Energy          =    -456.3429289692810471 [Eh]
	 Singles Energy            =      -0.0000000000000000 [Eh]
	 Same-Spin Energy          =      -0.4135221584206924 [Eh]
	 Opposite-Spin Energy      =      -1.3006378291801797 [Eh]
	 Correlation Energy        =      -1.7141599876008722 [Eh]
	 Total Energy              =    -458.0570889568818984 [Eh]
	 SCS Total Energy          =    -458.0415350837708388 [Eh]
                               Psi4 1.9 release
    Molecular point group: c1
  Multiplicity = 1
  Basis Set: AUG-CC-PVTZ
    Blend: AUG-CC-PVTZ
  Basis Set: (AUG-CC-PVTZ AUX)
    Blend: AUG-CC-PVTZ-JKFIT
  @DF-RHF Final Energy: -2572.53373697626375
    Total Energy =                      -2572.5337369762637536
  Basis Set: (AUG-CC-PVTZ AUX)
	 Singles Energy            =      -0.0000000000000000 [Eh]
	 Same-Spin Energy          =      -0.0918406567985037 [Eh]
	 Opposite-Spin Energy      =      -0.2137692782228855 [Eh]
	 Correlation Energy        =      -0.3056099350213891 [Eh]
	 Total Energy              =   -2572.8393469112852472 [Eh]
	 SCS Total Energy          =   -2572.8208736623973891 [Eh]
                               Psi4 1.9 release
    Molecular point group: c1

    Geometry (in Bohr), charge = -1, multiplicity = 1:

       Center              X                  Y                   Z               Mass
    ------------   -----------------  -----------------  -----------------  -----------------
         BR           0.000000000000     0.000000000000     0.000000000000    78.918337600000
         O           -3.349428063533    -1.916140717239     4.675244795345    15.994914619570
         H           -2.976277073621    -0.849586850936     6.080399788808     1.007825032230
         H           -2.652568878057    -1.115289903079     3.103002107595     1.007825032230
         O            0.289965245869     5.718963211149    -2.590485705657    15.994914619570
         H           -0.671578429370     4.362168198962    -1.940087326701     1.007825032230
         H           -0.933074951158     7.011399820681    -2.706718980182     1.007825032230
         O           -3.952776041417     4.686437643186     1.991858263634    15.994914619570
         H           -3.274181058943     5.529438798574     3.452051530502     1.007825032230
         H           -2.484451283031     3.640937215646     1.457504186591     1.007825032230
         O           -5.374970695353    -0.182411483438    -3.853342432147    15.994914619570
         H           -4.678890077041     0.788259568986    -5.205161795446     1.007825032230
         H           -3.976280454965    -0.367693460861    -2.770627628018     1.007825032230
         O            0.033752398327    -5.168002220915    -4.468752531890    15.994914619570
         H            1.481726696067    -6.216809669174    -4.780124595308     1.007825032230
         H            0.637247774849    -3.872509924238    -3.335986441602     1.007825032230
         O            5.028629249984     1.018770251496    -4.075876580681    15.994914619570
         H            4.232546214838     2.646451834588    -3.528902912572     1.007825032230
         H            5.059176672802    -0.082450640580    -2.563666712484     1.007825032230

  Charge       = -1
  Multiplicity = 1
  Basis Set: AUG-CC-PVTZ
    Blend: AUG-CC-PVTZ
  Basis Set: (AUG-CC-PVTZ AUX)
    Blend: AUG-CC-PVTZ-JKFIT

    Orbital Energies [Eh]
    ---------------------

    Doubly Occupied:

       1A   -489.802766     2A    -64.943370     3A    -58.297885
       4A    -58.297851     5A    -58.297801     6A    -20.441194
       7A    -20.440511     8A    -20.435409     9A    -20.433227
      10A    -20.415770    11A    -20.407990    12A     -9.615794
      13A     -7.223553    14A     -7.223225    15A     -7.223131
      16A     -2.965195    17A     -2.965113    18A     -2.964918
      19A     -2.964528    20A     -2.964508    21A     -1.239892
      22A     -1.218501    23A     -1.217130    24A     -1.211739
      25A     -1.198026    26A     -1.185353    27A     -0.785278
      28A     -0.599226    29A     -0.581913    30A     -0.574251
      31A     -0.570417    32A     -0.565539    33A     -0.560471
      34A     -0.474697    35A     -0.462706    36A     -0.451659
      37A     -0.446876    38A     -0.442370    39A     -0.423247
      40A     -0.392892    41A     -0.380290    42A     -0.377154
      43A     -0.372565    44A     -0.363987    45A     -0.351963
      46A     -0.234501    47A     -0.229519    48A     -0.227713

  @DF-RHF Final Energy: -3028.93688764740455

   => Energetics <=

    Nuclear Repulsion Energy =            559.2867061664637731
    One-Electron Energy =               -5345.5199500334883851
    Two-Electron Energy =                1757.2963562196200655
    Total Energy =                      -3028.9368876474045464
 Dipole X            :         70.7369062          -68.8352281            1.9016781
 Dipole Y            :        -43.8621636           44.7352485            0.8730849
 Dipole Z            :         80.7048996          -79.3091523            1.3957473
 Magnitude           :                                                    2.5153066
  Basis Set: (AUG-CC-PVTZ AUX)
    Blend: AUG-CC-PVTZ-RI
	 Reference Energy          =   -3028.9368876474045464 [Eh]
	 Singles Energy            =      -0.0000000000000000 [Eh]
	 Same-Spin Energy          =      -0.5163327988796180 [Eh]
	 Opposite-Spin Energy      =      -1.5227694915708025 [Eh]
	 Correlation Energy        =      -2.0391022904504208 [Eh]
	 Total Energy              =   -3030.9759899378550472 [Eh]

	 ================> DF-SCS-MP2 Energies <==================
	-----------------------------------------------------------
	 SCS Same-Spin Scale       =       0.3333333333333333 [-]
	 SCS Opposite-Spin Scale   =       1.2000000000000000 [-]
	 SCS Same-Spin Energy      =      -0.1721109329598727 [Eh]
	 SCS Opposite-Spin Energy  =      -1.8273233898849630 [Eh]
	 SCS Correlation Energy    =      -1.9994343228448357 [Eh]
	 SCS Total Energy          =   -3030.9363219702495371 [Eh]
	-----------------------------------------------------------

*** Psi4 exiting successfully. Buy a developer a beer!
