                               Psi4 1.9 release

  ==> Input File <==

--------------------------------------------------------------------------
MEMORY 60 GB

molecule dimer {
-1 1
Br     0.000000     0.000000     0.000000
--
0 1
O      2.452911    -0.995525     2.199232
H      3.132083    -1.275402     2.790759
H      2.338359    -1.739127     1.526334
O     -3.040005     0.614667    -1.483514
H     -2.166655     0.355003    -1.129877
H     -2.955149     0.617711    -2.466047
O     -0.201879    -0.214965    -3.389215
H     -0.892087    -0.868485    -3.563227
H     -0.029122    -0.354479    -2.467663
O      2.167253     1.963529    -1.986450
H      1.432173     1.531595    -1.573186
H      1.877952     2.248149    -2.830986
O      1.737886     2.376316     1.902304
H      1.869496     2.030453     2.758105
H      1.995270     1.750043     1.235313
O      1.036004    -2.754093    -1.296498
H      1.857363    -2.562526    -1.734994
H      0.655300    -2.037283    -0.779103

units ang
no_reorient
no_com
symmetry c1
}

set {
basis        aug-cc-pVTZ
scf_type     df
}

energy("mp2", bsse_type="cp")
--------------------------------------------------------------------------

                               Psi4 1.9 release
    Molecular point group: c1
  Charge       = 0
  Multiplicity = 1
  Basis Set: AUG-CC-PVTZ
    Blend: AUG-CC-PVTZ
  Basis Set: (AUG-CC-PVTZ AUX)
    Blend: AUG-CC-PVTZ-JKFIT
  @DF-RHF Final Energy:  -456.35299223101083
    Total Energy =                       -456.3529922310108304
 Dipole X            :        -79.3893645           79.9965345            0.6071700
 Dipole Y            :        -15.9800779           14.3904232           -1.5896547
 Dipole Z            :         76.6786872          -76.8508152           -0.1721280
 Magnitude           :                                                    1.7103466
  Basis Set: (AUG-CC-PVTZ AUX)
    Blend: AUG-CC-PVTZ-RI
	 Reference Energy          =    -456.3529922310108304 [Eh]
	 Singles Energy            =      -0.0000000000000000 [Eh]
	 Same-Spin Energy          =      -0.4123065949565317 [Eh]
	 Opposite-Spin Energy      =      -1.2962957346748119 [Eh]
	 Correlation Energy        =      -1.7086023296313435 [Eh]
	 Total Energy              =    -458.0615945606421633 [Eh]
	 SCS Total Energy          =    -458.0459826442727831 [Eh]
                               Psi4 1.9 release
    Molecular point group: c1
  Multiplicity = 1
  Basis Set: AUG-CC-PVTZ
    Blend: AUG-CC-PVTZ
  Basis Set: (AUG-CC-PVTZ AUX)
    Blend: AUG-CC-PVTZ-JKFIT
  @DF-RHF Final Energy: -2572.53373264114180
    Total Energy =                      -2572.5337326411417962
  Basis Set: (AUG-CC-PVTZ AUX)
	 Singles Energy            =      -0.0000000000000000 [Eh]
	 Same-Spin Energy          =      -0.0914641361287677 [Eh]
	 Opposite-Spin Energy      =      -0.2128830378283678 [Eh]
	 Correlation Energy        =      -0.3043471739571355 [Eh]
	 Total Energy              =   -2572.8380798150988085 [Eh]
	 SCS Total Energy          =   -2572.8196803319119681 [Eh]
                               Psi4 1.9 release
    Molecular point group: c1

    Geometry (in Bohr), charge = -1, multiplicity = 1:

       Center              X                  Y                   Z               Mass
    ------------   -----------------  -----------------  -----------------  -----------------
         BR           0.000000000000     0.000000000000     0.000000000000    78.918337600000
         O            4.635330000123    -1.881269601046     4.155946166343    15.994914619570
         H            5.918779072202    -2.410160479861     5.273770192157     1.007825032230
         H            4.418858092999    -3.286473727389     2.884353235975     1.007825032230
         O           -5.744776870022     1.161552288357    -2.803435163282    15.994914619570
         H           -4.094384558354     0.670858443716    -2.135158085454     1.007825032230
         H           -5.584422269921     1.167304614683    -4.660153442507     1.007825032230
         O           -0.381496020481    -0.406224976559    -6.404688130294    15.994914619570
         H           -1.685800110081    -1.641198794068    -6.733523152837     1.007825032230
         H           -0.055032604226    -0.669868227226    -4.663207239926     1.007825032230
         O            4.095514614577     3.710532049394    -3.753846461916    15.994914619570
         H            2.706414734275     2.894295085121    -2.972890684404     1.007825032230
         H            3.548814956756     4.248385899222    -5.349788205005     1.007825032230
         O            3.284128577267     4.490586427543     3.594833567363    15.994914619570
         H            3.532835432639     3.837000080614     5.212063075256     1.007825032230
         H            3.770513846342     3.307101977775     2.334403249218     1.007825032230
         O            1.957763824879    -5.204481494041    -2.450026142204    15.994914619570
         H            3.509907385559    -4.842472329365    -3.278663489313     1.007825032230
         H            1.238337530013    -3.849906910051    -1.472291293523     1.007825032230

  Charge       = -1
  Multiplicity = 1
  Basis Set: AUG-CC-PVTZ
    Blend: AUG-CC-PVTZ
  Basis Set: (AUG-CC-PVTZ AUX)
    Blend: AUG-CC-PVTZ-JKFIT

    Orbital Energies [Eh]
    ---------------------

    Doubly Occupied:

       1A   -489.783616     2A    -64.924116     3A    -58.278611
       4A    -58.278590     5A    -58.278580     6A    -20.457938
       7A    -20.429726     8A    -20.419463     9A    -20.417499
      10A    -20.415233    11A    -20.411233    12A     -9.596483
      13A     -7.204012    14A     -7.203974    15A     -7.203914
      16A     -2.945624    17A     -2.945616    18A     -2.945535
      19A     -2.945458    20A     -2.945446    21A     -1.232893
      22A     -1.220951    23A     -1.215738    24A     -1.208059
      25A     -1.204945    26A     -1.191968    27A     -0.765099
      28A     -0.599609    29A     -0.598174    30A     -0.591478
      31A     -0.587270    32A     -0.578803    33A     -0.560959
      34A     -0.467453    35A     -0.460807    36A     -0.442005
      37A     -0.433472    38A     -0.427072    39A     -0.426892
      40A     -0.396788    41A     -0.378615    42A     -0.367984
      43A     -0.364589    44A     -0.362181    45A     -0.360590
      46A     -0.211895    47A     -0.211260    48A     -0.210797

  @DF-RHF Final Energy: -3028.93260884388746

   => Energetics <=

    Nuclear Repulsion Energy =            557.6118087515503703
    One-Electron Energy =               -5342.8707964144477955
    Two-Electron Energy =                1756.3263788190095056
    Total Energy =                      -3028.9326088438874649
 Dipole X            :        -79.5603016           79.9965345            0.4362329
 Dipole Y            :        -15.7315286           14.3904232           -1.3411054
 Dipole Z            :         77.5616941          -76.8508152            0.7108790
 Magnitude           :                                                    1.5793074
  Basis Set: (AUG-CC-PVTZ AUX)
    Blend: AUG-CC-PVTZ-RI
	 Reference Energy          =   -3028.9326088438874649 [Eh]
	 Singles Energy            =      -0.0000000000000000 [Eh]
	 Same-Spin Energy          =      -0.5143717017753203 [Eh]
	 Opposite-Spin Energy      =      -1.5181172046556115 [Eh]
	 Correlation Energy        =      -2.0324889064309319 [Eh]
	 Total Energy              =   -3030.9650977503183640 [Eh]

	 ================> DF-SCS-MP2 Energies <==================
	-----------------------------------------------------------
	 SCS Same-Spin Scale       =       0.3333333333333333 [-]
	 SCS Opposite-Spin Scale   =       1.2000000000000000 [-]
	 SCS Same-Spin Energy      =      -0.1714572339251068 [Eh]
	 SCS Opposite-Spin Energy  =      -1.8217406455867338 [Eh]
	 SCS Correlation Energy    =      -1.9931978795118406 [Eh]
	 SCS Total Energy          =   -3030.9258067233990914 [Eh]
	-----------------------------------------------------------

*** Psi4 exiting successfully. Buy a developer a beer!
