                               Psi4 1.8.2 release

  ==> Input File <==

--------------------------------------------------------------------------
MEMORY 60 GB

molecule dimer {
-1 1
Br         0.000000     0.000000     0.000000
O          2.503250     1.309100    -1.941613
H          1.693555     1.376407    -1.484593
H          2.297101     0.825735    -2.742119
O         -3.001212     0.171636     1.161661
H         -2.095584     0.222145     0.811440
H         -3.311681     1.091997     1.388500
O          0.694505    -1.649884    -3.009010
H          1.348391    -1.016594    -3.241515
H          0.489087    -1.363055    -2.138119
O         -1.346088     2.952246    -0.232248
H         -0.998482     2.049470    -0.375845
H         -2.085144     2.836345     0.344825
O          1.132621     1.535541     2.844400
H          0.751306     1.043572     2.062688
H          1.972007     2.061134     2.749098

units ang
no_reorient
no_com
symmetry c1
}

set {
basis        aug-cc-pVTZ
scf_type     df
}

energy("mp2")
--------------------------------------------------------------------------

    Molecular point group: c1

    Geometry (in Angstrom), charge = -1, multiplicity = 1:

       Center              X                  Y                   Z               Mass
    ------------   -----------------  -----------------  -----------------  -----------------
         BR           0.000000000000     0.000000000000     0.000000000000    78.918337600000
         O            2.503250000000     1.309100000000    -1.941613000000    15.994914619570
         H            1.693555000000     1.376407000000    -1.484593000000     1.007825032230
         H            2.297101000000     0.825735000000    -2.742119000000     1.007825032230
         O           -3.001212000000     0.171636000000     1.161661000000    15.994914619570
         H           -2.095584000000     0.222145000000     0.811440000000     1.007825032230
         H           -3.311681000000     1.091997000000     1.388500000000     1.007825032230
         O            0.694505000000    -1.649884000000    -3.009010000000    15.994914619570
         H            1.348391000000    -1.016594000000    -3.241515000000     1.007825032230
         H            0.489087000000    -1.363055000000    -2.138119000000     1.007825032230
         O           -1.346088000000     2.952246000000    -0.232248000000    15.994914619570
         H           -0.998482000000     2.049470000000    -0.375845000000     1.007825032230
         H           -2.085144000000     2.836345000000     0.344825000000     1.007825032230
         O            1.132621000000     1.535541000000     2.844400000000    15.994914619570
         H            0.751306000000     1.043572000000     2.062688000000     1.007825032230
         H            1.972007000000     2.061134000000     2.749098000000     1.007825032230

  Charge       = -1
  Multiplicity = 1
  Basis Set: AUG-CC-PVTZ
    Blend: AUG-CC-PVTZ
  Basis Set: (AUG-CC-PVTZ AUX)
    Blend: AUG-CC-PVTZ-JKFIT

    Orbital Energies [Eh]
    ---------------------

    Doubly Occupied:

       1A   -489.804618     2A    -64.945273     3A    -58.299760
       4A    -58.299749     5A    -58.299723     6A    -20.440409
       7A    -20.437000     8A    -20.425829     9A    -20.421997
      10A    -20.420197    11A     -9.617771    12A     -7.225431
      13A     -7.225282    14A     -7.225148    15A     -2.967010
      16A     -2.966997    17A     -2.966821    18A     -2.966682
      19A     -2.966648    20A     -1.240324    21A     -1.236729
      22A     -1.211339    23A     -1.197328    24A     -1.181748
      25A     -0.788220    26A     -0.605516    27A     -0.591851
      28A     -0.580803    29A     -0.577890    30A     -0.572095
      31A     -0.478662    32A     -0.462891    33A     -0.454145
      34A     -0.430286    35A     -0.409659    36A     -0.390159
      37A     -0.386879    38A     -0.371064    39A     -0.366042
      40A     -0.359565    41A     -0.235758    42A     -0.231757
      43A     -0.230990

  @DF-RHF Final Energy: -2952.86852706638274

   => Energetics <=

    Nuclear Repulsion Energy =            442.5662897701372458
    One-Electron Energy =               -5005.8415350238856263
    Two-Electron Energy =                1610.4067181873647314
    Total Energy =                      -2952.8685270663831943
 Dipole X            :          0.4103174           -0.1414195            0.2688979
 Dipole Y            :        -82.8189881           82.5361847           -0.2828034
 Dipole Z            :         22.6163827          -22.7525293           -0.1361466
 Magnitude           :                                                    0.4133034
  Basis Set: (AUG-CC-PVTZ AUX)
    Blend: AUG-CC-PVTZ-RI
	 Reference Energy          =   -2952.8685270663827396 [Eh]
	 Singles Energy            =      -0.0000000000000000 [Eh]
	 Same-Spin Energy          =      -0.4462337806334107 [Eh]
	 Opposite-Spin Energy      =      -1.3044925236530254 [Eh]
	 Correlation Energy        =      -1.7507263042864361 [Eh]
	 Total Energy              =   -2954.6192533706689574 [Eh]

	 ================> DF-SCS-MP2 Energies <==================
	-----------------------------------------------------------
	 SCS Same-Spin Scale       =       0.3333333333333333 [-]
	 SCS Opposite-Spin Scale   =       1.2000000000000000 [-]
	 SCS Same-Spin Energy      =      -0.1487445935444702 [Eh]
	 SCS Opposite-Spin Energy  =      -1.5653910283836303 [Eh]
	 SCS Correlation Energy    =      -1.7141356219281005 [Eh]
	 SCS Total Energy          =   -2954.5826626883108474 [Eh]
	-----------------------------------------------------------

*** Psi4 exiting successfully. Buy a developer a beer!
