                               Psi4 1.8.2 release

  ==> Input File <==

--------------------------------------------------------------------------
MEMORY 60 GB

molecule dimer {
0 1
Gh(Br)     0.000000     0.000000     0.000000
Gh(O)     -1.555931    -2.410735     1.903242
Gh(H)     -1.336158    -1.685951     1.329705
Gh(H)     -1.202065    -2.143102     2.753233
O          1.417048     1.968120    -2.039520
H          1.167136     1.401234    -1.339808
H          2.306972     2.196646    -1.827799
Gh(O)     -2.508795     2.074873    -1.101146
Gh(H)     -3.092353     1.814461    -0.316996
Gh(H)     -1.909740     1.348917    -1.007525
Gh(O)      2.328483    -2.470186    -0.546566
Gh(H)      1.861807    -3.293107    -0.316598
Gh(H)      1.615156    -1.824846    -0.512308
Gh(O)     -1.332291    -0.652158    -3.288020
Gh(H)     -0.891184    -0.465234    -2.411088
Gh(H)     -0.886797    -0.114013    -3.927637

units ang
no_reorient
no_com
symmetry c1
}

set {
basis        aug-cc-pVTZ
scf_type     df
}

energy("mp2")
--------------------------------------------------------------------------

    Molecular point group: c1

    Geometry (in Angstrom), charge = 0, multiplicity = 1:

       Center              X                  Y                   Z               Mass
    ------------   -----------------  -----------------  -----------------  -----------------
      Gh(BR)          0.000000000000     0.000000000000     0.000000000000    78.918337600000
      Gh(O)          -1.555931000000    -2.410735000000     1.903242000000    15.994914619570
      Gh(H)          -1.336158000000    -1.685951000000     1.329705000000     1.007825032230
      Gh(H)          -1.202065000000    -2.143102000000     2.753233000000     1.007825032230
         O            1.417048000000     1.968120000000    -2.039520000000    15.994914619570
         H            1.167136000000     1.401234000000    -1.339808000000     1.007825032230
         H            2.306972000000     2.196646000000    -1.827799000000     1.007825032230
      Gh(O)          -2.508795000000     2.074873000000    -1.101146000000    15.994914619570
      Gh(H)          -3.092353000000     1.814461000000    -0.316996000000     1.007825032230
      Gh(H)          -1.909740000000     1.348917000000    -1.007525000000     1.007825032230
      Gh(O)           2.328483000000    -2.470186000000    -0.546566000000    15.994914619570
      Gh(H)           1.861807000000    -3.293107000000    -0.316598000000     1.007825032230
      Gh(H)           1.615156000000    -1.824846000000    -0.512308000000     1.007825032230
      Gh(O)          -1.332291000000    -0.652158000000    -3.288020000000    15.994914619570
      Gh(H)          -0.891184000000    -0.465234000000    -2.411088000000     1.007825032230
      Gh(H)          -0.886797000000    -0.114013000000    -3.927637000000     1.007825032230

  Charge       = 0
  Multiplicity = 1
  Basis Set: AUG-CC-PVTZ
    Blend: AUG-CC-PVTZ
  Basis Set: (AUG-CC-PVTZ AUX)
    Blend: AUG-CC-PVTZ-JKFIT

    Orbital Energies [Eh]
    ---------------------

    Doubly Occupied:

       1A    -20.564297     2A     -1.364275     3A     -0.725806
       4A     -0.590708     5A     -0.512261

  @DF-RHF Final Energy:   -76.06096366186448

   => Energetics <=

    Nuclear Repulsion Energy =              9.3789500088832458
    One-Electron Energy =                -123.3651296352367268
    Two-Electron Energy =                  37.9252159644889986
    Total Energy =                        -76.0609636618644771
 Dipole X            :        -27.5594143           27.9877737            0.4283594
 Dipole Y            :        -36.7806605           36.5526701           -0.2279904
 Dipole Z            :         37.4315190          -36.8189835            0.6125354
 Magnitude           :                                                    0.7814544
  Basis Set: (AUG-CC-PVTZ AUX)
    Blend: AUG-CC-PVTZ-RI
	 Reference Energy          =     -76.0609636618644771 [Eh]
	 Singles Energy            =      -0.0000000000000000 [Eh]
	 Same-Spin Energy          =      -0.0680923400046724 [Eh]
	 Opposite-Spin Energy      =      -0.2149169218979529 [Eh]
	 Correlation Energy        =      -0.2830092619026253 [Eh]
	 Total Energy              =     -76.3439729237670974 [Eh]

	 ================> DF-SCS-MP2 Energies <==================
	-----------------------------------------------------------
	 SCS Same-Spin Scale       =       0.3333333333333333 [-]
	 SCS Opposite-Spin Scale   =       1.2000000000000000 [-]
	 SCS Same-Spin Energy      =      -0.0226974466682241 [Eh]
	 SCS Opposite-Spin Energy  =      -0.2579003062775435 [Eh]
	 SCS Correlation Energy    =      -0.2805977529457677 [Eh]
	 SCS Total Energy          =     -76.3415614148102435 [Eh]
	-----------------------------------------------------------

*** Psi4 exiting successfully. Buy a developer a beer!
