                               Psi4 1.8.2 release

  ==> Input File <==

--------------------------------------------------------------------------
MEMORY 60 GB

molecule dimer {
-1 1
Br         0.000000     0.000000     0.000000
Gh(O)      1.214755     2.032402     2.352565
Gh(H)      0.843379     1.290858     1.788319
Gh(H)      2.176535     2.115299     2.233161
Gh(O)     -1.899098     2.893105     0.263373
Gh(H)     -2.377616     3.120026    -0.530168
Gh(H)     -1.651951     1.952131     0.230723
Gh(O)      1.184394     2.722133    -1.786102
Gh(H)      0.888960     1.954533    -1.303810
Gh(H)      0.985690     3.441294    -1.194986
Gh(O)     -3.316529    -1.099441    -0.081057
Gh(H)     -2.506499    -0.600404    -0.183707
Gh(H)     -3.485828    -1.108557     0.900656

units ang
no_reorient
no_com
symmetry c1
}

set {
basis        aug-cc-pVTZ
scf_type     df
}

energy("mp2")
--------------------------------------------------------------------------

    Molecular point group: c1

    Geometry (in Angstrom), charge = -1, multiplicity = 1:

       Center              X                  Y                   Z               Mass
    ------------   -----------------  -----------------  -----------------  -----------------
         BR           0.000000000000     0.000000000000     0.000000000000    78.918337600000
      Gh(O)           1.214755000000     2.032402000000     2.352565000000    15.994914619570
      Gh(H)           0.843379000000     1.290858000000     1.788319000000     1.007825032230
      Gh(H)           2.176535000000     2.115299000000     2.233161000000     1.007825032230
      Gh(O)          -1.899098000000     2.893105000000     0.263373000000    15.994914619570
      Gh(H)          -2.377616000000     3.120026000000    -0.530168000000     1.007825032230
      Gh(H)          -1.651951000000     1.952131000000     0.230723000000     1.007825032230
      Gh(O)           1.184394000000     2.722133000000    -1.786102000000    15.994914619570
      Gh(H)           0.888960000000     1.954533000000    -1.303810000000     1.007825032230
      Gh(H)           0.985690000000     3.441294000000    -1.194986000000     1.007825032230
      Gh(O)          -3.316529000000    -1.099441000000    -0.081057000000    15.994914619570
      Gh(H)          -2.506499000000    -0.600404000000    -0.183707000000     1.007825032230
      Gh(H)          -3.485828000000    -1.108557000000     0.900656000000     1.007825032230

  Charge       = -1
  Multiplicity = 1
  Basis Set: AUG-CC-PVTZ
    Blend: AUG-CC-PVTZ
  Basis Set: (AUG-CC-PVTZ AUX)
    Blend: AUG-CC-PVTZ-JKFIT

    Orbital Energies [Eh]
    ---------------------

    Doubly Occupied:

       1A   -489.721881     2A    -64.861546     3A    -58.216071
       4A    -58.216070     5A    -58.216068     6A     -9.533205
       7A     -7.140541     8A     -7.140537     9A     -7.140523
      10A     -2.882247    11A     -2.882244    12A     -2.882230
      13A     -2.882218    14A     -2.882215    15A     -0.685992
      16A     -0.139336    17A     -0.139335    18A     -0.139332

  @DF-RHF Final Energy: -2572.53371826334978

   => Energetics <=

    Nuclear Repulsion Energy =              0.0000000000000000
    One-Electron Energy =               -3593.6642566005398294
    Two-Electron Energy =                1021.1305383371899325
    Total Energy =                      -2572.5337182633497832
 Dipole X            :         -0.0002327            0.0000000           -0.0002327
 Dipole Y            :          0.0002471            0.0000000            0.0002471
 Dipole Z            :          0.0000110            0.0000000            0.0000110
 Magnitude           :                                                    0.0003396
  Basis Set: (AUG-CC-PVTZ AUX)
    Blend: AUG-CC-PVTZ-RI
	 Reference Energy          =   -2572.5337182633497832 [Eh]
	 Singles Energy            =      -0.0000000000000000 [Eh]
	 Same-Spin Energy          =      -0.0903888317259460 [Eh]
	 Opposite-Spin Energy      =      -0.2102742251623649 [Eh]
	 Correlation Energy        =      -0.3006630568883108 [Eh]
	 Total Energy              =   -2572.8343813202382080 [Eh]

	 ================> DF-SCS-MP2 Energies <==================
	-----------------------------------------------------------
	 SCS Same-Spin Scale       =       0.3333333333333333 [-]
	 SCS Opposite-Spin Scale   =       1.2000000000000000 [-]
	 SCS Same-Spin Energy      =      -0.0301296105753153 [Eh]
	 SCS Opposite-Spin Energy  =      -0.2523290701948378 [Eh]
	 SCS Correlation Energy    =      -0.2824586807701531 [Eh]
	 SCS Total Energy          =   -2572.8161769441198885 [Eh]
	-----------------------------------------------------------

*** Psi4 exiting successfully. Buy a developer a beer!
