                               Psi4 1.8.2 release

  ==> Input File <==

--------------------------------------------------------------------------
MEMORY 60 GB

molecule dimer {
0 1
Gh(Br)     0.000000     0.000000     0.000000
Gh(O)      1.943362     2.492757     1.142910
Gh(H)      2.853656     2.365277     0.915650
Gh(H)      1.414503     1.767381     0.739501
Gh(O)      2.828599    -1.316138    -0.243498
Gh(H)      1.991575    -1.027562     0.115147
Gh(H)      2.923425    -0.868601    -1.085454
O         -1.187233    -3.096829    -0.068719
H         -1.015863    -2.191810     0.131593
H         -0.434378    -3.240086    -0.566381
Gh(O)     -1.630611     1.500183     2.569503
Gh(H)     -1.143522     1.019930     1.833037
Gh(H)     -1.089551     2.321043     2.728925
Gh(O)      0.795952     1.602190    -3.133141
Gh(H)      1.463263     0.954500    -2.826078
Gh(H)     -0.107599     1.347855    -3.018310

units ang
no_reorient
no_com
symmetry c1
}

set {
basis        aug-cc-pVTZ
scf_type     df
}

energy("mp2")
--------------------------------------------------------------------------

    Molecular point group: c1

    Geometry (in Angstrom), charge = 0, multiplicity = 1:

       Center              X                  Y                   Z               Mass
    ------------   -----------------  -----------------  -----------------  -----------------
      Gh(BR)          0.000000000000     0.000000000000     0.000000000000    78.918337600000
      Gh(O)           1.943362000000     2.492757000000     1.142910000000    15.994914619570
      Gh(H)           2.853656000000     2.365277000000     0.915650000000     1.007825032230
      Gh(H)           1.414503000000     1.767381000000     0.739501000000     1.007825032230
      Gh(O)           2.828599000000    -1.316138000000    -0.243498000000    15.994914619570
      Gh(H)           1.991575000000    -1.027562000000     0.115147000000     1.007825032230
      Gh(H)           2.923425000000    -0.868601000000    -1.085454000000     1.007825032230
         O           -1.187233000000    -3.096829000000    -0.068719000000    15.994914619570
         H           -1.015863000000    -2.191810000000     0.131593000000     1.007825032230
         H           -0.434378000000    -3.240086000000    -0.566381000000     1.007825032230
      Gh(O)          -1.630611000000     1.500183000000     2.569503000000    15.994914619570
      Gh(H)          -1.143522000000     1.019930000000     1.833037000000     1.007825032230
      Gh(H)          -1.089551000000     2.321043000000     2.728925000000     1.007825032230
      Gh(O)           0.795952000000     1.602190000000    -3.133141000000    15.994914619570
      Gh(H)           1.463263000000     0.954500000000    -2.826078000000     1.007825032230
      Gh(H)          -0.107599000000     1.347855000000    -3.018310000000     1.007825032230

  Charge       = 0
  Multiplicity = 1
  Basis Set: AUG-CC-PVTZ
    Blend: AUG-CC-PVTZ
  Basis Set: (AUG-CC-PVTZ AUX)
    Blend: AUG-CC-PVTZ-JKFIT

    Orbital Energies [Eh]
    ---------------------

    Doubly Occupied:

       1A    -20.564903     2A     -1.375775     3A     -0.717183
       4A     -0.606154     5A     -0.514992

  @DF-RHF Final Energy:   -76.05752866692671

   => Energetics <=

    Nuclear Repulsion Energy =              9.5054547375334177
    One-Electron Energy =                -123.5679523135681279
    Two-Electron Energy =                  38.0049689091079941
    Total Energy =                        -76.0575286669267143
 Dipole X            :         21.3043971          -20.6889200            0.6154770
 Dipole Y            :         57.5829188          -57.0820651            0.5008537
 Dipole Z            :          1.6603899           -1.8605110           -0.2001210
 Magnitude           :                                                    0.8183610
  Basis Set: (AUG-CC-PVTZ AUX)
    Blend: AUG-CC-PVTZ-RI
	 Reference Energy          =     -76.0575286669267143 [Eh]
	 Singles Energy            =      -0.0000000000000000 [Eh]
	 Same-Spin Energy          =      -0.0680798629712995 [Eh]
	 Opposite-Spin Energy      =      -0.2147042755136783 [Eh]
	 Correlation Energy        =      -0.2827841384849777 [Eh]
	 Total Energy              =     -76.3403128054116991 [Eh]

	 ================> DF-SCS-MP2 Energies <==================
	-----------------------------------------------------------
	 SCS Same-Spin Scale       =       0.3333333333333333 [-]
	 SCS Opposite-Spin Scale   =       1.2000000000000000 [-]
	 SCS Same-Spin Energy      =      -0.0226932876570998 [Eh]
	 SCS Opposite-Spin Energy  =      -0.2576451306164139 [Eh]
	 SCS Correlation Energy    =      -0.2803384182735137 [Eh]
	 SCS Total Energy          =     -76.3378670852002301 [Eh]
	-----------------------------------------------------------

*** Psi4 exiting successfully. Buy a developer a beer!
