                               Psi4 1.8.2 release

  ==> Input File <==

--------------------------------------------------------------------------
MEMORY 60 GB

molecule dimer {
-1 1
Br         0.000000     0.000000     0.000000
O          1.500307     0.811394    -3.090514
H          1.680740     0.622734    -2.201421
H          1.748017     1.689370    -3.324807
O          0.724522    -0.831400     3.164447
H          0.313632    -0.838633     2.273180
H          1.443347    -0.198288     3.178378
O         -0.538708    -3.161155    -1.222705
H         -0.911093    -2.966491    -2.155417
H         -0.428745    -2.313873    -0.869458
O         -2.786344     0.234985    -1.999484
H         -2.318369     0.483461    -1.218225
H         -2.131614     0.066966    -2.657688

units ang
no_reorient
no_com
symmetry c1
}

set {
basis        aug-cc-pVTZ
scf_type     df
}

energy("mp2")
--------------------------------------------------------------------------

    Molecular point group: c1

    Geometry (in Angstrom), charge = -1, multiplicity = 1:

       Center              X                  Y                   Z               Mass
    ------------   -----------------  -----------------  -----------------  -----------------
         BR           0.000000000000     0.000000000000     0.000000000000    78.918337600000
         O            1.500307000000     0.811394000000    -3.090514000000    15.994914619570
         H            1.680740000000     0.622734000000    -2.201421000000     1.007825032230
         H            1.748017000000     1.689370000000    -3.324807000000     1.007825032230
         O            0.724522000000    -0.831400000000     3.164447000000    15.994914619570
         H            0.313632000000    -0.838633000000     2.273180000000     1.007825032230
         H            1.443347000000    -0.198288000000     3.178378000000     1.007825032230
         O           -0.538708000000    -3.161155000000    -1.222705000000    15.994914619570
         H           -0.911093000000    -2.966491000000    -2.155417000000     1.007825032230
         H           -0.428745000000    -2.313873000000    -0.869458000000     1.007825032230
         O           -2.786344000000     0.234985000000    -1.999484000000    15.994914619570
         H           -2.318369000000     0.483461000000    -1.218225000000     1.007825032230
         H           -2.131614000000     0.066966000000    -2.657688000000     1.007825032230

  Charge       = -1
  Multiplicity = 1
  Basis Set: AUG-CC-PVTZ
    Blend: AUG-CC-PVTZ
  Basis Set: (AUG-CC-PVTZ AUX)
    Blend: AUG-CC-PVTZ-JKFIT

    Orbital Energies [Eh]
    ---------------------

    Doubly Occupied:

       1A   -489.777629     2A    -64.918012     3A    -58.272518
       4A    -58.272506     5A    -58.272472     6A    -20.434446
       7A    -20.416790     8A    -20.415558     9A    -20.409235
      10A     -9.590368    11A     -7.197896    12A     -7.197843
      13A     -7.197770    14A     -2.939542    15A     -2.939534
      16A     -2.939408    17A     -2.939338    18A     -2.939312
      19A     -1.235762    20A     -1.212992    21A     -1.196775
      22A     -1.189815    23A     -0.753690    24A     -0.620622
      25A     -0.583358    26A     -0.566844    27A     -0.555620
      28A     -0.452097    29A     -0.443147    30A     -0.437128
      31A     -0.424609    32A     -0.386775    33A     -0.366669
      34A     -0.359192    35A     -0.354655    36A     -0.204252
      37A     -0.203125    38A     -0.202467

  @DF-RHF Final Energy: -2876.81228896311723

   => Energetics <=

    Nuclear Repulsion Energy =            321.5030586587885182
    One-Electron Energy =               -4658.9911483580817730
    Two-Electron Energy =                1460.6758007361765976
    Total Energy =                      -2876.8122889631167709
 Dipole X            :         18.9242554          -17.7745164            1.1497390
 Dipole Y            :         52.9725827          -51.0682650            1.9043178
 Dipole Z            :         60.4835445          -60.7764381           -0.2928936
 Magnitude           :                                                    2.2436828
  Basis Set: (AUG-CC-PVTZ AUX)
    Blend: AUG-CC-PVTZ-RI
	 Reference Energy          =   -2876.8122889631172256 [Eh]
	 Singles Energy            =      -0.0000000000000000 [Eh]
	 Same-Spin Energy          =      -0.3700684948783908 [Eh]
	 Opposite-Spin Energy      =      -1.0759611355032157 [Eh]
	 Correlation Energy        =      -1.4460296303816065 [Eh]
	 Total Energy              =   -2878.2583185934986432 [Eh]

	 ================> DF-SCS-MP2 Energies <==================
	-----------------------------------------------------------
	 SCS Same-Spin Scale       =       0.3333333333333333 [-]
	 SCS Opposite-Spin Scale   =       1.2000000000000000 [-]
	 SCS Same-Spin Energy      =      -0.1233561649594636 [Eh]
	 SCS Opposite-Spin Energy  =      -1.2911533626038587 [Eh]
	 SCS Correlation Energy    =      -1.4145095275633224 [Eh]
	 SCS Total Energy          =   -2878.2267984906807214 [Eh]
	-----------------------------------------------------------

*** Psi4 exiting successfully. Buy a developer a beer!
