                               Psi4 1.8.2 release

  ==> Input File <==

--------------------------------------------------------------------------
MEMORY 60 GB

molecule dimer {
0 1
Gh(Br)     0.000000     0.000000     0.000000
Gh(O)     -1.772441    -1.013978     2.474033
Gh(H)     -1.574978    -0.449582     3.217609
Gh(H)     -1.403679    -0.590186     1.642038
Gh(O)      0.153443     3.026345    -1.370826
Gh(H)     -0.355384     2.308360    -1.026650
Gh(H)     -0.493762     3.710273    -1.432334
Gh(O)     -2.091719     2.479956     1.054046
Gh(H)     -1.732622     2.926053     1.826747
Gh(H)     -1.314715     1.926701     0.771278
O         -2.844312    -0.096528    -2.039101
H         -2.475962     0.417129    -2.754453
H         -2.104157    -0.194575    -1.466153
Gh(O)      0.017861    -2.734789    -2.364762
Gh(H)      0.784096    -3.289794    -2.529533
Gh(H)      0.337217    -2.049244    -1.765328
Gh(O)      2.661036     0.539110    -2.156861
Gh(H)      2.239767     1.400442    -1.867415
Gh(H)      2.677201    -0.043631    -1.356634

units ang
no_reorient
no_com
symmetry c1
}

set {
basis        aug-cc-pVTZ
scf_type     df
}

energy("mp2")
--------------------------------------------------------------------------

    Molecular point group: c1

    Geometry (in Angstrom), charge = 0, multiplicity = 1:

       Center              X                  Y                   Z               Mass
    ------------   -----------------  -----------------  -----------------  -----------------
      Gh(BR)          0.000000000000     0.000000000000     0.000000000000    78.918337600000
      Gh(O)          -1.772441000000    -1.013978000000     2.474033000000    15.994914619570
      Gh(H)          -1.574978000000    -0.449582000000     3.217609000000     1.007825032230
      Gh(H)          -1.403679000000    -0.590186000000     1.642038000000     1.007825032230
      Gh(O)           0.153443000000     3.026345000000    -1.370826000000    15.994914619570
      Gh(H)          -0.355384000000     2.308360000000    -1.026650000000     1.007825032230
      Gh(H)          -0.493762000000     3.710273000000    -1.432334000000     1.007825032230
      Gh(O)          -2.091719000000     2.479956000000     1.054046000000    15.994914619570
      Gh(H)          -1.732622000000     2.926053000000     1.826747000000     1.007825032230
      Gh(H)          -1.314715000000     1.926701000000     0.771278000000     1.007825032230
         O           -2.844312000000    -0.096528000000    -2.039101000000    15.994914619570
         H           -2.475962000000     0.417129000000    -2.754453000000     1.007825032230
         H           -2.104157000000    -0.194575000000    -1.466153000000     1.007825032230
      Gh(O)           0.017861000000    -2.734789000000    -2.364762000000    15.994914619570
      Gh(H)           0.784096000000    -3.289794000000    -2.529533000000     1.007825032230
      Gh(H)           0.337217000000    -2.049244000000    -1.765328000000     1.007825032230
      Gh(O)           2.661036000000     0.539110000000    -2.156861000000    15.994914619570
      Gh(H)           2.239767000000     1.400442000000    -1.867415000000     1.007825032230
      Gh(H)           2.677201000000    -0.043631000000    -1.356634000000     1.007825032230

  Charge       = 0
  Multiplicity = 1
  Basis Set: AUG-CC-PVTZ
    Blend: AUG-CC-PVTZ
  Basis Set: (AUG-CC-PVTZ AUX)
    Blend: AUG-CC-PVTZ-JKFIT

    Orbital Energies [Eh]
    ---------------------

    Doubly Occupied:

       1A    -20.566475     2A     -1.360346     3A     -0.718022
       4A     -0.591537     5A     -0.511835

  @DF-RHF Final Energy:   -76.06064560456497

   => Energetics <=

    Nuclear Repulsion Energy =              9.2920887825608265
    One-Electron Energy =                -123.2090367451081079
    Two-Electron Energy =                  37.8563023579823152
    Total Energy =                        -76.0606456045649679
 Dipole X            :         52.3923499          -51.6549361            0.7374138
 Dipole Y            :          1.3136624           -1.0387258            0.2749366
 Dipole Z            :         38.7103653          -38.8025289           -0.0921636
 Magnitude           :                                                    0.7923783
  Basis Set: (AUG-CC-PVTZ AUX)
    Blend: AUG-CC-PVTZ-RI
	 Reference Energy          =     -76.0606456045649679 [Eh]
	 Singles Energy            =      -0.0000000000000000 [Eh]
	 Same-Spin Energy          =      -0.0682790220408703 [Eh]
	 Opposite-Spin Energy      =      -0.2155405482456742 [Eh]
	 Correlation Energy        =      -0.2838195702865445 [Eh]
	 Total Energy              =     -76.3444651748515071 [Eh]

	 ================> DF-SCS-MP2 Energies <==================
	-----------------------------------------------------------
	 SCS Same-Spin Scale       =       0.3333333333333333 [-]
	 SCS Opposite-Spin Scale   =       1.2000000000000000 [-]
	 SCS Same-Spin Energy      =      -0.0227596740136234 [Eh]
	 SCS Opposite-Spin Energy  =      -0.2586486578948091 [Eh]
	 SCS Correlation Energy    =      -0.2814083319084325 [Eh]
	 SCS Total Energy          =     -76.3420539364734054 [Eh]
	-----------------------------------------------------------

*** Psi4 exiting successfully. Buy a developer a beer!
