                               Psi4 1.8.2 release

  ==> Input File <==

--------------------------------------------------------------------------
MEMORY 60 GB

molecule dimer {
-1 1
Br         0.000000     0.000000     0.000000
O          2.964962     1.491294    -0.232552
H          3.167346     2.329112     0.134912
H          2.039397     1.199057     0.005168
O          2.467355    -1.133067     2.039740
H          1.833343    -1.067852     1.347526
H          2.278611    -1.962652     2.509428
O          1.685230    -2.489969    -1.505692
H          1.129809    -1.865417    -1.040823
H          2.217802    -1.919562    -2.100617
O         -1.693532    -0.769404     2.754182
H         -2.198821    -0.054616     3.172365
H         -1.091690    -0.339489     2.159721

units ang
no_reorient
no_com
symmetry c1
}

set {
basis        aug-cc-pVTZ
scf_type     df
}

energy("mp2")
--------------------------------------------------------------------------

    Molecular point group: c1

    Geometry (in Angstrom), charge = -1, multiplicity = 1:

       Center              X                  Y                   Z               Mass
    ------------   -----------------  -----------------  -----------------  -----------------
         BR           0.000000000000     0.000000000000     0.000000000000    78.918337600000
         O            2.964962000000     1.491294000000    -0.232552000000    15.994914619570
         H            3.167346000000     2.329112000000     0.134912000000     1.007825032230
         H            2.039397000000     1.199057000000     0.005168000000     1.007825032230
         O            2.467355000000    -1.133067000000     2.039740000000    15.994914619570
         H            1.833343000000    -1.067852000000     1.347526000000     1.007825032230
         H            2.278611000000    -1.962652000000     2.509428000000     1.007825032230
         O            1.685230000000    -2.489969000000    -1.505692000000    15.994914619570
         H            1.129809000000    -1.865417000000    -1.040823000000     1.007825032230
         H            2.217802000000    -1.919562000000    -2.100617000000     1.007825032230
         O           -1.693532000000    -0.769404000000     2.754182000000    15.994914619570
         H           -2.198821000000    -0.054616000000     3.172365000000     1.007825032230
         H           -1.091690000000    -0.339489000000     2.159721000000     1.007825032230

  Charge       = -1
  Multiplicity = 1
  Basis Set: AUG-CC-PVTZ
    Blend: AUG-CC-PVTZ
  Basis Set: (AUG-CC-PVTZ AUX)
    Blend: AUG-CC-PVTZ-JKFIT

    Orbital Energies [Eh]
    ---------------------

    Doubly Occupied:

       1A   -489.782364     2A    -64.922845     3A    -58.277352
       4A    -58.277323     5A    -58.277308     6A    -20.419088
       7A    -20.410182     8A    -20.407909     9A    -20.405822
      10A     -9.595229    11A     -7.202834    12A     -7.202682
      13A     -7.202637    14A     -2.944448    15A     -2.944390
      16A     -2.944335    17A     -2.944142    18A     -2.944131
      19A     -1.206278    20A     -1.196915    21A     -1.192501
      22A     -1.188745    23A     -0.762205    24A     -0.574642
      25A     -0.570925    26A     -0.566063    27A     -0.554568
      28A     -0.440660    29A     -0.434177    30A     -0.428302
      31A     -0.416971    32A     -0.365483    33A     -0.357412
      34A     -0.352178    35A     -0.351584    36A     -0.211129
      37A     -0.208686    38A     -0.208263

  @DF-RHF Final Energy: -2876.81164172711124

   => Energetics <=

    Nuclear Repulsion Energy =            335.3949164976598922
    One-Electron Energy =               -4687.0276926327323963
    Two-Electron Energy =                1474.8211344079606988
    Total Energy =                      -2876.8116417271112368
 Dipole X            :       -101.2580571           99.7169113           -1.5411458
 Dipole Y            :         52.4054899          -50.8158448            1.5896451
 Dipole Z            :        -58.1333213           57.8881769           -0.2451444
 Magnitude           :                                                    2.2275991
  Basis Set: (AUG-CC-PVTZ AUX)
    Blend: AUG-CC-PVTZ-RI
	 Reference Energy          =   -2876.8116417271112368 [Eh]
	 Singles Energy            =      -0.0000000000000000 [Eh]
	 Same-Spin Energy          =      -0.3740074836330242 [Eh]
	 Opposite-Spin Energy      =      -1.0829258636472334 [Eh]
	 Correlation Energy        =      -1.4569333472802577 [Eh]
	 Total Energy              =   -2878.2685750743917197 [Eh]

	 ================> DF-SCS-MP2 Energies <==================
	-----------------------------------------------------------
	 SCS Same-Spin Scale       =       0.3333333333333333 [-]
	 SCS Opposite-Spin Scale   =       1.2000000000000000 [-]
	 SCS Same-Spin Energy      =      -0.1246691612110080 [Eh]
	 SCS Opposite-Spin Energy  =      -1.2995110363766800 [Eh]
	 SCS Correlation Energy    =      -1.4241801975876880 [Eh]
	 SCS Total Energy          =   -2878.2358219246989393 [Eh]
	-----------------------------------------------------------

*** Psi4 exiting successfully. Buy a developer a beer!
