                               Psi4 1.8.2 release

  ==> Input File <==

--------------------------------------------------------------------------
MEMORY 60 GB

molecule dimer {
0 1
Gh(Br)     0.000000     0.000000     0.000000
Gh(O)     -0.039065     1.360465    -3.062156
Gh(H)     -0.212638     0.478259    -3.493798
Gh(H)      0.045206     1.278611    -2.107441
O         -2.989528     1.408932     0.945248
H         -2.062048     1.043559     0.850710
H         -2.903099     2.019723     1.687443
Gh(O)     -2.974629    -1.593570    -0.781374
Gh(H)     -2.231751    -1.030002    -0.687159
Gh(H)     -2.758326    -2.380343    -0.265965
Gh(O)      0.721300     2.711650     2.171943
Gh(H)      1.708723     2.884228     1.993117
Gh(H)      0.459653     1.920161     1.656005

units ang
no_reorient
no_com
symmetry c1
}

set {
basis        aug-cc-pVTZ
scf_type     df
}

energy("mp2")
--------------------------------------------------------------------------

    Molecular point group: c1

    Geometry (in Angstrom), charge = 0, multiplicity = 1:

       Center              X                  Y                   Z               Mass
    ------------   -----------------  -----------------  -----------------  -----------------
      Gh(BR)          0.000000000000     0.000000000000     0.000000000000    78.918337600000
      Gh(O)          -0.039065000000     1.360465000000    -3.062156000000    15.994914619570
      Gh(H)          -0.212638000000     0.478259000000    -3.493798000000     1.007825032230
      Gh(H)           0.045206000000     1.278611000000    -2.107441000000     1.007825032230
         O           -2.989528000000     1.408932000000     0.945248000000    15.994914619570
         H           -2.062048000000     1.043559000000     0.850710000000     1.007825032230
         H           -2.903099000000     2.019723000000     1.687443000000     1.007825032230
      Gh(O)          -2.974629000000    -1.593570000000    -0.781374000000    15.994914619570
      Gh(H)          -2.231751000000    -1.030002000000    -0.687159000000     1.007825032230
      Gh(H)          -2.758326000000    -2.380343000000    -0.265965000000     1.007825032230
      Gh(O)           0.721300000000     2.711650000000     2.171943000000    15.994914619570
      Gh(H)           1.708723000000     2.884228000000     1.993117000000     1.007825032230
      Gh(H)           0.459653000000     1.920161000000     1.656005000000     1.007825032230

  Charge       = 0
  Multiplicity = 1
  Basis Set: AUG-CC-PVTZ
    Blend: AUG-CC-PVTZ
  Basis Set: (AUG-CC-PVTZ AUX)
    Blend: AUG-CC-PVTZ-JKFIT

    Orbital Energies [Eh]
    ---------------------

    Doubly Occupied:

       1A    -20.572420     2A     -1.342073     3A     -0.700641
       4A     -0.583218     5A     -0.508841

  @DF-RHF Final Energy:   -76.05704508784778

   => Energetics <=

    Nuclear Repulsion Energy =              8.9588229966938542
    One-Electron Energy =                -122.6173461059010918
    Two-Electron Energy =                  37.6014780213594548
    Total Energy =                        -76.0570450878477828
 Dipole X            :         55.2352814          -54.5778813            0.6574001
 Dipole Y            :        -26.9247289           27.0887289            0.1640000
 Dipole Z            :        -18.6607314           19.0864928            0.4257613
 Magnitude           :                                                    0.8002147
  Basis Set: (AUG-CC-PVTZ AUX)
    Blend: AUG-CC-PVTZ-RI
	 Reference Energy          =     -76.0570450878477828 [Eh]
	 Singles Energy            =      -0.0000000000000000 [Eh]
	 Same-Spin Energy          =      -0.0688729465297335 [Eh]
	 Opposite-Spin Energy      =      -0.2171836714675401 [Eh]
	 Correlation Energy        =      -0.2860566179972737 [Eh]
	 Total Energy              =     -76.3431017058450578 [Eh]

	 ================> DF-SCS-MP2 Energies <==================
	-----------------------------------------------------------
	 SCS Same-Spin Scale       =       0.3333333333333333 [-]
	 SCS Opposite-Spin Scale   =       1.2000000000000000 [-]
	 SCS Same-Spin Energy      =      -0.0229576488432445 [Eh]
	 SCS Opposite-Spin Energy  =      -0.2606204057610482 [Eh]
	 SCS Correlation Energy    =      -0.2835780546042926 [Eh]
	 SCS Total Energy          =     -76.3406231424520740 [Eh]
	-----------------------------------------------------------

*** Psi4 exiting successfully. Buy a developer a beer!
