                               Psi4 1.8.2 release

  ==> Input File <==

--------------------------------------------------------------------------
MEMORY 60 GB

molecule dimer {
-1 1
Br         0.000000     0.000000     0.000000
Gh(O)      2.005998     2.469794    -1.548747
Gh(H)      2.809869     2.228331    -1.965091
Gh(H)      1.560168     1.628217    -1.200553
Gh(O)      0.529123     3.007364     1.321262
Gh(H)      1.470211     3.161375     1.107058
Gh(H)      0.395327     2.119154     0.958626
Gh(O)     -1.660321     0.052137    -3.166204
Gh(H)     -2.229712     0.623741    -2.655572
Gh(H)     -1.973837     0.013299    -4.074220
Gh(O)      2.794752     0.356441     1.755247
Gh(H)      3.260746    -0.479172     1.544679
Gh(H)      1.859188     0.213200     1.467202

units ang
no_reorient
no_com
symmetry c1
}

set {
basis        aug-cc-pVTZ
scf_type     df
}

energy("mp2")
--------------------------------------------------------------------------

    Molecular point group: c1

    Geometry (in Angstrom), charge = -1, multiplicity = 1:

       Center              X                  Y                   Z               Mass
    ------------   -----------------  -----------------  -----------------  -----------------
         BR           0.000000000000     0.000000000000     0.000000000000    78.918337600000
      Gh(O)           2.005998000000     2.469794000000    -1.548747000000    15.994914619570
      Gh(H)           2.809869000000     2.228331000000    -1.965091000000     1.007825032230
      Gh(H)           1.560168000000     1.628217000000    -1.200553000000     1.007825032230
      Gh(O)           0.529123000000     3.007364000000     1.321262000000    15.994914619570
      Gh(H)           1.470211000000     3.161375000000     1.107058000000     1.007825032230
      Gh(H)           0.395327000000     2.119154000000     0.958626000000     1.007825032230
      Gh(O)          -1.660321000000     0.052137000000    -3.166204000000    15.994914619570
      Gh(H)          -2.229712000000     0.623741000000    -2.655572000000     1.007825032230
      Gh(H)          -1.973837000000     0.013299000000    -4.074220000000     1.007825032230
      Gh(O)           2.794752000000     0.356441000000     1.755247000000    15.994914619570
      Gh(H)           3.260746000000    -0.479172000000     1.544679000000     1.007825032230
      Gh(H)           1.859188000000     0.213200000000     1.467202000000     1.007825032230

  Charge       = -1
  Multiplicity = 1
  Basis Set: AUG-CC-PVTZ
    Blend: AUG-CC-PVTZ
  Basis Set: (AUG-CC-PVTZ AUX)
    Blend: AUG-CC-PVTZ-JKFIT

    Orbital Energies [Eh]
    ---------------------

    Doubly Occupied:

       1A   -489.721720     2A    -64.861431     3A    -58.215953
       4A    -58.215952     5A    -58.215948     6A     -9.533166
       7A     -7.140509     8A     -7.140503     9A     -7.140489
      10A     -2.882210    11A     -2.882204    12A     -2.882197
      13A     -2.882181    14A     -2.882172    15A     -0.685994
      16A     -0.139338    17A     -0.139337    18A     -0.139333

  @DF-RHF Final Energy: -2572.53371341305410

   => Energetics <=

    Nuclear Repulsion Energy =              0.0000000000000000
    One-Electron Energy =               -3593.6661491250679319
    Two-Electron Energy =                1021.1324357120141713
    Total Energy =                      -2572.5337134130536469
 Dipole X            :          0.0000585            0.0000000            0.0000585
 Dipole Y            :          0.0002425            0.0000000            0.0002425
 Dipole Z            :          0.0001621            0.0000000            0.0001621
 Magnitude           :                                                    0.0002975
  Basis Set: (AUG-CC-PVTZ AUX)
    Blend: AUG-CC-PVTZ-RI
	 Reference Energy          =   -2572.5337134130541017 [Eh]
	 Singles Energy            =      -0.0000000000000000 [Eh]
	 Same-Spin Energy          =      -0.0900454033381606 [Eh]
	 Opposite-Spin Energy      =      -0.2094405914694091 [Eh]
	 Correlation Energy        =      -0.2994859948075697 [Eh]
	 Total Energy              =   -2572.8331994078616844 [Eh]

	 ================> DF-SCS-MP2 Energies <==================
	-----------------------------------------------------------
	 SCS Same-Spin Scale       =       0.3333333333333333 [-]
	 SCS Opposite-Spin Scale   =       1.2000000000000000 [-]
	 SCS Same-Spin Energy      =      -0.0300151344460535 [Eh]
	 SCS Opposite-Spin Energy  =      -0.2513287097632909 [Eh]
	 SCS Correlation Energy    =      -0.2813438442093444 [Eh]
	 SCS Total Energy          =   -2572.8150572572635610 [Eh]
	-----------------------------------------------------------

*** Psi4 exiting successfully. Buy a developer a beer!
