                               Psi4 1.8.2 release

  ==> Input File <==

--------------------------------------------------------------------------
MEMORY 60 GB

molecule dimer {
0 1
Gh(Br)     0.000000     0.000000     0.000000
O         -1.375620     3.047926    -1.337998
H         -0.877399     3.716957    -0.861773
H         -0.951090     2.166142    -1.171486
Gh(O)      2.709632    -1.863457     0.517570
Gh(H)      2.540301    -2.686032     0.113931
Gh(H)      1.960279    -1.257251     0.338176
Gh(O)     -1.907275    -2.478936    -1.045372
Gh(H)     -1.364393    -1.760338    -0.788272
Gh(H)     -2.530730    -2.108684    -1.652647

units ang
no_reorient
no_com
symmetry c1
}

set {
basis        aug-cc-pVTZ
scf_type     df
}

energy("mp2")
--------------------------------------------------------------------------

    Molecular point group: c1

    Geometry (in Angstrom), charge = 0, multiplicity = 1:

       Center              X                  Y                   Z               Mass
    ------------   -----------------  -----------------  -----------------  -----------------
      Gh(BR)          0.000000000000     0.000000000000     0.000000000000    78.918337600000
         O           -1.375620000000     3.047926000000    -1.337998000000    15.994914619570
         H           -0.877399000000     3.716957000000    -0.861773000000     1.007825032230
         H           -0.951090000000     2.166142000000    -1.171486000000     1.007825032230
      Gh(O)           2.709632000000    -1.863457000000     0.517570000000    15.994914619570
      Gh(H)           2.540301000000    -2.686032000000     0.113931000000     1.007825032230
      Gh(H)           1.960279000000    -1.257251000000     0.338176000000     1.007825032230
      Gh(O)          -1.907275000000    -2.478936000000    -1.045372000000    15.994914619570
      Gh(H)          -1.364393000000    -1.760338000000    -0.788272000000     1.007825032230
      Gh(H)          -2.530730000000    -2.108684000000    -1.652647000000     1.007825032230

  Charge       = 0
  Multiplicity = 1
  Basis Set: AUG-CC-PVTZ
    Blend: AUG-CC-PVTZ
  Basis Set: (AUG-CC-PVTZ AUX)
    Blend: AUG-CC-PVTZ-JKFIT

    Orbital Energies [Eh]
    ---------------------

    Doubly Occupied:

       1A    -20.568754     2A     -1.341455     3A     -0.714248
       4A     -0.573851     5A     -0.507636

  @DF-RHF Final Energy:   -76.05794420958071

   => Energetics <=

    Nuclear Repulsion Energy =              9.0060927121732259
    One-Electron Energy =                -122.7161823500057096
    Two-Electron Energy =                  37.6521454282517709
    Total Energy =                        -76.0579442095807110
 Dipole X            :         24.8659098          -24.2517039            0.6142059
 Dipole Y            :        -57.3323045           57.1954090           -0.1368955
 Dipole Z            :         24.4981714          -24.0699009            0.4282705
 Magnitude           :                                                    0.7611865
  Basis Set: (AUG-CC-PVTZ AUX)
    Blend: AUG-CC-PVTZ-RI
	 Reference Energy          =     -76.0579442095807110 [Eh]
	 Singles Energy            =      -0.0000000000000000 [Eh]
	 Same-Spin Energy          =      -0.0686414684956903 [Eh]
	 Opposite-Spin Energy      =      -0.2163916754857288 [Eh]
	 Correlation Energy        =      -0.2850331439814192 [Eh]
	 Total Energy              =     -76.3429773535621337 [Eh]

	 ================> DF-SCS-MP2 Energies <==================
	-----------------------------------------------------------
	 SCS Same-Spin Scale       =       0.3333333333333333 [-]
	 SCS Opposite-Spin Scale   =       1.2000000000000000 [-]
	 SCS Same-Spin Energy      =      -0.0228804894985634 [Eh]
	 SCS Opposite-Spin Energy  =      -0.2596700105828746 [Eh]
	 SCS Correlation Energy    =      -0.2825505000814381 [Eh]
	 SCS Total Energy          =     -76.3404947096621527 [Eh]
	-----------------------------------------------------------

*** Psi4 exiting successfully. Buy a developer a beer!
