                               Psi4 1.8.2 release

  ==> Input File <==

--------------------------------------------------------------------------
MEMORY 60 GB

molecule dimer {
0 1
Gh(Br)     0.000000     0.000000     0.000000
Gh(O)     -2.938072     0.464389    -1.439165
Gh(H)     -3.102087    -0.253086    -2.073190
Gh(H)     -2.195405     0.228367    -0.888619
Gh(O)      0.951332    -1.540440     3.027413
Gh(H)      0.711603    -1.098178     2.200969
Gh(H)      1.717176    -1.031261     3.320463
Gh(O)     -1.884440    -1.671342     2.485385
Gh(H)     -1.607087    -1.301256     1.617131
Gh(H)     -1.710697    -2.626941     2.322726
Gh(O)     -0.392709    -1.832615    -2.914916
Gh(H)     -0.373963    -1.332135    -2.100379
Gh(H)     -0.385090    -1.142787    -3.601259
O          2.389714    -2.096131    -1.711884
H          1.528994    -2.124078    -1.386041
H          2.910463    -1.647935    -1.049521

units ang
no_reorient
no_com
symmetry c1
}

set {
basis        aug-cc-pVTZ
scf_type     df
}

energy("mp2")
--------------------------------------------------------------------------

    Molecular point group: c1

    Geometry (in Angstrom), charge = 0, multiplicity = 1:

       Center              X                  Y                   Z               Mass
    ------------   -----------------  -----------------  -----------------  -----------------
      Gh(BR)          0.000000000000     0.000000000000     0.000000000000    78.918337600000
      Gh(O)          -2.938072000000     0.464389000000    -1.439165000000    15.994914619570
      Gh(H)          -3.102087000000    -0.253086000000    -2.073190000000     1.007825032230
      Gh(H)          -2.195405000000     0.228367000000    -0.888619000000     1.007825032230
      Gh(O)           0.951332000000    -1.540440000000     3.027413000000    15.994914619570
      Gh(H)           0.711603000000    -1.098178000000     2.200969000000     1.007825032230
      Gh(H)           1.717176000000    -1.031261000000     3.320463000000     1.007825032230
      Gh(O)          -1.884440000000    -1.671342000000     2.485385000000    15.994914619570
      Gh(H)          -1.607087000000    -1.301256000000     1.617131000000     1.007825032230
      Gh(H)          -1.710697000000    -2.626941000000     2.322726000000     1.007825032230
      Gh(O)          -0.392709000000    -1.832615000000    -2.914916000000    15.994914619570
      Gh(H)          -0.373963000000    -1.332135000000    -2.100379000000     1.007825032230
      Gh(H)          -0.385090000000    -1.142787000000    -3.601259000000     1.007825032230
         O            2.389714000000    -2.096131000000    -1.711884000000    15.994914619570
         H            1.528994000000    -2.124078000000    -1.386041000000     1.007825032230
         H            2.910463000000    -1.647935000000    -1.049521000000     1.007825032230

  Charge       = 0
  Multiplicity = 1
  Basis Set: AUG-CC-PVTZ
    Blend: AUG-CC-PVTZ
  Basis Set: (AUG-CC-PVTZ AUX)
    Blend: AUG-CC-PVTZ-JKFIT

    Orbital Energies [Eh]
    ---------------------

    Doubly Occupied:

       1A    -20.562767     2A     -1.363034     3A     -0.732173
       4A     -0.585261     5A     -0.511589

  @DF-RHF Final Energy:   -76.06058404777156

   => Energetics <=

    Nuclear Repulsion Energy =              9.3865838633432048
    One-Electron Energy =                -123.3846857913973452
    Two-Electron Energy =                  37.9375178802825843
    Total Energy =                        -76.0605840477715560
 Dipole X            :        -44.7524222           44.5165977           -0.2358245
 Dipole Y            :         39.0996116          -38.8169796            0.2826320
 Dipole Z            :         31.1507426          -30.4824805            0.6682621
 Magnitude           :                                                    0.7629340
  Basis Set: (AUG-CC-PVTZ AUX)
    Blend: AUG-CC-PVTZ-RI
	 Reference Energy          =     -76.0605840477715560 [Eh]
	 Singles Energy            =      -0.0000000000000000 [Eh]
	 Same-Spin Energy          =      -0.0680107353622911 [Eh]
	 Opposite-Spin Energy      =      -0.2144719264931286 [Eh]
	 Correlation Energy        =      -0.2824826618554197 [Eh]
	 Total Energy              =     -76.3430667096269815 [Eh]

	 ================> DF-SCS-MP2 Energies <==================
	-----------------------------------------------------------
	 SCS Same-Spin Scale       =       0.3333333333333333 [-]
	 SCS Opposite-Spin Scale   =       1.2000000000000000 [-]
	 SCS Same-Spin Energy      =      -0.0226702451207637 [Eh]
	 SCS Opposite-Spin Energy  =      -0.2573663117917543 [Eh]
	 SCS Correlation Energy    =      -0.2800365569125180 [Eh]
	 SCS Total Energy          =     -76.3406206046840765 [Eh]
	-----------------------------------------------------------

*** Psi4 exiting successfully. Buy a developer a beer!
