                               Psi4 1.9 release

  ==> Input File <==

--------------------------------------------------------------------------
MEMORY 60 GB

molecule dimer {
-1 1
Br     0.000000     0.000000     0.000000
--
0 1
O      0.779723     2.101047     2.199835
H      0.426021     1.474308     1.520328
H      0.408280     2.960514     1.936831
O      1.680523    -2.227455     1.670762
H      1.216158    -1.563865     1.147402
H      2.593395    -1.916082     1.738707
O     -2.177205    -0.865000     2.509215
H     -2.496326     0.047270     2.768170
H     -1.471994    -0.874637     1.842706
O      3.480100    -0.005299    -0.932052
H      2.930060    -0.789766    -1.221807
H      3.669445     0.562215    -1.658308

units ang
no_reorient
no_com
symmetry c1
}

set {
basis        aug-cc-pVTZ
scf_type     df
}

energy("mp2", bsse_type="cp")
--------------------------------------------------------------------------

                               Psi4 1.9 release
    Molecular point group: c1
  Charge       = 0
  Multiplicity = 1
  Basis Set: AUG-CC-PVTZ
    Blend: AUG-CC-PVTZ
  Basis Set: (AUG-CC-PVTZ AUX)
    Blend: AUG-CC-PVTZ-JKFIT
  @DF-RHF Final Energy:  -304.22643905973672
    Total Energy =                       -304.2264390597366628
 Dipole X            :        -70.7141748           70.6382782           -0.0758967
 Dipole Y            :         16.5368601          -15.2570799            1.2797801
 Dipole Z            :        -99.4370370           97.6158987           -1.8211383
 Magnitude           :                                                    2.2271377
  Basis Set: (AUG-CC-PVTZ AUX)
    Blend: AUG-CC-PVTZ-RI
	 Reference Energy          =    -304.2264390597367196 [Eh]
	 Singles Energy            =      -0.0000000000000000 [Eh]
	 Same-Spin Energy          =      -0.2752741360904798 [Eh]
	 Opposite-Spin Energy      =      -0.8668595187750233 [Eh]
	 Correlation Energy        =      -1.1421336548655032 [Eh]
	 Total Energy              =    -305.3685727146022373 [Eh]
	 SCS Total Energy          =    -305.3584285276302239 [Eh]
                               Psi4 1.9 release
    Molecular point group: c1
  Multiplicity = 1
  Basis Set: AUG-CC-PVTZ
    Blend: AUG-CC-PVTZ
  Basis Set: (AUG-CC-PVTZ AUX)
    Blend: AUG-CC-PVTZ-JKFIT
  @DF-RHF Final Energy: -2572.53372004314178
    Total Energy =                      -2572.5337200431422389
  Basis Set: (AUG-CC-PVTZ AUX)
	 Singles Energy            =      -0.0000000000000000 [Eh]
	 Same-Spin Energy          =      -0.0906983050998887 [Eh]
	 Opposite-Spin Energy      =      -0.2111332129922623 [Eh]
	 Correlation Energy        =      -0.3018315180921510 [Eh]
	 Total Energy              =   -2572.8355515612338422 [Eh]
	 SCS Total Energy          =   -2572.8173126670990314 [Eh]
                               Psi4 1.9 release
    Molecular point group: c1

    Geometry (in Bohr), charge = -1, multiplicity = 1:

       Center              X                  Y                   Z               Mass
    ------------   -----------------  -----------------  -----------------  -----------------
         BR           0.000000000000     0.000000000000     0.000000000000    78.918337600000
         O            1.473462923720     3.970403406715     4.157085671197    15.994914619570
         H            0.805063013694     2.786038344571     2.873003540865     1.007825032230
         H            0.771537382502     5.594560650584     3.660080141297     1.007825032230
         O            3.175728217533    -4.209279906782     3.157282600822    15.994914619570
         H            2.298205545285    -2.955276547189     2.168275535803     1.007825032230
         H            4.900806285132    -3.620870213919     3.285680042416     1.007825032230
         O           -4.114321168977    -1.634613098521     4.741729139891    15.994914619570
         H           -4.717372459860     0.089327353950     5.231083168709     1.007825032230
         H           -2.781665518317    -1.652824389192     3.482209669738     1.007825032230
         O            6.576435889206    -0.010013658739    -1.761323014685    15.994914619570
         H            5.537010931159    -1.492441443198    -2.308880608167     1.007825032230
         H            6.934246082431     1.062432373624    -3.133747951656     1.007825032230

  Charge       = -1
  Multiplicity = 1
  Basis Set: AUG-CC-PVTZ
    Blend: AUG-CC-PVTZ
  Basis Set: (AUG-CC-PVTZ AUX)
    Blend: AUG-CC-PVTZ-JKFIT

    Orbital Energies [Eh]
    ---------------------

    Doubly Occupied:

       1A   -489.774584     2A    -64.915172     3A    -58.269666
       4A    -58.269651     5A    -58.269608     6A    -20.443079
       7A    -20.406618     8A    -20.398517     9A    -20.398266
      10A     -9.587700    11A     -7.195360    12A     -7.195272
      13A     -7.194948    14A     -2.937065    15A     -2.937037
      16A     -2.936672    17A     -2.936555    18A     -2.936453
      19A     -1.220561    20A     -1.183382    21A     -1.175454
      22A     -1.175005    23A     -0.756358    24A     -0.600152
      25A     -0.563376    26A     -0.552355    27A     -0.538739
      28A     -0.447629    29A     -0.421653    30A     -0.419663
      31A     -0.407283    32A     -0.384961    33A     -0.348406
      34A     -0.344734    35A     -0.341561    36A     -0.203400
      37A     -0.202636    38A     -0.198052

  @DF-RHF Final Energy: -2876.79462731738386

   => Energetics <=

    Nuclear Repulsion Energy =            333.4270281532519675
    One-Electron Energy =               -4683.4681348319354584
    Two-Electron Energy =                1473.2464793612998619
    Total Energy =                      -2876.7946273173838563
 Dipole X            :        -70.9351032           70.6382782           -0.2968251
 Dipole Y            :         16.5307801          -15.2570799            1.2737001
 Dipole Z            :       -100.1767973           97.6158987           -2.5608986
 Magnitude           :                                                    2.8755206
  Basis Set: (AUG-CC-PVTZ AUX)
    Blend: AUG-CC-PVTZ-RI
	 Reference Energy          =   -2876.7946273173838563 [Eh]
	 Singles Energy            =      -0.0000000000000000 [Eh]
	 Same-Spin Energy          =      -0.3747995218303285 [Eh]
	 Opposite-Spin Energy      =      -1.0849634520339828 [Eh]
	 Correlation Energy        =      -1.4597629738643114 [Eh]
	 Total Energy              =   -2878.2543902912480007 [Eh]

	 ================> DF-SCS-MP2 Energies <==================
	-----------------------------------------------------------
	 SCS Same-Spin Scale       =       0.3333333333333333 [-]
	 SCS Opposite-Spin Scale   =       1.2000000000000000 [-]
	 SCS Same-Spin Energy      =      -0.1249331739434428 [Eh]
	 SCS Opposite-Spin Energy  =      -1.3019561424407793 [Eh]
	 SCS Correlation Energy    =      -1.4268893163842220 [Eh]
	 SCS Total Energy          =   -2878.2215166337682604 [Eh]
	-----------------------------------------------------------

*** Psi4 exiting successfully. Buy a developer a beer!
