                               Psi4 1.8.2 release

  ==> Input File <==

--------------------------------------------------------------------------
MEMORY 60 GB

molecule dimer {
-1 1
Br         0.000000     0.000000     0.000000
O         -2.849832     1.193942    -1.826212
H         -1.931928     1.207032    -1.575616
H         -2.940118     0.369058    -2.291841
O          3.301686    -0.334450    -0.377123
H          2.396533    -0.045027    -0.274515
H          3.799968     0.084606     0.318721
O         -0.087440     3.511872     0.501620
H          0.781254     4.031099     0.240035
H         -0.046340     2.573718     0.235001
O          0.762499     2.499028    -2.179473
H          0.529887     2.070563    -3.000811
H          0.722495     1.889826    -1.445165
O         -1.395787    -1.285353    -2.578759
H         -0.708440    -1.470841    -3.234854
H         -0.928793    -0.644101    -2.033967

units ang
no_reorient
no_com
symmetry c1
}

set {
basis        aug-cc-pVTZ
scf_type     df
}

energy("mp2")
--------------------------------------------------------------------------

    Molecular point group: c1

    Geometry (in Angstrom), charge = -1, multiplicity = 1:

       Center              X                  Y                   Z               Mass
    ------------   -----------------  -----------------  -----------------  -----------------
         BR           0.000000000000     0.000000000000     0.000000000000    78.918337600000
         O           -2.849832000000     1.193942000000    -1.826212000000    15.994914619570
         H           -1.931928000000     1.207032000000    -1.575616000000     1.007825032230
         H           -2.940118000000     0.369058000000    -2.291841000000     1.007825032230
         O            3.301686000000    -0.334450000000    -0.377123000000    15.994914619570
         H            2.396533000000    -0.045027000000    -0.274515000000     1.007825032230
         H            3.799968000000     0.084606000000     0.318721000000     1.007825032230
         O           -0.087440000000     3.511872000000     0.501620000000    15.994914619570
         H            0.781254000000     4.031099000000     0.240035000000     1.007825032230
         H           -0.046340000000     2.573718000000     0.235001000000     1.007825032230
         O            0.762499000000     2.499028000000    -2.179473000000    15.994914619570
         H            0.529887000000     2.070563000000    -3.000811000000     1.007825032230
         H            0.722495000000     1.889826000000    -1.445165000000     1.007825032230
         O           -1.395787000000    -1.285353000000    -2.578759000000    15.994914619570
         H           -0.708440000000    -1.470841000000    -3.234854000000     1.007825032230
         H           -0.928793000000    -0.644101000000    -2.033967000000     1.007825032230

  Charge       = -1
  Multiplicity = 1
  Basis Set: AUG-CC-PVTZ
    Blend: AUG-CC-PVTZ
  Basis Set: (AUG-CC-PVTZ AUX)
    Blend: AUG-CC-PVTZ-JKFIT

    Orbital Energies [Eh]
    ---------------------

    Doubly Occupied:

       1A   -489.795898     2A    -64.936378     3A    -58.290891
       4A    -58.290844     5A    -58.290826     6A    -20.435605
       7A    -20.427310     8A    -20.424313     9A    -20.423700
      10A    -20.412789    11A     -9.608747    12A     -7.216391
      13A     -7.216232    14A     -7.216035    15A     -2.958047
      16A     -2.958018    17A     -2.957801    18A     -2.957564
      19A     -2.957537    20A     -1.225153    21A     -1.218443
      22A     -1.214718    23A     -1.205788    24A     -1.178720
      25A     -0.776754    26A     -0.603345    27A     -0.585571
      28A     -0.577706    29A     -0.569482    30A     -0.557557
      31A     -0.468858    32A     -0.446708    33A     -0.446315
      34A     -0.441468    35A     -0.417669    36A     -0.380453
      37A     -0.379434    38A     -0.371618    39A     -0.361016
      40A     -0.355665    41A     -0.224797    42A     -0.223362
      43A     -0.220482

  @DF-RHF Final Energy: -2952.86624944101823

   => Energetics <=

    Nuclear Repulsion Energy =            450.7163002032713166
    One-Electron Energy =               -5022.7130733036883612
    Two-Electron Energy =                1619.1305236593989321
    Total Energy =                      -2952.8662494410182262
 Dipole X            :          2.1160559           -0.9004054            1.2156506
 Dipole Y            :       -104.8255662          103.4554094           -1.3701567
 Dipole Z            :        122.9349845         -122.3457600            0.5892245
 Magnitude           :                                                    1.9241417
  Basis Set: (AUG-CC-PVTZ AUX)
    Blend: AUG-CC-PVTZ-RI
	 Reference Energy          =   -2952.8662494410182262 [Eh]
	 Singles Energy            =      -0.0000000000000000 [Eh]
	 Same-Spin Energy          =      -0.4465765200394369 [Eh]
	 Opposite-Spin Energy      =      -1.3050838415593753 [Eh]
	 Correlation Energy        =      -1.7516603615988122 [Eh]
	 Total Energy              =   -2954.6179098026168504 [Eh]

	 ================> DF-SCS-MP2 Energies <==================
	-----------------------------------------------------------
	 SCS Same-Spin Scale       =       0.3333333333333333 [-]
	 SCS Opposite-Spin Scale   =       1.2000000000000000 [-]
	 SCS Same-Spin Energy      =      -0.1488588400131456 [Eh]
	 SCS Opposite-Spin Energy  =      -1.5661006098712502 [Eh]
	 SCS Correlation Energy    =      -1.7149594498843959 [Eh]
	 SCS Total Energy          =   -2954.5812088909024169 [Eh]
	-----------------------------------------------------------

*** Psi4 exiting successfully. Buy a developer a beer!
