                               Psi4 1.8.2 release

  ==> Input File <==

--------------------------------------------------------------------------
MEMORY 60 GB

molecule dimer {
0 1
Gh(Br)     0.000000     0.000000     0.000000
Gh(O)     -0.944159     0.763135    -3.171296
Gh(H)     -0.418125     0.642488    -2.380292
Gh(H)     -1.515592     1.518947    -2.946457
Gh(O)      0.266373    -2.666671    -2.063433
Gh(H)     -0.507967    -3.216325    -2.144357
Gh(H)      0.169069    -1.929715    -1.427717
O          2.278924     0.586830    -2.040328
H          1.783721    -0.048625    -1.465647
H          2.356833     0.210882    -2.962479
Gh(O)     -0.660034     3.338372    -0.252519
Gh(H)     -0.523899     2.351649    -0.216782
Gh(H)     -0.034580     3.514831    -0.970765

units ang
no_reorient
no_com
symmetry c1
}

set {
basis        aug-cc-pVTZ
scf_type     df
}

energy("mp2")
--------------------------------------------------------------------------

    Molecular point group: c1

    Geometry (in Angstrom), charge = 0, multiplicity = 1:

       Center              X                  Y                   Z               Mass
    ------------   -----------------  -----------------  -----------------  -----------------
      Gh(BR)          0.000000000000     0.000000000000     0.000000000000    78.918337600000
      Gh(O)          -0.944159000000     0.763135000000    -3.171296000000    15.994914619570
      Gh(H)          -0.418125000000     0.642488000000    -2.380292000000     1.007825032230
      Gh(H)          -1.515592000000     1.518947000000    -2.946457000000     1.007825032230
      Gh(O)           0.266373000000    -2.666671000000    -2.063433000000    15.994914619570
      Gh(H)          -0.507967000000    -3.216325000000    -2.144357000000     1.007825032230
      Gh(H)           0.169069000000    -1.929715000000    -1.427717000000     1.007825032230
         O            2.278924000000     0.586830000000    -2.040328000000    15.994914619570
         H            1.783721000000    -0.048625000000    -1.465647000000     1.007825032230
         H            2.356833000000     0.210882000000    -2.962479000000     1.007825032230
      Gh(O)          -0.660034000000     3.338372000000    -0.252519000000    15.994914619570
      Gh(H)          -0.523899000000     2.351649000000    -0.216782000000     1.007825032230
      Gh(H)          -0.034580000000     3.514831000000    -0.970765000000     1.007825032230

  Charge       = 0
  Multiplicity = 1
  Basis Set: AUG-CC-PVTZ
    Blend: AUG-CC-PVTZ
  Basis Set: (AUG-CC-PVTZ AUX)
    Blend: AUG-CC-PVTZ-JKFIT

    Orbital Energies [Eh]
    ---------------------

    Doubly Occupied:

       1A    -20.570998     2A     -1.331982     3A     -0.706569
       4A     -0.568284     5A     -0.505820

  @DF-RHF Final Energy:   -76.05513336313719

   => Energetics <=

    Nuclear Repulsion Energy =              8.8420151240195537
    One-Electron Energy =                -122.4269866265093469
    Two-Electron Energy =                  37.5298381393526199
    Total Energy =                        -76.0551333631371733
 Dipole X            :        -42.5524735           42.2768508           -0.2756226
 Dipole Y            :         -9.8460880            9.1782051           -0.6678828
 Dipole Z            :         38.9854182          -39.2132344           -0.2278162
 Magnitude           :                                                    0.7575853
  Basis Set: (AUG-CC-PVTZ AUX)
    Blend: AUG-CC-PVTZ-RI
	 Reference Energy          =     -76.0551333631371875 [Eh]
	 Singles Energy            =      -0.0000000000000000 [Eh]
	 Same-Spin Energy          =      -0.0689699442902632 [Eh]
	 Opposite-Spin Energy      =      -0.2175510993626980 [Eh]
	 Correlation Energy        =      -0.2865210436529613 [Eh]
	 Total Energy              =     -76.3416544067901555 [Eh]

	 ================> DF-SCS-MP2 Energies <==================
	-----------------------------------------------------------
	 SCS Same-Spin Scale       =       0.3333333333333333 [-]
	 SCS Opposite-Spin Scale   =       1.2000000000000000 [-]
	 SCS Same-Spin Energy      =      -0.0229899814300877 [Eh]
	 SCS Opposite-Spin Energy  =      -0.2610613192352376 [Eh]
	 SCS Correlation Energy    =      -0.2840513006653254 [Eh]
	 SCS Total Energy          =     -76.3391846638025129 [Eh]
	-----------------------------------------------------------

*** Psi4 exiting successfully. Buy a developer a beer!
