                               Psi4 1.8.2 release

  ==> Input File <==

--------------------------------------------------------------------------
MEMORY 60 GB

molecule dimer {
0 1
Gh(Br)     0.000000     0.000000     0.000000
Gh(O)      0.537883    -2.592701     1.926681
Gh(H)     -0.386009    -2.598137     2.112065
Gh(H)      0.722606    -1.933912     1.307501
Gh(O)      1.291657    -2.839776    -1.063081
Gh(H)      0.556916    -2.277466    -0.805116
Gh(H)      1.883573    -2.161705    -1.372666
O         -1.874314    -0.408243     2.636827
H         -1.328717    -0.039733     1.938784
H         -2.727285    -0.453675     2.229542

units ang
no_reorient
no_com
symmetry c1
}

set {
basis        aug-cc-pVTZ
scf_type     df
}

energy("mp2")
--------------------------------------------------------------------------

    Molecular point group: c1

    Geometry (in Angstrom), charge = 0, multiplicity = 1:

       Center              X                  Y                   Z               Mass
    ------------   -----------------  -----------------  -----------------  -----------------
      Gh(BR)          0.000000000000     0.000000000000     0.000000000000    78.918337600000
      Gh(O)           0.537883000000    -2.592701000000     1.926681000000    15.994914619570
      Gh(H)          -0.386009000000    -2.598137000000     2.112065000000     1.007825032230
      Gh(H)           0.722606000000    -1.933912000000     1.307501000000     1.007825032230
      Gh(O)           1.291657000000    -2.839776000000    -1.063081000000    15.994914619570
      Gh(H)           0.556916000000    -2.277466000000    -0.805116000000     1.007825032230
      Gh(H)           1.883573000000    -2.161705000000    -1.372666000000     1.007825032230
         O           -1.874314000000    -0.408243000000     2.636827000000    15.994914619570
         H           -1.328717000000    -0.039733000000     1.938784000000     1.007825032230
         H           -2.727285000000    -0.453675000000     2.229542000000     1.007825032230

  Charge       = 0
  Multiplicity = 1
  Basis Set: AUG-CC-PVTZ
    Blend: AUG-CC-PVTZ
  Basis Set: (AUG-CC-PVTZ AUX)
    Blend: AUG-CC-PVTZ-JKFIT

    Orbital Energies [Eh]
    ---------------------

    Doubly Occupied:

       1A    -20.567110     2A     -1.357225     3A     -0.716306
       4A     -0.589474     5A     -0.511266

  @DF-RHF Final Energy:   -76.06059658845976

   => Energetics <=

    Nuclear Repulsion Energy =              9.2412818939683010
    One-Electron Energy =                -123.1209933958932794
    Two-Electron Energy =                  37.8191149134652136
    Total Energy =                        -76.0605965884597595
 Dipole X            :         35.7942120          -36.0002540           -0.2060421
 Dipole Y            :          7.3182245           -7.1041457            0.2140788
 Dipole Z            :        -48.4726110           47.7400415           -0.7325695
 Magnitude           :                                                    0.7905322
  Basis Set: (AUG-CC-PVTZ AUX)
    Blend: AUG-CC-PVTZ-RI
	 Reference Energy          =     -76.0605965884597595 [Eh]
	 Singles Energy            =      -0.0000000000000000 [Eh]
	 Same-Spin Energy          =      -0.0683580853045499 [Eh]
	 Opposite-Spin Energy      =      -0.2156524596289165 [Eh]
	 Correlation Energy        =      -0.2840105449334664 [Eh]
	 Total Energy              =     -76.3446071333932252 [Eh]

	 ================> DF-SCS-MP2 Energies <==================
	-----------------------------------------------------------
	 SCS Same-Spin Scale       =       0.3333333333333333 [-]
	 SCS Opposite-Spin Scale   =       1.2000000000000000 [-]
	 SCS Same-Spin Energy      =      -0.0227860284348500 [Eh]
	 SCS Opposite-Spin Energy  =      -0.2587829515546998 [Eh]
	 SCS Correlation Energy    =      -0.2815689799895498 [Eh]
	 SCS Total Energy          =     -76.3421655684493032 [Eh]
	-----------------------------------------------------------

*** Psi4 exiting successfully. Buy a developer a beer!
