                               Psi4 1.8.2 release

  ==> Input File <==

--------------------------------------------------------------------------
MEMORY 60 GB

molecule dimer {
-1 1
Br         0.000000     0.000000     0.000000
O         -0.088017     2.381552    -2.261185
H          0.085852     1.513908    -1.878612
H         -0.607832     2.226833    -3.041716
O          3.292755    -0.049072    -1.394388
H          3.313770     0.293662    -0.438862
H          3.329681    -1.029261    -1.327193
O         -1.887489    -1.542891     2.210978
H         -1.391426    -1.135169     1.456088
H         -2.055481    -2.392826     1.818252
O         -1.984809     2.487522     0.009885
H         -1.495227     1.853035    -0.535053
H         -2.258934     2.039837     0.854695
O         -2.275006    -1.329324    -2.141041
H         -1.778768    -1.181051    -2.948824
H         -1.760804    -0.928569    -1.475808

units ang
no_reorient
no_com
symmetry c1
}

set {
basis        aug-cc-pVTZ
scf_type     df
}

energy("mp2")
--------------------------------------------------------------------------

    Molecular point group: c1

    Geometry (in Angstrom), charge = -1, multiplicity = 1:

       Center              X                  Y                   Z               Mass
    ------------   -----------------  -----------------  -----------------  -----------------
         BR           0.000000000000     0.000000000000     0.000000000000    78.918337600000
         O           -0.088017000000     2.381552000000    -2.261185000000    15.994914619570
         H            0.085852000000     1.513908000000    -1.878612000000     1.007825032230
         H           -0.607832000000     2.226833000000    -3.041716000000     1.007825032230
         O            3.292755000000    -0.049072000000    -1.394388000000    15.994914619570
         H            3.313770000000     0.293662000000    -0.438862000000     1.007825032230
         H            3.329681000000    -1.029261000000    -1.327193000000     1.007825032230
         O           -1.887489000000    -1.542891000000     2.210978000000    15.994914619570
         H           -1.391426000000    -1.135169000000     1.456088000000     1.007825032230
         H           -2.055481000000    -2.392826000000     1.818252000000     1.007825032230
         O           -1.984809000000     2.487522000000     0.009885000000    15.994914619570
         H           -1.495227000000     1.853035000000    -0.535053000000     1.007825032230
         H           -2.258934000000     2.039837000000     0.854695000000     1.007825032230
         O           -2.275006000000    -1.329324000000    -2.141041000000    15.994914619570
         H           -1.778768000000    -1.181051000000    -2.948824000000     1.007825032230
         H           -1.760804000000    -0.928569000000    -1.475808000000     1.007825032230

  Charge       = -1
  Multiplicity = 1
  Basis Set: AUG-CC-PVTZ
    Blend: AUG-CC-PVTZ
  Basis Set: (AUG-CC-PVTZ AUX)
    Blend: AUG-CC-PVTZ-JKFIT

    Orbital Energies [Eh]
    ---------------------

    Doubly Occupied:

       1A   -489.785363     2A    -64.926020     3A    -58.280519
       4A    -58.280492     5A    -58.280439     6A    -20.452854
       7A    -20.424972     8A    -20.417907     9A    -20.415789
      10A    -20.395401    11A     -9.598558    12A     -7.206258
      13A     -7.206158    14A     -7.205756    15A     -2.947998
      16A     -2.947985    17A     -2.947476    18A     -2.947348
      19A     -2.947227    20A     -1.222486    21A     -1.212197
      22A     -1.209288    23A     -1.200096    24A     -1.168428
      25A     -0.767734    26A     -0.587828    27A     -0.579197
      28A     -0.577934    29A     -0.548232    30A     -0.543999
      31A     -0.455554    32A     -0.454633    33A     -0.448424
      34A     -0.439789    35A     -0.408794    36A     -0.387491
      37A     -0.375095    38A     -0.365500    39A     -0.360192
      40A     -0.338111    41A     -0.216493    42A     -0.214665
      43A     -0.207024

  @DF-RHF Final Energy: -2952.85940533423445

   => Energetics <=

    Nuclear Repulsion Energy =            444.0602349321579254
    One-Electron Energy =               -5010.0318678654130053
    Two-Electron Energy =                1613.1122275990203434
    Total Energy =                      -2952.8594053342349071
 Dipole X            :         54.6857518          -53.2141151            1.4716367
 Dipole Y            :        -33.4780393           31.8280808           -1.6499585
 Dipole Z            :         68.2702880          -68.2626543            0.0076337
 Magnitude           :                                                    2.2109129
  Basis Set: (AUG-CC-PVTZ AUX)
    Blend: AUG-CC-PVTZ-RI
	 Reference Energy          =   -2952.8594053342344523 [Eh]
	 Singles Energy            =      -0.0000000000000000 [Eh]
	 Same-Spin Energy          =      -0.4459619234242086 [Eh]
	 Opposite-Spin Energy      =      -1.3044104881149534 [Eh]
	 Correlation Energy        =      -1.7503724115391619 [Eh]
	 Total Energy              =   -2954.6097777457734992 [Eh]

	 ================> DF-SCS-MP2 Energies <==================
	-----------------------------------------------------------
	 SCS Same-Spin Scale       =       0.3333333333333333 [-]
	 SCS Opposite-Spin Scale   =       1.2000000000000000 [-]
	 SCS Same-Spin Energy      =      -0.1486539744747362 [Eh]
	 SCS Opposite-Spin Energy  =      -1.5652925857379441 [Eh]
	 SCS Correlation Energy    =      -1.7139465602126802 [Eh]
	 SCS Total Energy          =   -2954.5733518944471143 [Eh]
	-----------------------------------------------------------

*** Psi4 exiting successfully. Buy a developer a beer!
