                               Psi4 1.8.2 release

  ==> Input File <==

--------------------------------------------------------------------------
MEMORY 60 GB

molecule dimer {
0 1
Gh(Br)     0.000000     0.000000     0.000000
Gh(O)     -0.511209    -1.596324     2.879646
Gh(H)     -0.433710    -0.997467     2.138130
Gh(H)     -0.918528    -1.038916     3.548105
Gh(O)     -3.187448     0.590894    -0.105155
Gh(H)     -3.397130     0.517404     0.858241
Gh(H)     -3.018042     1.507967    -0.247243
Gh(O)      2.646787    -1.460966    -0.998380
Gh(H)      2.179136    -1.281805    -1.828390
Gh(H)      1.885375    -1.346297    -0.386432
Gh(O)      0.065671     2.343883     2.229430
Gh(H)     -0.131811     1.750637     1.521156
Gh(H)      1.015092     2.147601     2.388385
O          2.637791     0.698439     2.316515
H          3.403190     0.095791     2.263071
H          2.040586     0.587135     1.585898

units ang
no_reorient
no_com
symmetry c1
}

set {
basis        aug-cc-pVTZ
scf_type     df
}

energy("mp2")
--------------------------------------------------------------------------

    Molecular point group: c1

    Geometry (in Angstrom), charge = 0, multiplicity = 1:

       Center              X                  Y                   Z               Mass
    ------------   -----------------  -----------------  -----------------  -----------------
      Gh(BR)          0.000000000000     0.000000000000     0.000000000000    78.918337600000
      Gh(O)          -0.511209000000    -1.596324000000     2.879646000000    15.994914619570
      Gh(H)          -0.433710000000    -0.997467000000     2.138130000000     1.007825032230
      Gh(H)          -0.918528000000    -1.038916000000     3.548105000000     1.007825032230
      Gh(O)          -3.187448000000     0.590894000000    -0.105155000000    15.994914619570
      Gh(H)          -3.397130000000     0.517404000000     0.858241000000     1.007825032230
      Gh(H)          -3.018042000000     1.507967000000    -0.247243000000     1.007825032230
      Gh(O)           2.646787000000    -1.460966000000    -0.998380000000    15.994914619570
      Gh(H)           2.179136000000    -1.281805000000    -1.828390000000     1.007825032230
      Gh(H)           1.885375000000    -1.346297000000    -0.386432000000     1.007825032230
      Gh(O)           0.065671000000     2.343883000000     2.229430000000    15.994914619570
      Gh(H)          -0.131811000000     1.750637000000     1.521156000000     1.007825032230
      Gh(H)           1.015092000000     2.147601000000     2.388385000000     1.007825032230
         O            2.637791000000     0.698439000000     2.316515000000    15.994914619570
         H            3.403190000000     0.095791000000     2.263071000000     1.007825032230
         H            2.040586000000     0.587135000000     1.585898000000     1.007825032230

  Charge       = 0
  Multiplicity = 1
  Basis Set: AUG-CC-PVTZ
    Blend: AUG-CC-PVTZ
  Basis Set: (AUG-CC-PVTZ AUX)
    Blend: AUG-CC-PVTZ-JKFIT

    Orbital Energies [Eh]
    ---------------------

    Doubly Occupied:

       1A    -20.564444     2A     -1.345443     3A     -0.728766
       4A     -0.568834     5A     -0.507487

  @DF-RHF Final Energy:   -76.05884834062005

   => Energetics <=

    Nuclear Repulsion Energy =              9.1254436330941235
    One-Electron Energy =                -122.9386298297136051
    Two-Electron Energy =                  37.7543378559994380
    Total Energy =                        -76.0588483406200453
 Dipole X            :        -50.0535368           50.1648663            0.1113294
 Dipole Y            :        -12.3333327           11.8494105           -0.4839222
 Dipole Z            :        -42.8284953           42.2941286           -0.5343667
 Magnitude           :                                                    0.7294674
  Basis Set: (AUG-CC-PVTZ AUX)
    Blend: AUG-CC-PVTZ-RI
	 Reference Energy          =     -76.0588483406200453 [Eh]
	 Singles Energy            =      -0.0000000000000000 [Eh]
	 Same-Spin Energy          =      -0.0684256458261291 [Eh]
	 Opposite-Spin Energy      =      -0.2158999287159632 [Eh]
	 Correlation Energy        =      -0.2843255745420923 [Eh]
	 Total Energy              =     -76.3431739151621400 [Eh]

	 ================> DF-SCS-MP2 Energies <==================
	-----------------------------------------------------------
	 SCS Same-Spin Scale       =       0.3333333333333333 [-]
	 SCS Opposite-Spin Scale   =       1.2000000000000000 [-]
	 SCS Same-Spin Energy      =      -0.0228085486087097 [Eh]
	 SCS Opposite-Spin Energy  =      -0.2590799144591558 [Eh]
	 SCS Correlation Energy    =      -0.2818884630678655 [Eh]
	 SCS Total Energy          =     -76.3407368036879177 [Eh]
	-----------------------------------------------------------

*** Psi4 exiting successfully. Buy a developer a beer!
