                               Psi4 1.8.2 release

  ==> Input File <==

--------------------------------------------------------------------------
MEMORY 60 GB

molecule dimer {
-1 1
Br         0.000000     0.000000     0.000000
O          0.648956     3.052833    -0.910767
H          0.221036     2.238654    -0.688052
H          0.274889     3.810621    -0.399241
O         -3.547804     0.036909     0.397669
H         -3.709002     0.859644     0.826066
H         -2.626536    -0.211847     0.219525
O         -1.365510     1.033202    -2.554714
H         -0.976789     1.936597    -2.537138
H         -1.154285     0.547997    -1.730847
O          1.788958    -0.833292    -2.658545
H          1.515672    -0.412503    -3.446617
H          1.281287    -0.326220    -1.983247
O         -0.063313     2.516803     2.353453
H          0.132725     1.913084     1.615962
H         -0.436989     3.341547     2.033875

units ang
no_reorient
no_com
symmetry c1
}

set {
basis        aug-cc-pVTZ
scf_type     df
}

energy("mp2")
--------------------------------------------------------------------------

    Molecular point group: c1

    Geometry (in Angstrom), charge = -1, multiplicity = 1:

       Center              X                  Y                   Z               Mass
    ------------   -----------------  -----------------  -----------------  -----------------
         BR           0.000000000000     0.000000000000     0.000000000000    78.918337600000
         O            0.648956000000     3.052833000000    -0.910767000000    15.994914619570
         H            0.221036000000     2.238654000000    -0.688052000000     1.007825032230
         H            0.274889000000     3.810621000000    -0.399241000000     1.007825032230
         O           -3.547804000000     0.036909000000     0.397669000000    15.994914619570
         H           -3.709002000000     0.859644000000     0.826066000000     1.007825032230
         H           -2.626536000000    -0.211847000000     0.219525000000     1.007825032230
         O           -1.365510000000     1.033202000000    -2.554714000000    15.994914619570
         H           -0.976789000000     1.936597000000    -2.537138000000     1.007825032230
         H           -1.154285000000     0.547997000000    -1.730847000000     1.007825032230
         O            1.788958000000    -0.833292000000    -2.658545000000    15.994914619570
         H            1.515672000000    -0.412503000000    -3.446617000000     1.007825032230
         H            1.281287000000    -0.326220000000    -1.983247000000     1.007825032230
         O           -0.063313000000     2.516803000000     2.353453000000    15.994914619570
         H            0.132725000000     1.913084000000     1.615962000000     1.007825032230
         H           -0.436989000000     3.341547000000     2.033875000000     1.007825032230

  Charge       = -1
  Multiplicity = 1
  Basis Set: AUG-CC-PVTZ
    Blend: AUG-CC-PVTZ
  Basis Set: (AUG-CC-PVTZ AUX)
    Blend: AUG-CC-PVTZ-JKFIT

    Orbital Energies [Eh]
    ---------------------

    Doubly Occupied:

       1A   -489.801006     2A    -64.941770     3A    -58.296246
       4A    -58.296227     5A    -58.296204     6A    -20.440670
       7A    -20.436328     8A    -20.422694     9A    -20.411307
      10A    -20.406355    11A     -9.614367    12A     -7.221957
      13A     -7.221911    14A     -7.221772    15A     -2.963556
      16A     -2.963536    17A     -2.963387    18A     -2.963303
      19A     -2.963285    20A     -1.224490    21A     -1.217323
      22A     -1.209577    23A     -1.201651    24A     -1.183808
      25A     -0.787357    26A     -0.608293    27A     -0.605997
      28A     -0.597608    29A     -0.564491    30A     -0.558072
      31A     -0.459476    32A     -0.441650    33A     -0.440429
      34A     -0.427776    35A     -0.424045    36A     -0.386890
      37A     -0.378887    38A     -0.371777    39A     -0.358761
      40A     -0.351194    41A     -0.231212    42A     -0.228884
      43A     -0.228069

  @DF-RHF Final Energy: -2952.86670149697329

   => Energetics <=

    Nuclear Repulsion Energy =            455.6455157144649775
    One-Electron Energy =               -5032.3572259470292920
    Two-Electron Energy =                1623.8450087355915912
    Total Energy =                      -2952.8667014969732918
 Dipole X            :         48.8419542          -48.7316828            0.1102714
 Dipole Y            :       -113.0328051          113.6655411            0.6327361
 Dipole Z            :         63.4175058          -62.4988101            0.9186957
 Magnitude           :                                                    1.1209444
  Basis Set: (AUG-CC-PVTZ AUX)
    Blend: AUG-CC-PVTZ-RI
	 Reference Energy          =   -2952.8667014969732918 [Eh]
	 Singles Energy            =      -0.0000000000000000 [Eh]
	 Same-Spin Energy          =      -0.4481665041834429 [Eh]
	 Opposite-Spin Energy      =      -1.3064207440711268 [Eh]
	 Correlation Energy        =      -1.7545872482545697 [Eh]
	 Total Energy              =   -2954.6212887452279574 [Eh]

	 ================> DF-SCS-MP2 Energies <==================
	-----------------------------------------------------------
	 SCS Same-Spin Scale       =       0.3333333333333333 [-]
	 SCS Opposite-Spin Scale   =       1.2000000000000000 [-]
	 SCS Same-Spin Energy      =      -0.1493888347278143 [Eh]
	 SCS Opposite-Spin Energy  =      -1.5677048928853521 [Eh]
	 SCS Correlation Energy    =      -1.7170937276131664 [Eh]
	 SCS Total Energy          =   -2954.5837952245865381 [Eh]
	-----------------------------------------------------------

*** Psi4 exiting successfully. Buy a developer a beer!
