                               Psi4 1.8.2 release

  ==> Input File <==

--------------------------------------------------------------------------
MEMORY 60 GB

molecule dimer {
-1 1
Br         0.000000     0.000000     0.000000
O          0.936162     3.028793    -0.863611
H          0.135253     3.528226    -1.165330
H          0.572521     2.216892    -0.482163
O         -1.364496     1.694909     2.400741
H         -0.940522     1.130278     1.692609
H         -1.147774     2.625449     2.143951
O         -2.003382    -2.394680     1.418725
H         -1.477915    -3.075593     1.809731
H         -1.317858    -1.699563     1.204630
O          3.353864     0.790785     0.363253
H          3.773818     0.759128    -0.518565
H          2.429244     0.812169     0.202249

units ang
no_reorient
no_com
symmetry c1
}

set {
basis        aug-cc-pVTZ
scf_type     df
}

energy("mp2")
--------------------------------------------------------------------------

    Molecular point group: c1

    Geometry (in Angstrom), charge = -1, multiplicity = 1:

       Center              X                  Y                   Z               Mass
    ------------   -----------------  -----------------  -----------------  -----------------
         BR           0.000000000000     0.000000000000     0.000000000000    78.918337600000
         O            0.936162000000     3.028793000000    -0.863611000000    15.994914619570
         H            0.135253000000     3.528226000000    -1.165330000000     1.007825032230
         H            0.572521000000     2.216892000000    -0.482163000000     1.007825032230
         O           -1.364496000000     1.694909000000     2.400741000000    15.994914619570
         H           -0.940522000000     1.130278000000     1.692609000000     1.007825032230
         H           -1.147774000000     2.625449000000     2.143951000000     1.007825032230
         O           -2.003382000000    -2.394680000000     1.418725000000    15.994914619570
         H           -1.477915000000    -3.075593000000     1.809731000000     1.007825032230
         H           -1.317858000000    -1.699563000000     1.204630000000     1.007825032230
         O            3.353864000000     0.790785000000     0.363253000000    15.994914619570
         H            3.773818000000     0.759128000000    -0.518565000000     1.007825032230
         H            2.429244000000     0.812169000000     0.202249000000     1.007825032230

  Charge       = -1
  Multiplicity = 1
  Basis Set: AUG-CC-PVTZ
    Blend: AUG-CC-PVTZ
  Basis Set: (AUG-CC-PVTZ AUX)
    Blend: AUG-CC-PVTZ-JKFIT

    Orbital Energies [Eh]
    ---------------------

    Doubly Occupied:

       1A   -489.789104     2A    -64.929673     3A    -58.284167
       4A    -58.284149     5A    -58.284122     6A    -20.426010
       7A    -20.419580     8A    -20.417858     9A    -20.408788
      10A     -9.602156    11A     -7.209863    12A     -7.209689
      13A     -7.209396    14A     -2.951527    15A     -2.951486
      16A     -2.951169    17A     -2.950960    18A     -2.950915
      19A     -1.205851    20A     -1.201681    21A     -1.200841
      22A     -1.176058    23A     -0.770420    24A     -0.575258
      25A     -0.564625    26A     -0.557799    27A     -0.541509
      28A     -0.445767    29A     -0.442480    30A     -0.438579
      31A     -0.424173    32A     -0.368186    33A     -0.364002
      34A     -0.362654    35A     -0.348502    36A     -0.220680
      37A     -0.215590    38A     -0.212008

  @DF-RHF Final Energy: -2876.80856980525778

   => Energetics <=

    Nuclear Repulsion Energy =            331.4602624472626076
    One-Electron Energy =               -4678.8031090208432943
    Two-Electron Energy =                1470.5342767683227976
    Total Energy =                      -2876.8085698052577754
 Dipole X            :        -17.6633521           17.7708919            0.1075398
 Dipole Y            :        -59.5097411           59.0642253           -0.4455158
 Dipole Z            :        -60.9749654           59.4129440           -1.5620214
 Magnitude           :                                                    1.6278697
  Basis Set: (AUG-CC-PVTZ AUX)
    Blend: AUG-CC-PVTZ-RI
	 Reference Energy          =   -2876.8085698052577754 [Eh]
	 Singles Energy            =      -0.0000000000000000 [Eh]
	 Same-Spin Energy          =      -0.3754639886686301 [Eh]
	 Opposite-Spin Energy      =      -1.0864773471960654 [Eh]
	 Correlation Energy        =      -1.4619413358646955 [Eh]
	 Total Energy              =   -2878.2705111411223697 [Eh]

	 ================> DF-SCS-MP2 Energies <==================
	-----------------------------------------------------------
	 SCS Same-Spin Scale       =       0.3333333333333333 [-]
	 SCS Opposite-Spin Scale   =       1.2000000000000000 [-]
	 SCS Same-Spin Energy      =      -0.1251546628895434 [Eh]
	 SCS Opposite-Spin Energy  =      -1.3037728166352784 [Eh]
	 SCS Correlation Energy    =      -1.4289274795248219 [Eh]
	 SCS Total Energy          =   -2878.2374972847824210 [Eh]
	-----------------------------------------------------------

*** Psi4 exiting successfully. Buy a developer a beer!
