                               Psi4 1.8.2 release

  ==> Input File <==

--------------------------------------------------------------------------
MEMORY 60 GB

molecule dimer {
-1 1
Br         0.000000     0.000000     0.000000
O          2.468166    -1.725257    -1.468911
H          2.008711    -1.796399    -2.336402
H          1.933235    -1.232159    -0.838800
O         -1.184606    -3.402731     0.278725
H         -0.353106    -3.499588     0.783401
H         -1.108456    -2.501841    -0.036643
O         -1.124259    -1.651488    -2.915811
H         -0.354710    -2.056374    -3.284914
H         -0.779463    -1.098095    -2.188563
O         -2.680953     1.703746    -1.441367
H         -2.245764     1.022923    -0.880588
H         -2.101163     1.772878    -2.243374

units ang
no_reorient
no_com
symmetry c1
}

set {
basis        aug-cc-pVTZ
scf_type     df
}

energy("mp2")
--------------------------------------------------------------------------

    Molecular point group: c1

    Geometry (in Angstrom), charge = -1, multiplicity = 1:

       Center              X                  Y                   Z               Mass
    ------------   -----------------  -----------------  -----------------  -----------------
         BR           0.000000000000     0.000000000000     0.000000000000    78.918337600000
         O            2.468166000000    -1.725257000000    -1.468911000000    15.994914619570
         H            2.008711000000    -1.796399000000    -2.336402000000     1.007825032230
         H            1.933235000000    -1.232159000000    -0.838800000000     1.007825032230
         O           -1.184606000000    -3.402731000000     0.278725000000    15.994914619570
         H           -0.353106000000    -3.499588000000     0.783401000000     1.007825032230
         H           -1.108456000000    -2.501841000000    -0.036643000000     1.007825032230
         O           -1.124259000000    -1.651488000000    -2.915811000000    15.994914619570
         H           -0.354710000000    -2.056374000000    -3.284914000000     1.007825032230
         H           -0.779463000000    -1.098095000000    -2.188563000000     1.007825032230
         O           -2.680953000000     1.703746000000    -1.441367000000    15.994914619570
         H           -2.245764000000     1.022923000000    -0.880588000000     1.007825032230
         H           -2.101163000000     1.772878000000    -2.243374000000     1.007825032230

  Charge       = -1
  Multiplicity = 1
  Basis Set: AUG-CC-PVTZ
    Blend: AUG-CC-PVTZ
  Basis Set: (AUG-CC-PVTZ AUX)
    Blend: AUG-CC-PVTZ-JKFIT

    Orbital Energies [Eh]
    ---------------------

    Doubly Occupied:

       1A   -489.788216     2A    -64.928550     3A    -58.283061
       4A    -58.283032     5A    -58.283017     6A    -20.433092
       7A    -20.426340     8A    -20.424214     9A    -20.423824
      10A     -9.600871    11A     -7.208464    12A     -7.208351
      13A     -7.208160    14A     -2.950148    15A     -2.950113
      16A     -2.949910    17A     -2.949746    18A     -2.949706
      19A     -1.220706    20A     -1.205993    21A     -1.203830
      22A     -1.192804    23A     -0.763945    24A     -0.585236
      25A     -0.583512    26A     -0.562065    27A     -0.556897
      28A     -0.457530    29A     -0.448811    30A     -0.438780
      31A     -0.435970    32A     -0.380093    33A     -0.370484
      34A     -0.365990    35A     -0.363477    36A     -0.215567
      37A     -0.214205    38A     -0.210392

  @DF-RHF Final Energy: -2876.81587985026817

   => Energetics <=

    Nuclear Repulsion Energy =            328.4586432574611763
    One-Electron Energy =               -4672.4988348251290518
    Two-Electron Energy =                1467.2243117173993596
    Total Energy =                      -2876.8158798502681748
 Dipole X            :         45.2326330          -43.7923847            1.4402483
 Dipole Y            :         95.4862262          -94.4759033            1.0103229
 Dipole Z            :        105.3640310         -104.6998886            0.6641424
 Magnitude           :                                                    1.8804661
  Basis Set: (AUG-CC-PVTZ AUX)
    Blend: AUG-CC-PVTZ-RI
	 Reference Energy          =   -2876.8158798502681748 [Eh]
	 Singles Energy            =      -0.0000000000000000 [Eh]
	 Same-Spin Energy          =      -0.3722436115937114 [Eh]
	 Opposite-Spin Energy      =      -1.0811184382679428 [Eh]
	 Correlation Energy        =      -1.4533620498616542 [Eh]
	 Total Energy              =   -2878.2692419001300550 [Eh]

	 ================> DF-SCS-MP2 Energies <==================
	-----------------------------------------------------------
	 SCS Same-Spin Scale       =       0.3333333333333333 [-]
	 SCS Opposite-Spin Scale   =       1.2000000000000000 [-]
	 SCS Same-Spin Energy      =      -0.1240812038645705 [Eh]
	 SCS Opposite-Spin Energy  =      -1.2973421259215314 [Eh]
	 SCS Correlation Energy    =      -1.4214233297861019 [Eh]
	 SCS Total Energy          =   -2878.2373031800543686 [Eh]
	-----------------------------------------------------------

*** Psi4 exiting successfully. Buy a developer a beer!
