                               Psi4 1.8.2 release

  ==> Input File <==

--------------------------------------------------------------------------
MEMORY 60 GB

molecule dimer {
0 1
Gh(Br)     0.000000     0.000000     0.000000
Gh(O)     -0.398772     2.771226    -1.737852
Gh(H)     -0.167454     1.894529    -1.346899
Gh(H)     -0.309653     3.428697    -1.020919
O         -3.339806     0.323665     0.990808
H         -2.438001     0.132101     0.746811
H         -3.184475     1.038662     1.636400
Gh(O)      1.126320     0.799653     2.994782
Gh(H)      0.909928     0.462489     2.111776
Gh(H)      1.413076     1.689178     2.896339
Gh(O)      2.367838    -2.599542    -0.056597
Gh(H)      3.092019    -3.163533    -0.291148
Gh(H)      2.688477    -1.665096    -0.038083
Gh(O)      2.789469     1.923029    -0.987849
Gh(H)      2.065767     1.315362    -0.700213
Gh(H)      3.541717     1.356749    -1.006051
Gh(O)     -0.911427     2.834175     1.397650
Gh(H)     -0.109751     3.206318     1.722669
Gh(H)     -0.618486     2.164510     0.761354

units ang
no_reorient
no_com
symmetry c1
}

set {
basis        aug-cc-pVTZ
scf_type     df
}

energy("mp2")
--------------------------------------------------------------------------

    Molecular point group: c1

    Geometry (in Angstrom), charge = 0, multiplicity = 1:

       Center              X                  Y                   Z               Mass
    ------------   -----------------  -----------------  -----------------  -----------------
      Gh(BR)          0.000000000000     0.000000000000     0.000000000000    78.918337600000
      Gh(O)          -0.398772000000     2.771226000000    -1.737852000000    15.994914619570
      Gh(H)          -0.167454000000     1.894529000000    -1.346899000000     1.007825032230
      Gh(H)          -0.309653000000     3.428697000000    -1.020919000000     1.007825032230
         O           -3.339806000000     0.323665000000     0.990808000000    15.994914619570
         H           -2.438001000000     0.132101000000     0.746811000000     1.007825032230
         H           -3.184475000000     1.038662000000     1.636400000000     1.007825032230
      Gh(O)           1.126320000000     0.799653000000     2.994782000000    15.994914619570
      Gh(H)           0.909928000000     0.462489000000     2.111776000000     1.007825032230
      Gh(H)           1.413076000000     1.689178000000     2.896339000000     1.007825032230
      Gh(O)           2.367838000000    -2.599542000000    -0.056597000000    15.994914619570
      Gh(H)           3.092019000000    -3.163533000000    -0.291148000000     1.007825032230
      Gh(H)           2.688477000000    -1.665096000000    -0.038083000000     1.007825032230
      Gh(O)           2.789469000000     1.923029000000    -0.987849000000    15.994914619570
      Gh(H)           2.065767000000     1.315362000000    -0.700213000000     1.007825032230
      Gh(H)           3.541717000000     1.356749000000    -1.006051000000     1.007825032230
      Gh(O)          -0.911427000000     2.834175000000     1.397650000000    15.994914619570
      Gh(H)          -0.109751000000     3.206318000000     1.722669000000     1.007825032230
      Gh(H)          -0.618486000000     2.164510000000     0.761354000000     1.007825032230

  Charge       = 0
  Multiplicity = 1
  Basis Set: AUG-CC-PVTZ
    Blend: AUG-CC-PVTZ
  Basis Set: (AUG-CC-PVTZ AUX)
    Blend: AUG-CC-PVTZ-JKFIT

    Orbital Energies [Eh]
    ---------------------

    Doubly Occupied:

       1A    -20.570565     2A     -1.353450     3A     -0.703927
       4A     -0.593172     5A     -0.511180

  @DF-RHF Final Energy:   -76.05892265297459

   => Energetics <=

    Nuclear Repulsion Energy =              9.1367963567293682
    One-Electron Energy =                -122.9268480393713645
    Two-Electron Energy =                  37.7311290296674002
    Total Energy =                        -76.0589226529746014
 Dipole X            :         61.8084153          -61.1154890            0.6929263
 Dipole Y            :         -6.7665053            7.1055271            0.3390218
 Dipole Z            :        -19.2229292           19.4824622            0.2595330
 Magnitude           :                                                    0.8139042
  Basis Set: (AUG-CC-PVTZ AUX)
    Blend: AUG-CC-PVTZ-RI
	 Reference Energy          =     -76.0589226529745872 [Eh]
	 Singles Energy            =      -0.0000000000000000 [Eh]
	 Same-Spin Energy          =      -0.0686410828903820 [Eh]
	 Opposite-Spin Energy      =      -0.2165372440908958 [Eh]
	 Correlation Energy        =      -0.2851783269812777 [Eh]
	 Total Energy              =     -76.3441009799558685 [Eh]

	 ================> DF-SCS-MP2 Energies <==================
	-----------------------------------------------------------
	 SCS Same-Spin Scale       =       0.3333333333333333 [-]
	 SCS Opposite-Spin Scale   =       1.2000000000000000 [-]
	 SCS Same-Spin Energy      =      -0.0228803609634607 [Eh]
	 SCS Opposite-Spin Energy  =      -0.2598446929090749 [Eh]
	 SCS Correlation Energy    =      -0.2827250538725355 [Eh]
	 SCS Total Energy          =     -76.3416477068471266 [Eh]
	-----------------------------------------------------------

*** Psi4 exiting successfully. Buy a developer a beer!
