                               Psi4 1.8.2 release

  ==> Input File <==

--------------------------------------------------------------------------
MEMORY 60 GB

molecule dimer {
-1 1
Br         0.000000     0.000000     0.000000
Gh(O)      1.933199     1.986490     1.808234
Gh(H)      1.215137     1.668912     1.233648
Gh(H)      2.279603     2.831188     1.447197
Gh(O)     -2.110295     2.665636     0.091665
Gh(H)     -1.505616     1.895002     0.152179
Gh(H)     -1.513127     3.456853    -0.085606
Gh(O)      0.395690    -0.651139     3.487777
Gh(H)      0.093477    -0.316228     2.602410
Gh(H)      0.310350    -1.614550     3.373877

units ang
no_reorient
no_com
symmetry c1
}

set {
basis        aug-cc-pVTZ
scf_type     df
}

energy("mp2")
--------------------------------------------------------------------------

    Molecular point group: c1

    Geometry (in Angstrom), charge = -1, multiplicity = 1:

       Center              X                  Y                   Z               Mass
    ------------   -----------------  -----------------  -----------------  -----------------
         BR           0.000000000000     0.000000000000     0.000000000000    78.918337600000
      Gh(O)           1.933199000000     1.986490000000     1.808234000000    15.994914619570
      Gh(H)           1.215137000000     1.668912000000     1.233648000000     1.007825032230
      Gh(H)           2.279603000000     2.831188000000     1.447197000000     1.007825032230
      Gh(O)          -2.110295000000     2.665636000000     0.091665000000    15.994914619570
      Gh(H)          -1.505616000000     1.895002000000     0.152179000000     1.007825032230
      Gh(H)          -1.513127000000     3.456853000000    -0.085606000000     1.007825032230
      Gh(O)           0.395690000000    -0.651139000000     3.487777000000    15.994914619570
      Gh(H)           0.093477000000    -0.316228000000     2.602410000000     1.007825032230
      Gh(H)           0.310350000000    -1.614550000000     3.373877000000     1.007825032230

  Charge       = -1
  Multiplicity = 1
  Basis Set: AUG-CC-PVTZ
    Blend: AUG-CC-PVTZ
  Basis Set: (AUG-CC-PVTZ AUX)
    Blend: AUG-CC-PVTZ-JKFIT

    Orbital Energies [Eh]
    ---------------------

    Doubly Occupied:

       1A   -489.721558     2A    -64.861306     3A    -58.215822
       4A    -58.215820     5A    -58.215819     6A     -9.533124
       7A     -7.140469     8A     -7.140455     9A     -7.140454
      10A     -2.882164    11A     -2.882161    12A     -2.882158
      13A     -2.882138    14A     -2.882132    15A     -0.685995
      16A     -0.139339    17A     -0.139337    18A     -0.139335

  @DF-RHF Final Energy: -2572.53370696727688

   => Energetics <=

    Nuclear Repulsion Energy =              0.0000000000000000
    One-Electron Energy =               -3593.6682346797601895
    Two-Electron Energy =                1021.1345277124835320
    Total Energy =                      -2572.5337069672768848
 Dipole X            :         -0.0000489            0.0000000           -0.0000489
 Dipole Y            :          0.0002273            0.0000000            0.0002273
 Dipole Z            :          0.0003587            0.0000000            0.0003587
 Magnitude           :                                                    0.0004275
  Basis Set: (AUG-CC-PVTZ AUX)
    Blend: AUG-CC-PVTZ-RI
	 Reference Energy          =   -2572.5337069672768848 [Eh]
	 Singles Energy            =      -0.0000000000000000 [Eh]
	 Same-Spin Energy          =      -0.0895920325516684 [Eh]
	 Opposite-Spin Energy      =      -0.2083199794338875 [Eh]
	 Correlation Energy        =      -0.2979120119855559 [Eh]
	 Total Energy              =   -2572.8316189792626574 [Eh]

	 ================> DF-SCS-MP2 Energies <==================
	-----------------------------------------------------------
	 SCS Same-Spin Scale       =       0.3333333333333333 [-]
	 SCS Opposite-Spin Scale   =       1.2000000000000000 [-]
	 SCS Same-Spin Energy      =      -0.0298640108505561 [Eh]
	 SCS Opposite-Spin Energy  =      -0.2499839753206650 [Eh]
	 SCS Correlation Energy    =      -0.2798479861712211 [Eh]
	 SCS Total Energy          =   -2572.8135549534481470 [Eh]
	-----------------------------------------------------------

*** Psi4 exiting successfully. Buy a developer a beer!
