                               Psi4 1.8.2 release

  ==> Input File <==

--------------------------------------------------------------------------
MEMORY 60 GB

molecule dimer {
-1 1
Br         0.000000     0.000000     0.000000
Gh(O)     -2.482245     0.431698    -2.183327
Gh(H)     -1.655939     0.265964    -1.667076
Gh(H)     -3.230451     0.292324    -1.603838
Gh(O)      0.162468     2.602185    -2.062760
Gh(H)      0.057853     1.916729    -1.447029
Gh(H)      0.378926     2.126170    -2.867373
Gh(O)      2.925195     1.607543     0.753982
Gh(H)      3.427561     1.760867    -0.069839
Gh(H)      2.058998     1.436778     0.427908
Gh(O)      2.391839    -0.819196    -2.219117
Gh(H)      1.654438    -0.575889    -1.629627
Gh(H)      1.934968    -1.167604    -3.010764

units ang
no_reorient
no_com
symmetry c1
}

set {
basis        aug-cc-pVTZ
scf_type     df
}

energy("mp2")
--------------------------------------------------------------------------

    Molecular point group: c1

    Geometry (in Angstrom), charge = -1, multiplicity = 1:

       Center              X                  Y                   Z               Mass
    ------------   -----------------  -----------------  -----------------  -----------------
         BR           0.000000000000     0.000000000000     0.000000000000    78.918337600000
      Gh(O)          -2.482245000000     0.431698000000    -2.183327000000    15.994914619570
      Gh(H)          -1.655939000000     0.265964000000    -1.667076000000     1.007825032230
      Gh(H)          -3.230451000000     0.292324000000    -1.603838000000     1.007825032230
      Gh(O)           0.162468000000     2.602185000000    -2.062760000000    15.994914619570
      Gh(H)           0.057853000000     1.916729000000    -1.447029000000     1.007825032230
      Gh(H)           0.378926000000     2.126170000000    -2.867373000000     1.007825032230
      Gh(O)           2.925195000000     1.607543000000     0.753982000000    15.994914619570
      Gh(H)           3.427561000000     1.760867000000    -0.069839000000     1.007825032230
      Gh(H)           2.058998000000     1.436778000000     0.427908000000     1.007825032230
      Gh(O)           2.391839000000    -0.819196000000    -2.219117000000    15.994914619570
      Gh(H)           1.654438000000    -0.575889000000    -1.629627000000     1.007825032230
      Gh(H)           1.934968000000    -1.167604000000    -3.010764000000     1.007825032230

  Charge       = -1
  Multiplicity = 1
  Basis Set: AUG-CC-PVTZ
    Blend: AUG-CC-PVTZ
  Basis Set: (AUG-CC-PVTZ AUX)
    Blend: AUG-CC-PVTZ-JKFIT

    Orbital Energies [Eh]
    ---------------------

    Doubly Occupied:

       1A   -489.722040     2A    -64.861662     3A    -58.216193
       4A    -58.216191     5A    -58.216190     6A     -9.533244
       7A     -7.140580     8A     -7.140573     9A     -7.140563
      10A     -2.882289    11A     -2.882286    12A     -2.882276
      13A     -2.882258    14A     -2.882251    15A     -0.685994
      16A     -0.139337    17A     -0.139336    18A     -0.139334

  @DF-RHF Final Energy: -2572.53372169766544

   => Energetics <=

    Nuclear Repulsion Energy =              0.0000000000000000
    One-Electron Energy =               -3593.6622484438962601
    Two-Electron Energy =                1021.1285267462309321
    Total Energy =                      -2572.5337216976654418
 Dipole X            :          0.0002028            0.0000000            0.0002028
 Dipole Y            :          0.0001246            0.0000000            0.0001246
 Dipole Z            :         -0.0001596            0.0000000           -0.0001596
 Magnitude           :                                                    0.0002866
  Basis Set: (AUG-CC-PVTZ AUX)
    Blend: AUG-CC-PVTZ-RI
	 Reference Energy          =   -2572.5337216976654418 [Eh]
	 Singles Energy            =      -0.0000000000000000 [Eh]
	 Same-Spin Energy          =      -0.0908406027164686 [Eh]
	 Opposite-Spin Energy      =      -0.2114497376821740 [Eh]
	 Correlation Energy        =      -0.3022903403986426 [Eh]
	 Total Energy              =   -2572.8360120380639273 [Eh]

	 ================> DF-SCS-MP2 Energies <==================
	-----------------------------------------------------------
	 SCS Same-Spin Scale       =       0.3333333333333333 [-]
	 SCS Opposite-Spin Scale   =       1.2000000000000000 [-]
	 SCS Same-Spin Energy      =      -0.0302802009054895 [Eh]
	 SCS Opposite-Spin Energy  =      -0.2537396852186088 [Eh]
	 SCS Correlation Energy    =      -0.2840198861240983 [Eh]
	 SCS Total Energy          =   -2572.8177415837894841 [Eh]
	-----------------------------------------------------------

*** Psi4 exiting successfully. Buy a developer a beer!
