                               Psi4 1.9 release

  ==> Input File <==

--------------------------------------------------------------------------
MEMORY 60 GB

molecule dimer {
-1 1
Br     0.000000     0.000000     0.000000
--
0 1
O     -2.443613    -2.360774    -0.255856
H     -1.986974    -1.574922    -0.584686
H     -3.201224    -2.434475    -0.842092
O      3.066514    -0.605083     1.353026
H      2.141438    -0.713791     1.099239
H      3.086047    -0.698339     2.294813
O      0.367047    -3.332711     0.754569
H      1.227098    -3.062496     0.463316
H     -0.190689    -2.686798     0.393415
O      0.333694    -0.332488    -3.479360
H      0.357208    -0.153407    -2.541475
H     -0.280528    -1.086508    -3.536513
O     -0.545829     2.707927     1.712656
H     -1.489040     2.571515     1.590886
H     -0.104623     1.938941     1.344831

units ang
no_reorient
no_com
symmetry c1
}

set {
basis        aug-cc-pVTZ
scf_type     df
}

energy("mp2", bsse_type="cp")
--------------------------------------------------------------------------

                               Psi4 1.9 release
    Molecular point group: c1
  Charge       = 0
  Multiplicity = 1
  Basis Set: AUG-CC-PVTZ
    Blend: AUG-CC-PVTZ
  Basis Set: (AUG-CC-PVTZ AUX)
    Blend: AUG-CC-PVTZ-JKFIT
  @DF-RHF Final Energy:  -380.29558956448483
    Total Energy =                       -380.2955895644848283
 Dipole X            :        -12.3125105           10.9249168           -1.3875937
 Dipole Y            :         74.1551176          -74.2384804           -0.0833628
 Dipole Z            :         -1.0035685            0.6841073           -0.3194612
 Magnitude           :                                                    1.4263314
  Basis Set: (AUG-CC-PVTZ AUX)
    Blend: AUG-CC-PVTZ-RI
	 Reference Energy          =    -380.2955895644848283 [Eh]
	 Singles Energy            =      -0.0000000000000000 [Eh]
	 Same-Spin Energy          =      -0.3432491186030968 [Eh]
	 Opposite-Spin Energy      =      -1.0801257653137539 [Eh]
	 Correlation Energy        =      -1.4233748839168507 [Eh]
	 Total Energy              =    -381.7189644484016640 [Eh]
	 SCS Total Energy          =    -381.7061568557290343 [Eh]
                               Psi4 1.9 release
    Molecular point group: c1
  Multiplicity = 1
  Basis Set: AUG-CC-PVTZ
    Blend: AUG-CC-PVTZ
  Basis Set: (AUG-CC-PVTZ AUX)
    Blend: AUG-CC-PVTZ-JKFIT
  @DF-RHF Final Energy: -2572.53372826026316
    Total Energy =                      -2572.5337282602631603
  Basis Set: (AUG-CC-PVTZ AUX)
	 Singles Energy            =      -0.0000000000000000 [Eh]
	 Same-Spin Energy          =      -0.0910122415800474 [Eh]
	 Opposite-Spin Energy      =      -0.2117818536474362 [Eh]
	 Correlation Energy        =      -0.3027940952274836 [Eh]
	 Total Energy              =   -2572.8365223554906152 [Eh]
	 SCS Total Energy          =   -2572.8182038985000872 [Eh]
                               Psi4 1.9 release
    Molecular point group: c1

    Geometry (in Bohr), charge = -1, multiplicity = 1:

       Center              X                  Y                   Z               Mass
    ------------   -----------------  -----------------  -----------------  -----------------
         BR           0.000000000000     0.000000000000     0.000000000000    78.918337600000
         O           -4.617759326608    -4.461216304102    -0.483497767555    15.994914619570
         H           -3.754836678405    -2.976171248958    -1.104896409389     1.007825032230
         H           -6.049436626243    -4.600491009274    -1.591323252439     1.007825032230
         O            5.794871619882    -1.143441153170     2.556848580624    15.994914619570
         H            4.046731334648    -1.348869500817     2.077260656422     1.007825032230
         H            5.831783640291    -1.319669452726     4.336568079140     1.007825032230
         O            0.693618305171    -6.297911045301     1.425928752761    15.994914619570
         H            2.318879149097    -5.787278700310     0.875540349543     1.007825032230
         H           -0.360349985137    -5.077312374428     0.743446603647     1.007825032230
         O            0.630590269709    -0.628311260001    -6.575037491873    15.994914619570
         H            0.675025289823    -0.289897215728    -4.802691704698     1.007825032230
         H           -0.530121090522    -2.053202553119    -6.683041009121     1.007825032230
         O           -1.031467321333     5.117240397733     3.236450787122    15.994914619570
         H           -2.813877789852     4.859459077507     3.006338836825     1.007825032230
         H           -0.197708816424     3.664067463421     2.541362275026     1.007825032230

  Charge       = -1
  Multiplicity = 1
  Basis Set: AUG-CC-PVTZ
    Blend: AUG-CC-PVTZ
  Basis Set: (AUG-CC-PVTZ AUX)
    Blend: AUG-CC-PVTZ-JKFIT

    Orbital Energies [Eh]
    ---------------------

    Doubly Occupied:

       1A   -489.794212     2A    -64.934738     3A    -58.289253
       4A    -58.289214     5A    -58.289192     6A    -20.446044
       7A    -20.431929     8A    -20.426003     9A    -20.413209
      10A    -20.412828    11A     -9.607135    12A     -7.214869
      13A     -7.214600    14A     -7.214436    15A     -2.956497
      16A     -2.956433    17A     -2.956247    18A     -2.955914
      19A     -2.955895    20A     -1.231704    21A     -1.216340
      22A     -1.216099    23A     -1.215285    24A     -1.200751
      25A     -0.774037    26A     -0.595919    27A     -0.583651
      28A     -0.575989    29A     -0.574968    30A     -0.571935
      31A     -0.467508    32A     -0.456457    33A     -0.449273
      34A     -0.446143    35A     -0.436444    36A     -0.390793
      37A     -0.376334    38A     -0.373630    39A     -0.364190
      40A     -0.360857    41A     -0.225347    42A     -0.220656
      43A     -0.218835

  @DF-RHF Final Energy: -2952.88584696143607

   => Energetics <=

    Nuclear Repulsion Energy =            435.3008914120598547
    One-Electron Energy =               -4991.7698897815334931
    Two-Electron Energy =                1603.5831514080371107
    Total Energy =                      -2952.8858469614360729
 Dipole X            :        -12.2958584           10.9249168           -1.3709416
 Dipole Y            :         74.4677381          -74.2384804            0.2292577
 Dipole Z            :         -0.9515841            0.6841073           -0.2674768
 Magnitude           :                                                    1.4154801
  Basis Set: (AUG-CC-PVTZ AUX)
    Blend: AUG-CC-PVTZ-RI
	 Reference Energy          =   -2952.8858469614360729 [Eh]
	 Singles Energy            =      -0.0000000000000000 [Eh]
	 Same-Spin Energy          =      -0.4432019795014570 [Eh]
	 Opposite-Spin Energy      =      -1.2986250726785851 [Eh]
	 Correlation Energy        =      -1.7418270521800421 [Eh]
	 Total Energy              =   -2954.6276740136158878 [Eh]

	 ================> DF-SCS-MP2 Energies <==================
	-----------------------------------------------------------
	 SCS Same-Spin Scale       =       0.3333333333333333 [-]
	 SCS Opposite-Spin Scale   =       1.2000000000000000 [-]
	 SCS Same-Spin Energy      =      -0.1477339931671523 [Eh]
	 SCS Opposite-Spin Energy  =      -1.5583500872143021 [Eh]
	 SCS Correlation Energy    =      -1.7060840803814545 [Eh]
	 SCS Total Energy          =   -2954.5919310418175883 [Eh]
	-----------------------------------------------------------

*** Psi4 exiting successfully. Buy a developer a beer!
