                               Psi4 1.8.2 release

  ==> Input File <==

--------------------------------------------------------------------------
MEMORY 60 GB

molecule dimer {
0 1
Gh(Br)     0.000000     0.000000     0.000000
O         -0.944159     0.763135    -3.171296
H         -0.418125     0.642488    -2.380292
H         -1.515592     1.518947    -2.946457
Gh(O)      0.266373    -2.666671    -2.063433
Gh(H)     -0.507967    -3.216325    -2.144357
Gh(H)      0.169069    -1.929715    -1.427717
Gh(O)      2.278924     0.586830    -2.040328
Gh(H)      1.783721    -0.048625    -1.465647
Gh(H)      2.356833     0.210882    -2.962479
Gh(O)     -0.660034     3.338372    -0.252519
Gh(H)     -0.523899     2.351649    -0.216782
Gh(H)     -0.034580     3.514831    -0.970765

units ang
no_reorient
no_com
symmetry c1
}

set {
basis        aug-cc-pVTZ
scf_type     df
}

energy("mp2")
--------------------------------------------------------------------------

    Molecular point group: c1

    Geometry (in Angstrom), charge = 0, multiplicity = 1:

       Center              X                  Y                   Z               Mass
    ------------   -----------------  -----------------  -----------------  -----------------
      Gh(BR)          0.000000000000     0.000000000000     0.000000000000    78.918337600000
         O           -0.944159000000     0.763135000000    -3.171296000000    15.994914619570
         H           -0.418125000000     0.642488000000    -2.380292000000     1.007825032230
         H           -1.515592000000     1.518947000000    -2.946457000000     1.007825032230
      Gh(O)           0.266373000000    -2.666671000000    -2.063433000000    15.994914619570
      Gh(H)          -0.507967000000    -3.216325000000    -2.144357000000     1.007825032230
      Gh(H)           0.169069000000    -1.929715000000    -1.427717000000     1.007825032230
      Gh(O)           2.278924000000     0.586830000000    -2.040328000000    15.994914619570
      Gh(H)           1.783721000000    -0.048625000000    -1.465647000000     1.007825032230
      Gh(H)           2.356833000000     0.210882000000    -2.962479000000     1.007825032230
      Gh(O)          -0.660034000000     3.338372000000    -0.252519000000    15.994914619570
      Gh(H)          -0.523899000000     2.351649000000    -0.216782000000     1.007825032230
      Gh(H)          -0.034580000000     3.514831000000    -0.970765000000     1.007825032230

  Charge       = 0
  Multiplicity = 1
  Basis Set: AUG-CC-PVTZ
    Blend: AUG-CC-PVTZ
  Basis Set: (AUG-CC-PVTZ AUX)
    Blend: AUG-CC-PVTZ-JKFIT

    Orbital Energies [Eh]
    ---------------------

    Doubly Occupied:

       1A    -20.569136     2A     -1.350147     3A     -0.710762
       4A     -0.585672     5A     -0.510016

  @DF-RHF Final Energy:   -76.05977474339537

   => Energetics <=

    Nuclear Repulsion Energy =              9.1176097349882710
    One-Electron Energy =                -122.9032982630488107
    Two-Electron Energy =                  37.7259137846651740
    Total Energy =                        -76.0597747433953657
 Dipole X            :         17.9001837          -17.9278110           -0.0276273
 Dipole Y            :        -15.2043031           15.6214494            0.4171463
 Dipole Z            :         58.6804531          -58.0091440            0.6713091
 Magnitude           :                                                    0.7908414
  Basis Set: (AUG-CC-PVTZ AUX)
    Blend: AUG-CC-PVTZ-RI
	 Reference Energy          =     -76.0597747433953657 [Eh]
	 Singles Energy            =      -0.0000000000000000 [Eh]
	 Same-Spin Energy          =      -0.0685676954724616 [Eh]
	 Opposite-Spin Energy      =      -0.2163317968341394 [Eh]
	 Correlation Energy        =      -0.2848994923066009 [Eh]
	 Total Energy              =     -76.3446742357019730 [Eh]

	 ================> DF-SCS-MP2 Energies <==================
	-----------------------------------------------------------
	 SCS Same-Spin Scale       =       0.3333333333333333 [-]
	 SCS Opposite-Spin Scale   =       1.2000000000000000 [-]
	 SCS Same-Spin Energy      =      -0.0228558984908205 [Eh]
	 SCS Opposite-Spin Energy  =      -0.2595981562009672 [Eh]
	 SCS Correlation Energy    =      -0.2824540546917877 [Eh]
	 SCS Total Energy          =     -76.3422287980871488 [Eh]
	-----------------------------------------------------------

*** Psi4 exiting successfully. Buy a developer a beer!
