                               Psi4 1.8.2 release

  ==> Input File <==

--------------------------------------------------------------------------
MEMORY 60 GB

molecule dimer {
0 1
Gh(Br)     0.000000     0.000000     0.000000
Gh(O)     -2.719380    -0.917874     1.513340
Gh(H)     -2.094607    -0.347929     1.035762
Gh(H)     -3.561100    -0.822273     1.115577
Gh(O)     -2.060809     2.593717    -0.859092
Gh(H)     -1.688050     3.070376    -1.592003
Gh(H)     -1.437597     1.870275    -0.673543
O         -0.594218    -3.396631     0.803846
H         -0.374269    -2.975147     1.697640
H         -0.649522    -2.561829     0.293830

units ang
no_reorient
no_com
symmetry c1
}

set {
basis        aug-cc-pVTZ
scf_type     df
}

energy("mp2")
--------------------------------------------------------------------------

    Molecular point group: c1

    Geometry (in Angstrom), charge = 0, multiplicity = 1:

       Center              X                  Y                   Z               Mass
    ------------   -----------------  -----------------  -----------------  -----------------
      Gh(BR)          0.000000000000     0.000000000000     0.000000000000    78.918337600000
      Gh(O)          -2.719380000000    -0.917874000000     1.513340000000    15.994914619570
      Gh(H)          -2.094607000000    -0.347929000000     1.035762000000     1.007825032230
      Gh(H)          -3.561100000000    -0.822273000000     1.115577000000     1.007825032230
      Gh(O)          -2.060809000000     2.593717000000    -0.859092000000    15.994914619570
      Gh(H)          -1.688050000000     3.070376000000    -1.592003000000     1.007825032230
      Gh(H)          -1.437597000000     1.870275000000    -0.673543000000     1.007825032230
         O           -0.594218000000    -3.396631000000     0.803846000000    15.994914619570
         H           -0.374269000000    -2.975147000000     1.697640000000     1.007825032230
         H           -0.649522000000    -2.561829000000     0.293830000000     1.007825032230

  Charge       = 0
  Multiplicity = 1
  Basis Set: AUG-CC-PVTZ
    Blend: AUG-CC-PVTZ
  Basis Set: (AUG-CC-PVTZ AUX)
    Blend: AUG-CC-PVTZ-JKFIT

    Orbital Energies [Eh]
    ---------------------

    Doubly Occupied:

       1A    -20.577225     2A     -1.340010     3A     -0.682482
       4A     -0.592376     5A     -0.509685

  @DF-RHF Final Energy:   -76.05338856405083

   => Energetics <=

    Nuclear Repulsion Energy =              8.8576245206769570
    One-Electron Energy =                -122.4184667781628093
    Two-Electron Energy =                  37.5074536934350391
    Total Energy =                        -76.0533885640508203
 Dipole X            :         11.0214290          -10.9179588            0.1034702
 Dipole Y            :         62.6141940          -61.8129869            0.8012071
 Dipole Z            :        -15.6782869           15.9157232            0.2374363
 Magnitude           :                                                    0.8420302
  Basis Set: (AUG-CC-PVTZ AUX)
    Blend: AUG-CC-PVTZ-RI
	 Reference Energy          =     -76.0533885640508345 [Eh]
	 Singles Energy            =      -0.0000000000000000 [Eh]
	 Same-Spin Energy          =      -0.0692814896811418 [Eh]
	 Opposite-Spin Energy      =      -0.2182011161786022 [Eh]
	 Correlation Energy        =      -0.2874826058597440 [Eh]
	 Total Energy              =     -76.3408711699105851 [Eh]

	 ================> DF-SCS-MP2 Energies <==================
	-----------------------------------------------------------
	 SCS Same-Spin Scale       =       0.3333333333333333 [-]
	 SCS Opposite-Spin Scale   =       1.2000000000000000 [-]
	 SCS Same-Spin Energy      =      -0.0230938298937139 [Eh]
	 SCS Opposite-Spin Energy  =      -0.2618413394143226 [Eh]
	 SCS Correlation Energy    =      -0.2849351693080366 [Eh]
	 SCS Total Energy          =     -76.3383237333588767 [Eh]
	-----------------------------------------------------------

*** Psi4 exiting successfully. Buy a developer a beer!
