                               Psi4 1.9 release

  ==> Input File <==

--------------------------------------------------------------------------
MEMORY 60 GB

molecule dimer {
-1 1
Br     0.000000     0.000000     0.000000
--
0 1
O     -0.379237     2.882694    -2.014268
H      0.562370     3.245775    -1.893921
H     -0.429436     2.146345    -1.405238
O      0.265547    -2.152641    -2.556446
H      0.109230    -1.512354    -1.853273
H     -0.395724    -2.804868    -2.310221
O      2.476012     1.824756     1.189733
H      1.692344     1.651069     0.621015
H      2.748789     2.618981     0.811553
O      2.562109    -2.156767    -0.903197
H      2.064666    -2.905687    -1.220072
H      1.839878    -1.556832    -0.648916

units ang
no_reorient
no_com
symmetry c1
}

set {
basis        aug-cc-pVTZ
scf_type     df
}

energy("mp2", bsse_type="cp")
--------------------------------------------------------------------------

                               Psi4 1.9 release
    Molecular point group: c1
  Charge       = 0
  Multiplicity = 1
  Basis Set: AUG-CC-PVTZ
    Blend: AUG-CC-PVTZ
  Basis Set: (AUG-CC-PVTZ AUX)
    Blend: AUG-CC-PVTZ-JKFIT
  @DF-RHF Final Energy:  -304.22058926531633
    Total Energy =                       -304.2205892653163346
 Dipole X            :        -91.0027957           89.9274648           -1.0753308
 Dipole Y            :         -7.6433312            7.6850721            0.0417409
 Dipole Z            :         80.0121391          -79.6944694            0.3176697
 Magnitude           :                                                    1.1220485
  Basis Set: (AUG-CC-PVTZ AUX)
    Blend: AUG-CC-PVTZ-RI
	 Reference Energy          =    -304.2205892653163346 [Eh]
	 Singles Energy            =      -0.0000000000000000 [Eh]
	 Same-Spin Energy          =      -0.2760397501845054 [Eh]
	 Opposite-Spin Energy      =      -0.8677873121866395 [Eh]
	 Correlation Energy        =      -1.1438270623711448 [Eh]
	 Total Energy              =    -305.3644163276874792 [Eh]
	 SCS Total Energy          =    -305.3539472900018268 [Eh]
                               Psi4 1.9 release
    Molecular point group: c1
  Multiplicity = 1
  Basis Set: AUG-CC-PVTZ
    Blend: AUG-CC-PVTZ
  Basis Set: (AUG-CC-PVTZ AUX)
    Blend: AUG-CC-PVTZ-JKFIT
  @DF-RHF Final Energy: -2572.53371979798612
    Total Energy =                      -2572.5337197979861230
  Basis Set: (AUG-CC-PVTZ AUX)
	 Singles Energy            =      -0.0000000000000000 [Eh]
	 Same-Spin Energy          =      -0.0906084823674456 [Eh]
	 Opposite-Spin Energy      =      -0.2108199054008097 [Eh]
	 Correlation Energy        =      -0.3014283877682553 [Eh]
	 Total Energy              =   -2572.8351481857544059 [Eh]
	 SCS Total Energy          =   -2572.8169065119227525 [Eh]
                               Psi4 1.9 release
    Molecular point group: c1

    Geometry (in Bohr), charge = -1, multiplicity = 1:

       Center              X                  Y                   Z               Mass
    ------------   -----------------  -----------------  -----------------  -----------------
         BR           0.000000000000     0.000000000000     0.000000000000    78.918337600000
         O           -0.716654066640     5.447502163501    -3.806414863274    15.994914619570
         H            1.062725281174     6.133625814858    -3.578991993253     1.007825032230
         H           -0.811516428412     4.056004220746    -2.655514961086     1.007825032230
         O            0.501811103437    -4.067901936432    -4.830982794522    15.994914619570
         H            0.206414784684    -2.857934864741    -3.502178405706     1.007825032230
         H           -0.747809981271    -5.300432338061    -4.365684979281     1.007825032230
         O            4.678984563347     3.448289085786     2.248269532419    15.994914619570
         H            3.198066670062     3.120068224234     1.173548269801     1.007825032230
         H            5.194458386671     4.949156817778     1.533612906294     1.007825032230
         O            4.841684313571    -4.075698946425    -1.706794967335    15.994914619570
         H            3.901653280545    -5.490952636303    -2.305601933340     1.007825032230
         H            3.476865524255    -2.941986103349    -1.226273518428     1.007825032230

  Charge       = -1
  Multiplicity = 1
  Basis Set: AUG-CC-PVTZ
    Blend: AUG-CC-PVTZ
  Basis Set: (AUG-CC-PVTZ AUX)
    Blend: AUG-CC-PVTZ-JKFIT

    Orbital Energies [Eh]
    ---------------------

    Doubly Occupied:

       1A   -489.785542     2A    -64.925936     3A    -58.280461
       4A    -58.280415     5A    -58.280394     6A    -20.434178
       7A    -20.424220     8A    -20.420966     9A    -20.398535
      10A     -9.598260    11A     -7.206010    12A     -7.205641
      13A     -7.205545    14A     -2.947667    15A     -2.947562
      16A     -2.947414    17A     -2.946978    18A     -2.946972
      19A     -1.217372    20A     -1.216089    21A     -1.203735
      22A     -1.186121    23A     -0.763600    24A     -0.567554
      25A     -0.566612    26A     -0.563377    27A     -0.541306
      28A     -0.458506    29A     -0.455485    30A     -0.446734
      31A     -0.435941    32A     -0.373243    33A     -0.370826
      34A     -0.368062    35A     -0.340602    36A     -0.216089
      37A     -0.209707    38A     -0.209185

  @DF-RHF Final Energy: -2876.80543985353142

   => Energetics <=

    Nuclear Repulsion Energy =            331.8911030400835216
    One-Electron Energy =               -4679.6074018056560817
    Two-Electron Energy =                1470.9108589120414763
    Total Energy =                      -2876.8054398535314249
 Dipole X            :        -91.4553435           89.9274648           -1.5278787
 Dipole Y            :         -7.6573446            7.6850721            0.0277275
 Dipole Z            :         80.5648435          -79.6944694            0.8703742
 Magnitude           :                                                    1.7586169
  Basis Set: (AUG-CC-PVTZ AUX)
    Blend: AUG-CC-PVTZ-RI
	 Reference Energy          =   -2876.8054398535314249 [Eh]
	 Singles Energy            =      -0.0000000000000000 [Eh]
	 Same-Spin Energy          =      -0.3746063195013952 [Eh]
	 Opposite-Spin Energy      =      -1.0845078843698943 [Eh]
	 Correlation Energy        =      -1.4591142038712897 [Eh]
	 Total Energy              =   -2878.2645540574026199 [Eh]

	 ================> DF-SCS-MP2 Energies <==================
	-----------------------------------------------------------
	 SCS Same-Spin Scale       =       0.3333333333333333 [-]
	 SCS Opposite-Spin Scale   =       1.2000000000000000 [-]
	 SCS Same-Spin Energy      =      -0.1248687731671317 [Eh]
	 SCS Opposite-Spin Energy  =      -1.3014094612438731 [Eh]
	 SCS Correlation Energy    =      -1.4262782344110048 [Eh]
	 SCS Total Energy          =   -2878.2317180879422267 [Eh]
	-----------------------------------------------------------

*** Psi4 exiting successfully. Buy a developer a beer!
