                               Psi4 1.9 release

  ==> Input File <==

--------------------------------------------------------------------------
MEMORY 60 GB

molecule dimer {
-1 1
Br     0.000000     0.000000     0.000000
--
0 1
O      2.005998     2.469794    -1.548747
H      2.809869     2.228331    -1.965091
H      1.560168     1.628217    -1.200553
O      0.529123     3.007364     1.321262
H      1.470211     3.161375     1.107058
H      0.395327     2.119154     0.958626
O     -1.660321     0.052137    -3.166204
H     -2.229712     0.623741    -2.655572
H     -1.973837     0.013299    -4.074220
O      2.794752     0.356441     1.755247
H      3.260746    -0.479172     1.544679
H      1.859188     0.213200     1.467202

units ang
no_reorient
no_com
symmetry c1
}

set {
basis        aug-cc-pVTZ
scf_type     df
}

energy("mp2", bsse_type="cp")
--------------------------------------------------------------------------

                               Psi4 1.9 release
    Molecular point group: c1
  Charge       = 0
  Multiplicity = 1
  Basis Set: AUG-CC-PVTZ
    Blend: AUG-CC-PVTZ
  Basis Set: (AUG-CC-PVTZ AUX)
    Blend: AUG-CC-PVTZ-JKFIT
  @DF-RHF Final Energy:  -304.23017293666123
    Total Energy =                       -304.2301729366612335
 Dipole X            :        -69.0477925           68.9908319           -0.0569606
 Dipole Y            :       -108.3710859          106.9472227           -1.4238632
 Dipole Z            :         32.8271271          -33.8741099           -1.0469828
 Magnitude           :                                                    1.7682771
  Basis Set: (AUG-CC-PVTZ AUX)
    Blend: AUG-CC-PVTZ-RI
	 Reference Energy          =    -304.2301729366612335 [Eh]
	 Singles Energy            =      -0.0000000000000000 [Eh]
	 Same-Spin Energy          =      -0.2756206200139149 [Eh]
	 Opposite-Spin Energy      =      -0.8667787984663778 [Eh]
	 Correlation Energy        =      -1.1423994184802928 [Eh]
	 Total Energy              =    -305.3725723551415285 [Eh]
	 SCS Total Energy          =    -305.3621810348255394 [Eh]
                               Psi4 1.9 release
    Molecular point group: c1
  Multiplicity = 1
  Basis Set: AUG-CC-PVTZ
    Blend: AUG-CC-PVTZ
  Basis Set: (AUG-CC-PVTZ AUX)
    Blend: AUG-CC-PVTZ-JKFIT
  @DF-RHF Final Energy: -2572.53371341355842
    Total Energy =                      -2572.5337134135579618
  Basis Set: (AUG-CC-PVTZ AUX)
	 Singles Energy            =      -0.0000000000000000 [Eh]
	 Same-Spin Energy          =      -0.0900454033378666 [Eh]
	 Opposite-Spin Energy      =      -0.2094405914688520 [Eh]
	 Correlation Energy        =      -0.2994859948067186 [Eh]
	 Total Energy              =   -2572.8331994083650898 [Eh]
	 SCS Total Energy          =   -2572.8150572577669664 [Eh]
                               Psi4 1.9 release
    Molecular point group: c1

    Geometry (in Bohr), charge = -1, multiplicity = 1:

       Center              X                  Y                   Z               Mass
    ------------   -----------------  -----------------  -----------------  -----------------
         BR           0.000000000000     0.000000000000     0.000000000000    78.918337600000
         O            3.790786828216     4.667234246299    -2.926707667624    15.994914619570
         H            5.309882858414     4.210935306868    -3.713483801602     1.007825032230
         H            2.948290229703     3.076884202815    -2.268716369097     1.007825032230
         O            0.999897556681     5.683094319561     2.496823319975    15.994914619570
         H            2.778296136635     5.974132929869     2.092036424997     1.007825032230
         H            0.747059759999     4.004620677668     1.811540596743     1.007825032230
         O           -3.137551970346     0.098524651003    -5.983258417329    15.994914619570
         H           -4.213545018647     1.178699663219    -5.018303786434     1.007825032230
         H           -3.730011346295     0.025131467742    -7.699159974863     1.007825032230
         O            5.281315868576     0.673575869884     3.316936112531    15.994914619570
         H            6.161916904682    -0.905503846988     2.919020261746     1.007825032230
         H            3.513356135738     0.402889609948     2.772609950724     1.007825032230

  Charge       = -1
  Multiplicity = 1
  Basis Set: AUG-CC-PVTZ
    Blend: AUG-CC-PVTZ
  Basis Set: (AUG-CC-PVTZ AUX)
    Blend: AUG-CC-PVTZ-JKFIT

    Orbital Energies [Eh]
    ---------------------

    Doubly Occupied:

       1A   -489.765452     2A    -64.905819     3A    -58.260317
       4A    -58.260300     5A    -58.260283     6A    -20.444403
       7A    -20.413255     8A    -20.409681     9A    -20.385851
      10A     -9.578176    11A     -7.185766    12A     -7.185596
      13A     -7.185520    14A     -2.927386    15A     -2.927347
      16A     -2.927262    17A     -2.927065    18A     -2.927061
      19A     -1.228465    20A     -1.191991    21A     -1.182203
      22A     -1.167092    23A     -0.742488    24A     -0.605169
      25A     -0.564280    26A     -0.548833    27A     -0.524363
      28A     -0.451427    29A     -0.426068    30A     -0.425291
      31A     -0.413637    32A     -0.386971    33A     -0.357420
      34A     -0.350643    35A     -0.329833    36A     -0.193249
      37A     -0.189823    38A     -0.188562

  @DF-RHF Final Energy: -2876.79613138107379

   => Energetics <=

    Nuclear Repulsion Energy =            328.9761290732564589
    One-Electron Energy =               -4674.8558159121712379
    Two-Electron Energy =                1469.0835554578407027
    Total Energy =                      -2876.7961313810737920
 Dipole X            :        -69.7572631           68.9908319           -0.7664312
 Dipole Y            :       -109.0204228          106.9472227           -2.0732001
 Dipole Z            :         32.6471522          -33.8741099           -1.2269577
 Magnitude           :                                                    2.5280428
  Basis Set: (AUG-CC-PVTZ AUX)
    Blend: AUG-CC-PVTZ-RI
	 Reference Energy          =   -2876.7961313810737920 [Eh]
	 Singles Energy            =      -0.0000000000000000 [Eh]
	 Same-Spin Energy          =      -0.3733769869320953 [Eh]
	 Opposite-Spin Energy      =      -1.0825445156157172 [Eh]
	 Correlation Energy        =      -1.4559215025478125 [Eh]
	 Total Energy              =   -2878.2520528836216727 [Eh]

	 ================> DF-SCS-MP2 Energies <==================
	-----------------------------------------------------------
	 SCS Same-Spin Scale       =       0.3333333333333333 [-]
	 SCS Opposite-Spin Scale   =       1.2000000000000000 [-]
	 SCS Same-Spin Energy      =      -0.1244589956440318 [Eh]
	 SCS Opposite-Spin Energy  =      -1.2990534187388605 [Eh]
	 SCS Correlation Energy    =      -1.4235124143828923 [Eh]
	 SCS Total Energy          =   -2878.2196437954567045 [Eh]
	-----------------------------------------------------------

*** Psi4 exiting successfully. Buy a developer a beer!
