                               Psi4 1.8.2 release

  ==> Input File <==

--------------------------------------------------------------------------
MEMORY 60 GB

molecule dimer {
-1 1
Br         0.000000     0.000000     0.000000
O          2.794095    -1.387479     0.567346
H          1.955440    -0.895211     0.196524
H          3.481853    -0.702595     0.669128
O          2.335776     1.864406     0.831723
H          1.699945     1.187957     0.609791
H          1.817179     2.598588     1.156693
O         -0.357779     0.030054     3.245802
H         -0.127128     0.352128     2.389975
H         -0.011989     0.692795     3.899278

units ang
no_reorient
no_com
symmetry c1
}

set {
basis        aug-cc-pVTZ
scf_type     df
}

energy("mp2")
--------------------------------------------------------------------------

    Molecular point group: c1

    Geometry (in Angstrom), charge = -1, multiplicity = 1:

       Center              X                  Y                   Z               Mass
    ------------   -----------------  -----------------  -----------------  -----------------
         BR           0.000000000000     0.000000000000     0.000000000000    78.918337600000
         O            2.794095000000    -1.387479000000     0.567346000000    15.994914619570
         H            1.955440000000    -0.895211000000     0.196524000000     1.007825032230
         H            3.481853000000    -0.702595000000     0.669128000000     1.007825032230
         O            2.335776000000     1.864406000000     0.831723000000    15.994914619570
         H            1.699945000000     1.187957000000     0.609791000000     1.007825032230
         H            1.817179000000     2.598588000000     1.156693000000     1.007825032230
         O           -0.357779000000     0.030054000000     3.245802000000    15.994914619570
         H           -0.127128000000     0.352128000000     2.389975000000     1.007825032230
         H           -0.011989000000     0.692795000000     3.899278000000     1.007825032230

  Charge       = -1
  Multiplicity = 1
  Basis Set: AUG-CC-PVTZ
    Blend: AUG-CC-PVTZ
  Basis Set: (AUG-CC-PVTZ AUX)
    Blend: AUG-CC-PVTZ-JKFIT

    Orbital Energies [Eh]
    ---------------------

    Doubly Occupied:

       1A   -489.773435     2A    -64.914124     3A    -58.268606
       4A    -58.268592     5A    -58.268537     6A    -20.413748
       7A    -20.403690     8A    -20.388751     9A     -9.586775
      10A     -7.194525    11A     -7.194334    12A     -7.193939
      13A     -2.936219    14A     -2.936202    15A     -2.935703
      16A     -2.935545    17A     -2.935434    18A     -1.198366
      19A     -1.194893    20A     -1.150860    21A     -0.757946
      22A     -0.567289    23A     -0.564363    24A     -0.518405
      25A     -0.435987    26A     -0.428445    27A     -0.400535
      28A     -0.357832    29A     -0.354366    30A     -0.327132
      31A     -0.202960    32A     -0.201616    33A     -0.196298

  @DF-RHF Final Energy: -2800.73029026139466

   => Energetics <=

    Nuclear Repulsion Energy =            249.3415352974096493
    One-Electron Energy =               -4409.3327395643327691
    Two-Electron Energy =                1359.2609140055280932
    Total Energy =                      -2800.7302902613946571
 Dipole X            :        -90.0887044           88.8020781           -1.2866263
 Dipole Y            :        -12.5369134           13.7751775            1.2382641
 Dipole Z            :        -87.8538364           87.0792545           -0.7745820
 Magnitude           :                                                    1.9464538
  Basis Set: (AUG-CC-PVTZ AUX)
    Blend: AUG-CC-PVTZ-RI
	 Reference Energy          =   -2800.7302902613946571 [Eh]
	 Singles Energy            =      -0.0000000000000000 [Eh]
	 Same-Spin Energy          =      -0.3069240665311835 [Eh]
	 Opposite-Spin Energy      =      -0.8700940693371152 [Eh]
	 Correlation Energy        =      -1.1770181358682987 [Eh]
	 Total Energy              =   -2801.9073083972630229 [Eh]

	 ================> DF-SCS-MP2 Energies <==================
	-----------------------------------------------------------
	 SCS Same-Spin Scale       =       0.3333333333333333 [-]
	 SCS Opposite-Spin Scale   =       1.2000000000000000 [-]
	 SCS Same-Spin Energy      =      -0.1023080221770612 [Eh]
	 SCS Opposite-Spin Energy  =      -1.0441128832045381 [Eh]
	 SCS Correlation Energy    =      -1.1464209053815992 [Eh]
	 SCS Total Energy          =   -2801.8767111667762038 [Eh]
	-----------------------------------------------------------

*** Psi4 exiting successfully. Buy a developer a beer!
