                               Psi4 1.8.2 release

  ==> Input File <==

--------------------------------------------------------------------------
MEMORY 60 GB

molecule dimer {
0 1
Gh(Br)     0.000000     0.000000     0.000000
Gh(O)      0.691227    -2.051459    -2.490181
Gh(H)      1.361630    -1.712435    -3.078251
Gh(H)      0.625590    -1.299494    -1.855394
O         -2.617496     0.305919     2.221716
H         -1.890149     0.159326     1.576929
H         -3.420818     0.158676     1.729850
Gh(O)      2.189098    -1.640069     1.867177
Gh(H)      1.995566    -1.634790     2.835847
Gh(H)      1.377796    -1.359444     1.357208
Gh(O)     -0.250879     1.231325    -3.139368
Gh(H)     -0.559172     0.860686    -2.271953
Gh(H)     -0.247851     2.149150    -2.941606
Gh(O)      2.739667     2.233295    -0.788962
Gh(H)      2.626840     1.471708    -0.259006
Gh(H)      3.398173     1.947219    -1.438041

units ang
no_reorient
no_com
symmetry c1
}

set {
basis        aug-cc-pVTZ
scf_type     df
}

energy("mp2")
--------------------------------------------------------------------------

    Molecular point group: c1

    Geometry (in Angstrom), charge = 0, multiplicity = 1:

       Center              X                  Y                   Z               Mass
    ------------   -----------------  -----------------  -----------------  -----------------
      Gh(BR)          0.000000000000     0.000000000000     0.000000000000    78.918337600000
      Gh(O)           0.691227000000    -2.051459000000    -2.490181000000    15.994914619570
      Gh(H)           1.361630000000    -1.712435000000    -3.078251000000     1.007825032230
      Gh(H)           0.625590000000    -1.299494000000    -1.855394000000     1.007825032230
         O           -2.617496000000     0.305919000000     2.221716000000    15.994914619570
         H           -1.890149000000     0.159326000000     1.576929000000     1.007825032230
         H           -3.420818000000     0.158676000000     1.729850000000     1.007825032230
      Gh(O)           2.189098000000    -1.640069000000     1.867177000000    15.994914619570
      Gh(H)           1.995566000000    -1.634790000000     2.835847000000     1.007825032230
      Gh(H)           1.377796000000    -1.359444000000     1.357208000000     1.007825032230
      Gh(O)          -0.250879000000     1.231325000000    -3.139368000000    15.994914619570
      Gh(H)          -0.559172000000     0.860686000000    -2.271953000000     1.007825032230
      Gh(H)          -0.247851000000     2.149150000000    -2.941606000000     1.007825032230
      Gh(O)           2.739667000000     2.233295000000    -0.788962000000    15.994914619570
      Gh(H)           2.626840000000     1.471708000000    -0.259006000000     1.007825032230
      Gh(H)           3.398173000000     1.947219000000    -1.438041000000     1.007825032230

  Charge       = 0
  Multiplicity = 1
  Basis Set: AUG-CC-PVTZ
    Blend: AUG-CC-PVTZ
  Basis Set: (AUG-CC-PVTZ AUX)
    Blend: AUG-CC-PVTZ-JKFIT

    Orbital Energies [Eh]
    ---------------------

    Doubly Occupied:

       1A    -20.568772     2A     -1.347721     3A     -0.713207
       4A     -0.581426     5A     -0.509271

  @DF-RHF Final Energy:   -76.05930698928933

   => Energetics <=

    Nuclear Repulsion Energy =              9.0910860420138491
    One-Electron Energy =                -122.8599904036528585
    Two-Electron Energy =                  37.7095973723496911
    Total Energy =                        -76.0593069892893254
 Dipole X            :         49.5519429          -49.6070777           -0.0551348
 Dipole Y            :         -5.4205068            5.2257617           -0.1947451
 Dipole Z            :        -40.5890910           39.8363848           -0.7527062
 Magnitude           :                                                    0.7794435
  Basis Set: (AUG-CC-PVTZ AUX)
    Blend: AUG-CC-PVTZ-RI
	 Reference Energy          =     -76.0593069892893254 [Eh]
	 Singles Energy            =      -0.0000000000000000 [Eh]
	 Same-Spin Energy          =      -0.0685510731590813 [Eh]
	 Opposite-Spin Energy      =      -0.2162469399168775 [Eh]
	 Correlation Energy        =      -0.2847980130759589 [Eh]
	 Total Energy              =     -76.3441050023652821 [Eh]

	 ================> DF-SCS-MP2 Energies <==================
	-----------------------------------------------------------
	 SCS Same-Spin Scale       =       0.3333333333333333 [-]
	 SCS Opposite-Spin Scale   =       1.2000000000000000 [-]
	 SCS Same-Spin Energy      =      -0.0228503577196938 [Eh]
	 SCS Opposite-Spin Energy  =      -0.2594963279002531 [Eh]
	 SCS Correlation Energy    =      -0.2823466856199469 [Eh]
	 SCS Total Energy          =     -76.3416536749092671 [Eh]
	-----------------------------------------------------------

*** Psi4 exiting successfully. Buy a developer a beer!
