                               Psi4 1.8.2 release

  ==> Input File <==

--------------------------------------------------------------------------
MEMORY 60 GB

molecule dimer {
-1 1
Br         0.000000     0.000000     0.000000
O         -1.556110    -2.946603    -0.307399
H         -1.448311    -3.834352    -0.530023
H         -0.696136    -2.475940    -0.482361
O         -0.086996     0.125946     3.353392
H         -0.789442     0.773124     3.412034
H          0.173565     0.233040     2.501182
O          1.506198     2.404300     1.895924
H          1.138172     1.617521     1.469830
H          2.068506     2.028144     2.516707
O          3.466933     0.167256    -0.603178
H          2.462198     0.362718    -0.327444
H          3.349089    -0.691950    -1.088854
O          1.507524     0.971719    -2.962000
H          1.482423     1.837733    -3.370919
H          1.113174     1.149479    -2.095101
O         -3.321768     0.154397     0.868399
H         -2.339922     0.333567     0.860598
H         -3.394288    -0.551032     0.257363

units ang
no_reorient
no_com
symmetry c1
}

set {
basis        aug-cc-pVTZ
scf_type     df
}

energy("mp2")
--------------------------------------------------------------------------

    Molecular point group: c1

    Geometry (in Angstrom), charge = -1, multiplicity = 1:

       Center              X                  Y                   Z               Mass
    ------------   -----------------  -----------------  -----------------  -----------------
         BR           0.000000000000     0.000000000000     0.000000000000    78.918337600000
         O           -1.556110000000    -2.946603000000    -0.307399000000    15.994914619570
         H           -1.448311000000    -3.834352000000    -0.530023000000     1.007825032230
         H           -0.696136000000    -2.475940000000    -0.482361000000     1.007825032230
         O           -0.086996000000     0.125946000000     3.353392000000    15.994914619570
         H           -0.789442000000     0.773124000000     3.412034000000     1.007825032230
         H            0.173565000000     0.233040000000     2.501182000000     1.007825032230
         O            1.506198000000     2.404300000000     1.895924000000    15.994914619570
         H            1.138172000000     1.617521000000     1.469830000000     1.007825032230
         H            2.068506000000     2.028144000000     2.516707000000     1.007825032230
         O            3.466933000000     0.167256000000    -0.603178000000    15.994914619570
         H            2.462198000000     0.362718000000    -0.327444000000     1.007825032230
         H            3.349089000000    -0.691950000000    -1.088854000000     1.007825032230
         O            1.507524000000     0.971719000000    -2.962000000000    15.994914619570
         H            1.482423000000     1.837733000000    -3.370919000000     1.007825032230
         H            1.113174000000     1.149479000000    -2.095101000000     1.007825032230
         O           -3.321768000000     0.154397000000     0.868399000000    15.994914619570
         H           -2.339922000000     0.333567000000     0.860598000000     1.007825032230
         H           -3.394288000000    -0.551032000000     0.257363000000     1.007825032230

  Charge       = -1
  Multiplicity = 1
  Basis Set: AUG-CC-PVTZ
    Blend: AUG-CC-PVTZ
  Basis Set: (AUG-CC-PVTZ AUX)
    Blend: AUG-CC-PVTZ-JKFIT

    Orbital Energies [Eh]
    ---------------------

    Doubly Occupied:

       1A   -489.807755     2A    -64.948319     3A    -58.302811
       4A    -58.302809     5A    -58.302771     6A    -20.440783
       7A    -20.435761     8A    -20.429605     9A    -20.425898
      10A    -20.422339    11A    -20.417813    12A     -9.620710
      13A     -7.228345    14A     -7.228267    15A     -7.228019
      16A     -2.969993    17A     -2.969987    18A     -2.969700
      19A     -2.969610    20A     -2.969536    21A     -1.237147
      22A     -1.229127    23A     -1.227412    24A     -1.221257
      25A     -1.202813    26A     -1.177956    27A     -0.788995
      28A     -0.601614    29A     -0.594035    30A     -0.583228
      31A     -0.579369    32A     -0.560942    33A     -0.529915
      34A     -0.467555    35A     -0.460204    36A     -0.458690
      37A     -0.457165    38A     -0.444579    39A     -0.438151
      40A     -0.386941    41A     -0.386290    42A     -0.383726
      43A     -0.368204    44A     -0.362675    45A     -0.356421
      46A     -0.238065    47A     -0.235713    48A     -0.232099

  @DF-RHF Final Energy: -3028.92636680278702

   => Energetics <=

    Nuclear Repulsion Energy =            556.5738518414798364
    One-Electron Energy =               -5339.7981853572937325
    Two-Electron Energy =                1754.2979667130264261
    Total Energy =                      -3028.9263668027870153
 Dipole X            :        -28.9735492           28.8093963           -0.1641529
 Dipole Y            :        -15.5777483           14.7364094           -0.8413389
 Dipole Z            :        -40.9905295           39.8432048           -1.1473247
 Magnitude           :                                                    1.4321841
  Basis Set: (AUG-CC-PVTZ AUX)
    Blend: AUG-CC-PVTZ-RI
	 Reference Energy          =   -3028.9263668027870153 [Eh]
	 Singles Energy            =      -0.0000000000000000 [Eh]
	 Same-Spin Energy          =      -0.5159292896112159 [Eh]
	 Opposite-Spin Energy      =      -1.5217368941385938 [Eh]
	 Correlation Energy        =      -2.0376661837498098 [Eh]
	 Total Energy              =   -3030.9640329865369495 [Eh]

	 ================> DF-SCS-MP2 Energies <==================
	-----------------------------------------------------------
	 SCS Same-Spin Scale       =       0.3333333333333333 [-]
	 SCS Opposite-Spin Scale   =       1.2000000000000000 [-]
	 SCS Same-Spin Energy      =      -0.1719764298704053 [Eh]
	 SCS Opposite-Spin Energy  =      -1.8260842729663125 [Eh]
	 SCS Correlation Energy    =      -1.9980607028367179 [Eh]
	 SCS Total Energy          =   -3030.9244275056239530 [Eh]
	-----------------------------------------------------------

*** Psi4 exiting successfully. Buy a developer a beer!
