                               Psi4 1.8.2 release

  ==> Input File <==

--------------------------------------------------------------------------
MEMORY 60 GB

molecule dimer {
0 1
Gh(Br)     0.000000     0.000000     0.000000
Gh(O)      0.341150     0.776241    -3.513535
Gh(H)      0.559687     1.745389    -3.643795
Gh(H)      0.259971     0.595020    -2.572308
Gh(O)     -3.228866     0.199860     1.064817
Gh(H)     -2.554272    -0.465074     0.898206
Gh(H)     -4.003385    -0.263674     1.419464
O         -1.501421     2.694653    -1.037470
H         -1.857259     2.772058    -1.919008
H         -1.054329     1.848031    -0.932673
Gh(O)      2.688093     2.201399    -0.380651
Gh(H)      2.548789     3.054275    -0.789423
Gh(H)      1.816747     1.792628    -0.342110

units ang
no_reorient
no_com
symmetry c1
}

set {
basis        aug-cc-pVTZ
scf_type     df
}

energy("mp2")
--------------------------------------------------------------------------

    Molecular point group: c1

    Geometry (in Angstrom), charge = 0, multiplicity = 1:

       Center              X                  Y                   Z               Mass
    ------------   -----------------  -----------------  -----------------  -----------------
      Gh(BR)          0.000000000000     0.000000000000     0.000000000000    78.918337600000
      Gh(O)           0.341150000000     0.776241000000    -3.513535000000    15.994914619570
      Gh(H)           0.559687000000     1.745389000000    -3.643795000000     1.007825032230
      Gh(H)           0.259971000000     0.595020000000    -2.572308000000     1.007825032230
      Gh(O)          -3.228866000000     0.199860000000     1.064817000000    15.994914619570
      Gh(H)          -2.554272000000    -0.465074000000     0.898206000000     1.007825032230
      Gh(H)          -4.003385000000    -0.263674000000     1.419464000000     1.007825032230
         O           -1.501421000000     2.694653000000    -1.037470000000    15.994914619570
         H           -1.857259000000     2.772058000000    -1.919008000000     1.007825032230
         H           -1.054329000000     1.848031000000    -0.932673000000     1.007825032230
      Gh(O)           2.688093000000     2.201399000000    -0.380651000000    15.994914619570
      Gh(H)           2.548789000000     3.054275000000    -0.789423000000     1.007825032230
      Gh(H)           1.816747000000     1.792628000000    -0.342110000000     1.007825032230

  Charge       = 0
  Multiplicity = 1
  Basis Set: AUG-CC-PVTZ
    Blend: AUG-CC-PVTZ
  Basis Set: (AUG-CC-PVTZ AUX)
    Blend: AUG-CC-PVTZ-JKFIT

    Orbital Energies [Eh]
    ---------------------

    Doubly Occupied:

       1A    -20.564723     2A     -1.348938     3A     -0.727678
       4A     -0.573612     5A     -0.508536

  @DF-RHF Final Energy:   -76.06008374945257

   => Energetics <=

    Nuclear Repulsion Energy =              9.1705446418861385
    One-Electron Energy =                -123.0142789746771399
    Two-Electron Energy =                  37.7836505833384280
    Total Energy =                        -76.0600837494525734
 Dipole X            :         28.2614760          -28.2002998            0.0611762
 Dipole Y            :        -49.9879021           49.4679523           -0.5199499
 Dipole Z            :         20.5468227          -21.0731694           -0.5263467
 Magnitude           :                                                    0.7423821
  Basis Set: (AUG-CC-PVTZ AUX)
    Blend: AUG-CC-PVTZ-RI
	 Reference Energy          =     -76.0600837494525734 [Eh]
	 Singles Energy            =      -0.0000000000000000 [Eh]
	 Same-Spin Energy          =      -0.0683456921394641 [Eh]
	 Opposite-Spin Energy      =      -0.2156501010745160 [Eh]
	 Correlation Energy        =      -0.2839957932139800 [Eh]
	 Total Energy              =     -76.3440795426665488 [Eh]

	 ================> DF-SCS-MP2 Energies <==================
	-----------------------------------------------------------
	 SCS Same-Spin Scale       =       0.3333333333333333 [-]
	 SCS Opposite-Spin Scale   =       1.2000000000000000 [-]
	 SCS Same-Spin Energy      =      -0.0227818973798214 [Eh]
	 SCS Opposite-Spin Energy  =      -0.2587801212894191 [Eh]
	 SCS Correlation Energy    =      -0.2815620186692405 [Eh]
	 SCS Total Energy          =     -76.3416457681218077 [Eh]
	-----------------------------------------------------------

*** Psi4 exiting successfully. Buy a developer a beer!
