                               Psi4 1.8.2 release

  ==> Input File <==

--------------------------------------------------------------------------
MEMORY 60 GB

molecule dimer {
0 1
Gh(Br)     0.000000     0.000000     0.000000
Gh(O)      1.048984    -1.751826     2.468714
Gh(H)      0.346226    -1.574453     3.123380
Gh(H)      0.851106    -1.311539     1.644549
Gh(O)     -2.820287    -2.108900     0.576548
Gh(H)     -2.511233    -1.229356     0.357885
Gh(H)     -2.113463    -2.779649     0.548949
Gh(O)      3.567175    -0.231884     0.328854
Gh(H)      2.744073    -0.227220     0.878728
Gh(H)      4.212940     0.263403     0.897667
Gh(O)     -3.465849     0.836464    -0.133478
Gh(H)     -3.736443     0.132471    -0.710973
Gh(H)     -3.073107     1.425776    -0.768412
O         -0.059575     2.949979    -1.773779
H          0.033635     2.297669    -1.066174
H         -0.868960     2.765295    -2.220305

units ang
no_reorient
no_com
symmetry c1
}

set {
basis        aug-cc-pVTZ
scf_type     df
}

energy("mp2")
--------------------------------------------------------------------------

    Molecular point group: c1

    Geometry (in Angstrom), charge = 0, multiplicity = 1:

       Center              X                  Y                   Z               Mass
    ------------   -----------------  -----------------  -----------------  -----------------
      Gh(BR)          0.000000000000     0.000000000000     0.000000000000    78.918337600000
      Gh(O)           1.048984000000    -1.751826000000     2.468714000000    15.994914619570
      Gh(H)           0.346226000000    -1.574453000000     3.123380000000     1.007825032230
      Gh(H)           0.851106000000    -1.311539000000     1.644549000000     1.007825032230
      Gh(O)          -2.820287000000    -2.108900000000     0.576548000000    15.994914619570
      Gh(H)          -2.511233000000    -1.229356000000     0.357885000000     1.007825032230
      Gh(H)          -2.113463000000    -2.779649000000     0.548949000000     1.007825032230
      Gh(O)           3.567175000000    -0.231884000000     0.328854000000    15.994914619570
      Gh(H)           2.744073000000    -0.227220000000     0.878728000000     1.007825032230
      Gh(H)           4.212940000000     0.263403000000     0.897667000000     1.007825032230
      Gh(O)          -3.465849000000     0.836464000000    -0.133478000000    15.994914619570
      Gh(H)          -3.736443000000     0.132471000000    -0.710973000000     1.007825032230
      Gh(H)          -3.073107000000     1.425776000000    -0.768412000000     1.007825032230
         O           -0.059575000000     2.949979000000    -1.773779000000    15.994914619570
         H            0.033635000000     2.297669000000    -1.066174000000     1.007825032230
         H           -0.868960000000     2.765295000000    -2.220305000000     1.007825032230

  Charge       = 0
  Multiplicity = 1
  Basis Set: AUG-CC-PVTZ
    Blend: AUG-CC-PVTZ
  Basis Set: (AUG-CC-PVTZ AUX)
    Blend: AUG-CC-PVTZ-JKFIT

    Orbital Energies [Eh]
    ---------------------

    Doubly Occupied:

       1A    -20.565451     2A     -1.352997     3A     -0.724530
       4A     -0.579903     5A     -0.509743

  @DF-RHF Final Energy:   -76.06048626386313

   => Energetics <=

    Nuclear Repulsion Energy =              9.2133543853836901
    One-Electron Energy =                -123.0824307638087589
    Two-Electron Energy =                  37.8085901145619374
    Total Energy =                        -76.0604862638631261
 Dipole X            :          1.9955808           -2.4791789           -0.4835981
 Dipole Y            :        -54.7262786           54.1648344           -0.5614441
 Dipole Z            :         33.1990451          -33.0261974            0.1728477
 Magnitude           :                                                    0.7608962
  Basis Set: (AUG-CC-PVTZ AUX)
    Blend: AUG-CC-PVTZ-RI
	 Reference Energy          =     -76.0604862638631261 [Eh]
	 Singles Energy            =      -0.0000000000000000 [Eh]
	 Same-Spin Energy          =      -0.0682858110783841 [Eh]
	 Opposite-Spin Energy      =      -0.2153767669165713 [Eh]
	 Correlation Energy        =      -0.2836625779949554 [Eh]
	 Total Energy              =     -76.3441488418580860 [Eh]

	 ================> DF-SCS-MP2 Energies <==================
	-----------------------------------------------------------
	 SCS Same-Spin Scale       =       0.3333333333333333 [-]
	 SCS Opposite-Spin Scale   =       1.2000000000000000 [-]
	 SCS Same-Spin Energy      =      -0.0227619370261280 [Eh]
	 SCS Opposite-Spin Energy  =      -0.2584521202998856 [Eh]
	 SCS Correlation Energy    =      -0.2812140573260137 [Eh]
	 SCS Total Energy          =     -76.3417003211891370 [Eh]
	-----------------------------------------------------------

*** Psi4 exiting successfully. Buy a developer a beer!
