                               Psi4 1.8.2 release

  ==> Input File <==

--------------------------------------------------------------------------
MEMORY 60 GB

molecule dimer {
-1 1
Br         0.000000     0.000000     0.000000
Gh(O)      0.779723     2.101047     2.199835
Gh(H)      0.426021     1.474308     1.520328
Gh(H)      0.408280     2.960514     1.936831
Gh(O)      1.680523    -2.227455     1.670762
Gh(H)      1.216158    -1.563865     1.147402
Gh(H)      2.593395    -1.916082     1.738707
Gh(O)     -2.177205    -0.865000     2.509215
Gh(H)     -2.496326     0.047270     2.768170
Gh(H)     -1.471994    -0.874637     1.842706
Gh(O)      3.480100    -0.005299    -0.932052
Gh(H)      2.930060    -0.789766    -1.221807
Gh(H)      3.669445     0.562215    -1.658308

units ang
no_reorient
no_com
symmetry c1
}

set {
basis        aug-cc-pVTZ
scf_type     df
}

energy("mp2")
--------------------------------------------------------------------------

    Molecular point group: c1

    Geometry (in Angstrom), charge = -1, multiplicity = 1:

       Center              X                  Y                   Z               Mass
    ------------   -----------------  -----------------  -----------------  -----------------
         BR           0.000000000000     0.000000000000     0.000000000000    78.918337600000
      Gh(O)           0.779723000000     2.101047000000     2.199835000000    15.994914619570
      Gh(H)           0.426021000000     1.474308000000     1.520328000000     1.007825032230
      Gh(H)           0.408280000000     2.960514000000     1.936831000000     1.007825032230
      Gh(O)           1.680523000000    -2.227455000000     1.670762000000    15.994914619570
      Gh(H)           1.216158000000    -1.563865000000     1.147402000000     1.007825032230
      Gh(H)           2.593395000000    -1.916082000000     1.738707000000     1.007825032230
      Gh(O)          -2.177205000000    -0.865000000000     2.509215000000    15.994914619570
      Gh(H)          -2.496326000000     0.047270000000     2.768170000000     1.007825032230
      Gh(H)          -1.471994000000    -0.874637000000     1.842706000000     1.007825032230
      Gh(O)           3.480100000000    -0.005299000000    -0.932052000000    15.994914619570
      Gh(H)           2.930060000000    -0.789766000000    -1.221807000000     1.007825032230
      Gh(H)           3.669445000000     0.562215000000    -1.658308000000     1.007825032230

  Charge       = -1
  Multiplicity = 1
  Basis Set: AUG-CC-PVTZ
    Blend: AUG-CC-PVTZ
  Basis Set: (AUG-CC-PVTZ AUX)
    Blend: AUG-CC-PVTZ-JKFIT

    Orbital Energies [Eh]
    ---------------------

    Doubly Occupied:

       1A   -489.721999     2A    -64.861622     3A    -58.216152
       4A    -58.216152     5A    -58.216150     6A     -9.533229
       7A     -7.140564     8A     -7.140560     9A     -7.140549
      10A     -2.882272    11A     -2.882269    12A     -2.882266
      13A     -2.882244    14A     -2.882241    15A     -0.685993
      16A     -0.139339    17A     -0.139336    18A     -0.139333

  @DF-RHF Final Energy: -2572.53372004279845

   => Energetics <=

    Nuclear Repulsion Energy =              0.0000000000000000
    One-Electron Energy =               -3593.6629005496561149
    Two-Electron Energy =                1021.1291805068573240
    Total Energy =                      -2572.5337200427989046
 Dipole X            :          0.0000701            0.0000000            0.0000701
 Dipole Y            :         -0.0002955            0.0000000           -0.0002955
 Dipole Z            :          0.0003366            0.0000000            0.0003366
 Magnitude           :                                                    0.0004534
  Basis Set: (AUG-CC-PVTZ AUX)
    Blend: AUG-CC-PVTZ-RI
	 Reference Energy          =   -2572.5337200427984499 [Eh]
	 Singles Energy            =      -0.0000000000000000 [Eh]
	 Same-Spin Energy          =      -0.0906983051000951 [Eh]
	 Opposite-Spin Energy      =      -0.2111332129926936 [Eh]
	 Correlation Energy        =      -0.3018315180927887 [Eh]
	 Total Energy              =   -2572.8355515608914175 [Eh]

	 ================> DF-SCS-MP2 Energies <==================
	-----------------------------------------------------------
	 SCS Same-Spin Scale       =       0.3333333333333333 [-]
	 SCS Opposite-Spin Scale   =       1.2000000000000000 [-]
	 SCS Same-Spin Energy      =      -0.0302327683666984 [Eh]
	 SCS Opposite-Spin Energy  =      -0.2533598555912323 [Eh]
	 SCS Correlation Energy    =      -0.2835926239579307 [Eh]
	 SCS Total Energy          =   -2572.8173126667566066 [Eh]
	-----------------------------------------------------------

*** Psi4 exiting successfully. Buy a developer a beer!
