                               Psi4 1.8.2 release

  ==> Input File <==

--------------------------------------------------------------------------
MEMORY 60 GB

molecule dimer {
-1 1
Br         0.000000     0.000000     0.000000
Gh(O)      0.936162     3.028793    -0.863611
Gh(H)      0.135253     3.528226    -1.165330
Gh(H)      0.572521     2.216892    -0.482163
Gh(O)     -1.364496     1.694909     2.400741
Gh(H)     -0.940522     1.130278     1.692609
Gh(H)     -1.147774     2.625449     2.143951
Gh(O)     -2.003382    -2.394680     1.418725
Gh(H)     -1.477915    -3.075593     1.809731
Gh(H)     -1.317858    -1.699563     1.204630
Gh(O)      3.353864     0.790785     0.363253
Gh(H)      3.773818     0.759128    -0.518565
Gh(H)      2.429244     0.812169     0.202249

units ang
no_reorient
no_com
symmetry c1
}

set {
basis        aug-cc-pVTZ
scf_type     df
}

energy("mp2")
--------------------------------------------------------------------------

    Molecular point group: c1

    Geometry (in Angstrom), charge = -1, multiplicity = 1:

       Center              X                  Y                   Z               Mass
    ------------   -----------------  -----------------  -----------------  -----------------
         BR           0.000000000000     0.000000000000     0.000000000000    78.918337600000
      Gh(O)           0.936162000000     3.028793000000    -0.863611000000    15.994914619570
      Gh(H)           0.135253000000     3.528226000000    -1.165330000000     1.007825032230
      Gh(H)           0.572521000000     2.216892000000    -0.482163000000     1.007825032230
      Gh(O)          -1.364496000000     1.694909000000     2.400741000000    15.994914619570
      Gh(H)          -0.940522000000     1.130278000000     1.692609000000     1.007825032230
      Gh(H)          -1.147774000000     2.625449000000     2.143951000000     1.007825032230
      Gh(O)          -2.003382000000    -2.394680000000     1.418725000000    15.994914619570
      Gh(H)          -1.477915000000    -3.075593000000     1.809731000000     1.007825032230
      Gh(H)          -1.317858000000    -1.699563000000     1.204630000000     1.007825032230
      Gh(O)           3.353864000000     0.790785000000     0.363253000000    15.994914619570
      Gh(H)           3.773818000000     0.759128000000    -0.518565000000     1.007825032230
      Gh(H)           2.429244000000     0.812169000000     0.202249000000     1.007825032230

  Charge       = -1
  Multiplicity = 1
  Basis Set: AUG-CC-PVTZ
    Blend: AUG-CC-PVTZ
  Basis Set: (AUG-CC-PVTZ AUX)
    Blend: AUG-CC-PVTZ-JKFIT

    Orbital Energies [Eh]
    ---------------------

    Doubly Occupied:

       1A   -489.721986     2A    -64.861628     3A    -58.216157
       4A    -58.216155     5A    -58.216154     6A     -9.533235
       7A     -7.140583     8A     -7.140564     9A     -7.140546
      10A     -2.882280    11A     -2.882273    12A     -2.882267
      13A     -2.882253    14A     -2.882234    15A     -0.685993
      16A     -0.139340    17A     -0.139335    18A     -0.139329

  @DF-RHF Final Energy: -2572.53372142744229

   => Energetics <=

    Nuclear Repulsion Energy =              0.0000000000000000
    One-Electron Energy =               -3593.6628191605450411
    Two-Electron Energy =                1021.1290977331028671
    Total Energy =                      -2572.5337214274422877
 Dipole X            :          0.0000109            0.0000000            0.0000109
 Dipole Y            :          0.0001395            0.0000000            0.0001395
 Dipole Z            :          0.0002923            0.0000000            0.0002923
 Magnitude           :                                                    0.0003241
  Basis Set: (AUG-CC-PVTZ AUX)
    Blend: AUG-CC-PVTZ-RI
	 Reference Energy          =   -2572.5337214274422877 [Eh]
	 Singles Energy            =      -0.0000000000000000 [Eh]
	 Same-Spin Energy          =      -0.0907606262249210 [Eh]
	 Opposite-Spin Energy      =      -0.2113800002913831 [Eh]
	 Correlation Energy        =      -0.3021406265163041 [Eh]
	 Total Energy              =   -2572.8358620539584081 [Eh]

	 ================> DF-SCS-MP2 Energies <==================
	-----------------------------------------------------------
	 SCS Same-Spin Scale       =       0.3333333333333333 [-]
	 SCS Opposite-Spin Scale   =       1.2000000000000000 [-]
	 SCS Same-Spin Energy      =      -0.0302535420749737 [Eh]
	 SCS Opposite-Spin Energy  =      -0.2536560003496597 [Eh]
	 SCS Correlation Energy    =      -0.2839095424246333 [Eh]
	 SCS Total Energy          =   -2572.8176309698669684 [Eh]
	-----------------------------------------------------------

*** Psi4 exiting successfully. Buy a developer a beer!
