                               Psi4 1.9 release

  ==> Input File <==

--------------------------------------------------------------------------
MEMORY 60 GB

molecule dimer {
-1 1
Br     0.000000     0.000000     0.000000
--
0 1
O      0.907785    -3.270542     0.005052
H      0.638022    -2.382067     0.033667
H      1.487598    -3.318185     0.780281
O     -0.442867    -1.493360     2.705895
H     -0.557517    -2.505349     2.636657
H     -0.309218    -1.143022     1.794908
O      3.300513    -1.122755    -0.539692
H      3.130969    -1.988896    -0.865131
H      2.387446    -0.783323    -0.362168
O     -1.677447     1.488794     2.663873
H     -1.236549     1.357234     3.514456
H     -1.130855     0.928758     2.068196
O      2.470751    -0.161330     2.335308
H      2.923351    -1.018032     2.221032
H      1.582633    -0.292052     2.024141

units ang
no_reorient
no_com
symmetry c1
}

set {
basis        aug-cc-pVTZ
scf_type     df
}

energy("mp2", bsse_type="cp")
--------------------------------------------------------------------------

                               Psi4 1.9 release
    Molecular point group: c1
  Charge       = 0
  Multiplicity = 1
  Basis Set: AUG-CC-PVTZ
    Blend: AUG-CC-PVTZ
  Basis Set: (AUG-CC-PVTZ AUX)
    Blend: AUG-CC-PVTZ-JKFIT
  @DF-RHF Final Energy:  -380.27514205520652
    Total Energy =                       -380.2751420552065156
 Dipole X            :        -85.8934153           85.7666564           -0.1267589
 Dipole Y            :         88.5182684          -89.9858819           -1.4676135
 Dipole Z            :       -134.7695700          134.5665036           -0.2030665
 Magnitude           :                                                    1.4870081
  Basis Set: (AUG-CC-PVTZ AUX)
    Blend: AUG-CC-PVTZ-RI
	 Reference Energy          =    -380.2751420552065156 [Eh]
	 Singles Energy            =      -0.0000000000000000 [Eh]
	 Same-Spin Energy          =      -0.3469779169680628 [Eh]
	 Opposite-Spin Energy      =      -1.0883952268339181 [Eh]
	 Correlation Energy        =      -1.4353731438019808 [Eh]
	 Total Energy              =    -381.7105151990085119 [Eh]
	 SCS Total Energy          =    -381.6968756330632573 [Eh]
                               Psi4 1.9 release
    Molecular point group: c1
  Multiplicity = 1
  Basis Set: AUG-CC-PVTZ
    Blend: AUG-CC-PVTZ
  Basis Set: (AUG-CC-PVTZ AUX)
    Blend: AUG-CC-PVTZ-JKFIT
  @DF-RHF Final Energy: -2572.53373207732466
    Total Energy =                      -2572.5337320773242027
  Basis Set: (AUG-CC-PVTZ AUX)
	 Singles Energy            =      -0.0000000000000000 [Eh]
	 Same-Spin Energy          =      -0.0916648757316263 [Eh]
	 Opposite-Spin Energy      =      -0.2135810467852912 [Eh]
	 Correlation Energy        =      -0.3052459225169175 [Eh]
	 Total Energy              =   -2572.8389779998415179 [Eh]
	 SCS Total Energy          =   -2572.8205842920442592 [Eh]
                               Psi4 1.9 release
    Molecular point group: c1

    Geometry (in Bohr), charge = -1, multiplicity = 1:

       Center              X                  Y                   Z               Mass
    ------------   -----------------  -----------------  -----------------  -----------------
         BR           0.000000000000     0.000000000000     0.000000000000    78.918337600000
         O            1.715465030799    -6.180428661807     0.009546896386    15.994914619570
         H            1.205686842017    -4.501454242491     0.063621409466     1.007825032230
         H            2.811152804779    -6.270460883602     1.474517390898     1.007825032230
         O           -0.836897340003    -2.822041406714     5.113400474246    15.994914619570
         H           -1.053554440287    -4.734423458690     4.982559616771     1.007825032230
         H           -0.584337333062    -2.159998535373     3.391884540393     1.007825032230
         O            6.237065643513    -2.121699455988    -1.019870072101    15.994914619570
         H            5.916673917299    -3.758468732019    -1.634860652643     1.007825032230
         H            4.511619079320    -1.480265937772    -0.684398331405     1.007825032230
         O           -3.169915419971     2.813412917225     5.033990403002    15.994914619570
         H           -2.336738950709     2.564800548160     6.641359319972     1.007825032230
         H           -2.137006237605     1.755098256828     3.908324013767     1.007825032230
         O            4.669042714201    -0.304869515820     4.413092538591    15.994914619570
         H            5.524332758583    -1.923801666952     4.197142195878     1.007825032230
         H            2.990742927112    -0.551898294392     3.825072129310     1.007825032230

  Charge       = -1
  Multiplicity = 1
  Basis Set: AUG-CC-PVTZ
    Blend: AUG-CC-PVTZ
  Basis Set: (AUG-CC-PVTZ AUX)
    Blend: AUG-CC-PVTZ-JKFIT

    Orbital Energies [Eh]
    ---------------------

    Doubly Occupied:

       1A   -489.800154     2A    -64.940745     3A    -58.295241
       4A    -58.295216     5A    -58.295179     6A    -20.445071
       7A    -20.429212     8A    -20.425808     9A    -20.416922
      10A    -20.416871    11A     -9.613212    12A     -7.220955
      13A     -7.220741    14A     -7.220401    15A     -2.962634
      16A     -2.962603    17A     -2.962186    18A     -2.961974
      19A     -2.961897    20A     -1.242647    21A     -1.212580
      22A     -1.203210    23A     -1.196234    24A     -1.192277
      25A     -0.784035    26A     -0.598365    27A     -0.577863
      28A     -0.570004    29A     -0.564047    30A     -0.550773
      31A     -0.480134    32A     -0.453908    33A     -0.444766
      34A     -0.438426    35A     -0.433479    36A     -0.393748
      37A     -0.377547    38A     -0.370544    39A     -0.358166
      40A     -0.354613    41A     -0.230621    42A     -0.229535
      43A     -0.223328

  @DF-RHF Final Energy: -2952.86863371821801

   => Energetics <=

    Nuclear Repulsion Energy =            463.8583640269062016
    One-Electron Energy =               -5048.7982398299318447
    Two-Electron Energy =                1632.0712420848071815
    Total Energy =                      -2952.8686337182184616
 Dipole X            :        -86.3443612           85.7666564           -0.5777048
 Dipole Y            :         89.3308788          -89.9858819           -0.6550032
 Dipole Z            :       -135.7039401          134.5665036           -1.1374365
 Magnitude           :                                                    1.4340620
  Basis Set: (AUG-CC-PVTZ AUX)
    Blend: AUG-CC-PVTZ-RI
	 Reference Energy          =   -2952.8686337182180068 [Eh]
	 Singles Energy            =      -0.0000000000000000 [Eh]
	 Same-Spin Energy          =      -0.4492193117663056 [Eh]
	 Opposite-Spin Energy      =      -1.3099768952280759 [Eh]
	 Correlation Energy        =      -1.7591962069943814 [Eh]
	 Total Energy              =   -2954.6278299252126089 [Eh]

	 ================> DF-SCS-MP2 Energies <==================
	-----------------------------------------------------------
	 SCS Same-Spin Scale       =       0.3333333333333333 [-]
	 SCS Opposite-Spin Scale   =       1.2000000000000000 [-]
	 SCS Same-Spin Energy      =      -0.1497397705887685 [Eh]
	 SCS Opposite-Spin Energy  =      -1.5719722742736910 [Eh]
	 SCS Correlation Energy    =      -1.7217120448624597 [Eh]
	 SCS Total Energy          =   -2954.5903457630806770 [Eh]
	-----------------------------------------------------------

*** Psi4 exiting successfully. Buy a developer a beer!
