                               Psi4 1.8.2 release

  ==> Input File <==

--------------------------------------------------------------------------
MEMORY 60 GB

molecule dimer {
-1 1
Br         0.000000     0.000000     0.000000
Gh(O)     -2.018814     1.297243     2.271203
Gh(H)     -1.624924     1.929481     2.858206
Gh(H)     -1.319651     1.058009     1.655548
Gh(O)      2.992256     0.142962     1.185442
Gh(H)      2.076229    -0.027513     0.900949
Gh(H)      3.011154     0.890364     1.822388
Gh(O)      1.638357    -0.919045    -3.055647
Gh(H)      2.042760    -0.288329    -3.647520
Gh(H)      1.415696    -0.537243    -2.199502

units ang
no_reorient
no_com
symmetry c1
}

set {
basis        aug-cc-pVTZ
scf_type     df
}

energy("mp2")
--------------------------------------------------------------------------

    Molecular point group: c1

    Geometry (in Angstrom), charge = -1, multiplicity = 1:

       Center              X                  Y                   Z               Mass
    ------------   -----------------  -----------------  -----------------  -----------------
         BR           0.000000000000     0.000000000000     0.000000000000    78.918337600000
      Gh(O)          -2.018814000000     1.297243000000     2.271203000000    15.994914619570
      Gh(H)          -1.624924000000     1.929481000000     2.858206000000     1.007825032230
      Gh(H)          -1.319651000000     1.058009000000     1.655548000000     1.007825032230
      Gh(O)           2.992256000000     0.142962000000     1.185442000000    15.994914619570
      Gh(H)           2.076229000000    -0.027513000000     0.900949000000     1.007825032230
      Gh(H)           3.011154000000     0.890364000000     1.822388000000     1.007825032230
      Gh(O)           1.638357000000    -0.919045000000    -3.055647000000    15.994914619570
      Gh(H)           2.042760000000    -0.288329000000    -3.647520000000     1.007825032230
      Gh(H)           1.415696000000    -0.537243000000    -2.199502000000     1.007825032230

  Charge       = -1
  Multiplicity = 1
  Basis Set: AUG-CC-PVTZ
    Blend: AUG-CC-PVTZ
  Basis Set: (AUG-CC-PVTZ AUX)
    Blend: AUG-CC-PVTZ-JKFIT

    Orbital Energies [Eh]
    ---------------------

    Doubly Occupied:

       1A   -489.721642     2A    -64.861374     3A    -58.215892
       4A    -58.215892     5A    -58.215889     6A     -9.533149
       7A     -7.140506     8A     -7.140482     9A     -7.140467
      10A     -2.882191    11A     -2.882183    12A     -2.882181
      13A     -2.882171    14A     -2.882151    15A     -0.685994
      16A     -0.139340    17A     -0.139337    18A     -0.139332

  @DF-RHF Final Energy: -2572.53370943135360

   => Energetics <=

    Nuclear Repulsion Energy =              0.0000000000000000
    One-Electron Energy =               -3593.6670693794230829
    Two-Electron Energy =                1021.1333599480692556
    Total Energy =                      -2572.5337094313535999
 Dipole X            :          0.0000489            0.0000000            0.0000489
 Dipole Y            :         -0.0002061            0.0000000           -0.0002061
 Dipole Z            :          0.0000076            0.0000000            0.0000076
 Magnitude           :                                                    0.0002120
  Basis Set: (AUG-CC-PVTZ AUX)
    Blend: AUG-CC-PVTZ-RI
	 Reference Energy          =   -2572.5337094313535999 [Eh]
	 Singles Energy            =      -0.0000000000000000 [Eh]
	 Same-Spin Energy          =      -0.0898607902532949 [Eh]
	 Opposite-Spin Energy      =      -0.2090329722743980 [Eh]
	 Correlation Energy        =      -0.2988937625276928 [Eh]
	 Total Energy              =   -2572.8326031938813685 [Eh]

	 ================> DF-SCS-MP2 Energies <==================
	-----------------------------------------------------------
	 SCS Same-Spin Scale       =       0.3333333333333333 [-]
	 SCS Opposite-Spin Scale   =       1.2000000000000000 [-]
	 SCS Same-Spin Energy      =      -0.0299535967510983 [Eh]
	 SCS Opposite-Spin Energy  =      -0.2508395667292776 [Eh]
	 SCS Correlation Energy    =      -0.2807931634803759 [Eh]
	 SCS Total Energy          =   -2572.8145025948338116 [Eh]
	-----------------------------------------------------------

*** Psi4 exiting successfully. Buy a developer a beer!
