                               Psi4 1.8.2 release

  ==> Input File <==

--------------------------------------------------------------------------
MEMORY 60 GB

molecule dimer {
-1 1
Br         0.000000     0.000000     0.000000
O         -2.305583    -2.407606     0.494450
H         -1.867709    -1.598552     0.196248
H         -2.635182    -2.303553     1.364687
O         -2.542743     1.435325     1.136668
H         -2.316989     2.197870     1.699100
H         -1.797245     0.909355     0.922860
O         -0.667402     0.006100     3.273615
H         -1.303297     0.663052     3.442756
H         -0.519269    -0.098645     2.327999
O          2.326692     2.113075     1.613902
H          1.497957     1.639342     1.313777
H          2.985432     1.613206     1.112036

units ang
no_reorient
no_com
symmetry c1
}

set {
basis        aug-cc-pVTZ
scf_type     df
}

energy("mp2")
--------------------------------------------------------------------------

    Molecular point group: c1

    Geometry (in Angstrom), charge = -1, multiplicity = 1:

       Center              X                  Y                   Z               Mass
    ------------   -----------------  -----------------  -----------------  -----------------
         BR           0.000000000000     0.000000000000     0.000000000000    78.918337600000
         O           -2.305583000000    -2.407606000000     0.494450000000    15.994914619570
         H           -1.867709000000    -1.598552000000     0.196248000000     1.007825032230
         H           -2.635182000000    -2.303553000000     1.364687000000     1.007825032230
         O           -2.542743000000     1.435325000000     1.136668000000    15.994914619570
         H           -2.316989000000     2.197870000000     1.699100000000     1.007825032230
         H           -1.797245000000     0.909355000000     0.922860000000     1.007825032230
         O           -0.667402000000     0.006100000000     3.273615000000    15.994914619570
         H           -1.303297000000     0.663052000000     3.442756000000     1.007825032230
         H           -0.519269000000    -0.098645000000     2.327999000000     1.007825032230
         O            2.326692000000     2.113075000000     1.613902000000    15.994914619570
         H            1.497957000000     1.639342000000     1.313777000000     1.007825032230
         H            2.985432000000     1.613206000000     1.112036000000     1.007825032230

  Charge       = -1
  Multiplicity = 1
  Basis Set: AUG-CC-PVTZ
    Blend: AUG-CC-PVTZ
  Basis Set: (AUG-CC-PVTZ AUX)
    Blend: AUG-CC-PVTZ-JKFIT

    Orbital Energies [Eh]
    ---------------------

    Doubly Occupied:

       1A   -489.788899     2A    -64.929486     3A    -58.283974
       4A    -58.283973     5A    -58.283919     6A    -20.426520
       7A    -20.414914     8A    -20.411324     9A    -20.409022
      10A     -9.601998    11A     -7.209708    12A     -7.209570
      13A     -7.209194    14A     -2.951413    15A     -2.951396
      16A     -2.950939    17A     -2.950817    18A     -2.950694
      19A     -1.211042    20A     -1.204328    21A     -1.201163
      22A     -1.199741    23A     -0.771194    24A     -0.595404
      25A     -0.588504    26A     -0.581960    27A     -0.550804
      28A     -0.450330    29A     -0.442589    30A     -0.427758
      31A     -0.422259    32A     -0.368039    33A     -0.365927
      34A     -0.360739    35A     -0.358125    36A     -0.219878
      37A     -0.217522    38A     -0.211402

  @DF-RHF Final Energy: -2876.81019646431650

   => Energetics <=

    Nuclear Repulsion Energy =            342.6963521890399420
    One-Electron Energy =               -4701.0801520454833735
    Two-Electron Energy =                1481.5736033921266426
    Total Energy =                      -2876.8101964643165047
 Dipole X            :         60.1515765          -59.4670167            0.6845598
 Dipole Y            :        -22.7296966           23.0494185            0.3197219
 Dipole Z            :       -123.1307566          121.9412735           -1.1894830
 Magnitude           :                                                    1.4091537
  Basis Set: (AUG-CC-PVTZ AUX)
    Blend: AUG-CC-PVTZ-RI
	 Reference Energy          =   -2876.8101964643165047 [Eh]
	 Singles Energy            =      -0.0000000000000000 [Eh]
	 Same-Spin Energy          =      -0.3747934498297366 [Eh]
	 Opposite-Spin Energy      =      -1.0834125274936128 [Eh]
	 Correlation Energy        =      -1.4582059773233493 [Eh]
	 Total Energy              =   -2878.2684024416398643 [Eh]

	 ================> DF-SCS-MP2 Energies <==================
	-----------------------------------------------------------
	 SCS Same-Spin Scale       =       0.3333333333333333 [-]
	 SCS Opposite-Spin Scale   =       1.2000000000000000 [-]
	 SCS Same-Spin Energy      =      -0.1249311499432455 [Eh]
	 SCS Opposite-Spin Energy  =      -1.3000950329923353 [Eh]
	 SCS Correlation Energy    =      -1.4250261829355808 [Eh]
	 SCS Total Energy          =   -2878.2352226472521579 [Eh]
	-----------------------------------------------------------

*** Psi4 exiting successfully. Buy a developer a beer!
