                               Psi4 1.8.2 release

  ==> Input File <==

--------------------------------------------------------------------------
MEMORY 60 GB

molecule dimer {
0 1
Gh(Br)     0.000000     0.000000     0.000000
Gh(O)      1.331716     2.722509     0.940794
Gh(H)      0.932553     1.903811     0.578732
Gh(H)      1.260918     3.403207     0.208378
O         -1.448453     1.321538     2.668376
H         -1.342868     0.760752     1.897082
H         -0.736737     1.048426     3.235516
Gh(O)     -0.072527    -0.400216    -3.431422
Gh(H)      0.021822    -0.469284    -2.499082
Gh(H)      0.767355    -0.131810    -3.808652
Gh(O)      3.075394     0.425946     1.413502
Gh(H)      2.911921     1.297669     1.072376
Gh(H)      2.314786    -0.184850     1.323914
Gh(O)      2.532006     0.388678    -2.263516
Gh(H)      2.071157     0.512868    -1.472168
Gh(H)      2.383790     1.130998    -2.871000

units ang
no_reorient
no_com
symmetry c1
}

set {
basis        aug-cc-pVTZ
scf_type     df
}

energy("mp2")
--------------------------------------------------------------------------

    Molecular point group: c1

    Geometry (in Angstrom), charge = 0, multiplicity = 1:

       Center              X                  Y                   Z               Mass
    ------------   -----------------  -----------------  -----------------  -----------------
      Gh(BR)          0.000000000000     0.000000000000     0.000000000000    78.918337600000
      Gh(O)           1.331716000000     2.722509000000     0.940794000000    15.994914619570
      Gh(H)           0.932553000000     1.903811000000     0.578732000000     1.007825032230
      Gh(H)           1.260918000000     3.403207000000     0.208378000000     1.007825032230
         O           -1.448453000000     1.321538000000     2.668376000000    15.994914619570
         H           -1.342868000000     0.760752000000     1.897082000000     1.007825032230
         H           -0.736737000000     1.048426000000     3.235516000000     1.007825032230
      Gh(O)          -0.072527000000    -0.400216000000    -3.431422000000    15.994914619570
      Gh(H)           0.021822000000    -0.469284000000    -2.499082000000     1.007825032230
      Gh(H)           0.767355000000    -0.131810000000    -3.808652000000     1.007825032230
      Gh(O)           3.075394000000     0.425946000000     1.413502000000    15.994914619570
      Gh(H)           2.911921000000     1.297669000000     1.072376000000     1.007825032230
      Gh(H)           2.314786000000    -0.184850000000     1.323914000000     1.007825032230
      Gh(O)           2.532006000000     0.388678000000    -2.263516000000    15.994914619570
      Gh(H)           2.071157000000     0.512868000000    -1.472168000000     1.007825032230
      Gh(H)           2.383790000000     1.130998000000    -2.871000000000     1.007825032230

  Charge       = 0
  Multiplicity = 1
  Basis Set: AUG-CC-PVTZ
    Blend: AUG-CC-PVTZ
  Basis Set: (AUG-CC-PVTZ AUX)
    Blend: AUG-CC-PVTZ-JKFIT

    Orbital Energies [Eh]
    ---------------------

    Doubly Occupied:

       1A    -20.567212     2A     -1.355752     3A     -0.716671
       4A     -0.587809     5A     -0.510915

  @DF-RHF Final Energy:   -76.06063949683879

   => Energetics <=

    Nuclear Repulsion Energy =              9.2213802281314710
    One-Electron Energy =                -123.0873176362322567
    Two-Electron Energy =                  37.8052979112620022
    Total Energy =                        -76.0606394968387889
 Dipole X            :         26.3703526          -25.8273197            0.5430329
 Dipole Y            :        -23.9510954           23.3976100           -0.5534854
 Dipole Z            :        -50.1735225           50.0392033           -0.1343192
 Magnitude           :                                                    0.7869387
  Basis Set: (AUG-CC-PVTZ AUX)
    Blend: AUG-CC-PVTZ-RI
	 Reference Energy          =     -76.0606394968387889 [Eh]
	 Singles Energy            =      -0.0000000000000000 [Eh]
	 Same-Spin Energy          =      -0.0683635783234964 [Eh]
	 Opposite-Spin Energy      =      -0.2155971820768399 [Eh]
	 Correlation Energy        =      -0.2839607604003364 [Eh]
	 Total Energy              =     -76.3446002572391222 [Eh]

	 ================> DF-SCS-MP2 Energies <==================
	-----------------------------------------------------------
	 SCS Same-Spin Scale       =       0.3333333333333333 [-]
	 SCS Opposite-Spin Scale   =       1.2000000000000000 [-]
	 SCS Same-Spin Energy      =      -0.0227878594411655 [Eh]
	 SCS Opposite-Spin Energy  =      -0.2587166184922080 [Eh]
	 SCS Correlation Energy    =      -0.2815044779333734 [Eh]
	 SCS Total Energy          =     -76.3421439747721564 [Eh]
	-----------------------------------------------------------

*** Psi4 exiting successfully. Buy a developer a beer!
