                               Psi4 1.8.2 release

  ==> Input File <==

--------------------------------------------------------------------------
MEMORY 60 GB

molecule dimer {
-1 1
Br         0.000000     0.000000     0.000000
Gh(O)      0.341150     0.776241    -3.513535
Gh(H)      0.559687     1.745389    -3.643795
Gh(H)      0.259971     0.595020    -2.572308
Gh(O)     -3.228866     0.199860     1.064817
Gh(H)     -2.554272    -0.465074     0.898206
Gh(H)     -4.003385    -0.263674     1.419464
Gh(O)     -1.501421     2.694653    -1.037470
Gh(H)     -1.857259     2.772058    -1.919008
Gh(H)     -1.054329     1.848031    -0.932673
Gh(O)      2.688093     2.201399    -0.380651
Gh(H)      2.548789     3.054275    -0.789423
Gh(H)      1.816747     1.792628    -0.342110

units ang
no_reorient
no_com
symmetry c1
}

set {
basis        aug-cc-pVTZ
scf_type     df
}

energy("mp2")
--------------------------------------------------------------------------

    Molecular point group: c1

    Geometry (in Angstrom), charge = -1, multiplicity = 1:

       Center              X                  Y                   Z               Mass
    ------------   -----------------  -----------------  -----------------  -----------------
         BR           0.000000000000     0.000000000000     0.000000000000    78.918337600000
      Gh(O)           0.341150000000     0.776241000000    -3.513535000000    15.994914619570
      Gh(H)           0.559687000000     1.745389000000    -3.643795000000     1.007825032230
      Gh(H)           0.259971000000     0.595020000000    -2.572308000000     1.007825032230
      Gh(O)          -3.228866000000     0.199860000000     1.064817000000    15.994914619570
      Gh(H)          -2.554272000000    -0.465074000000     0.898206000000     1.007825032230
      Gh(H)          -4.003385000000    -0.263674000000     1.419464000000     1.007825032230
      Gh(O)          -1.501421000000     2.694653000000    -1.037470000000    15.994914619570
      Gh(H)          -1.857259000000     2.772058000000    -1.919008000000     1.007825032230
      Gh(H)          -1.054329000000     1.848031000000    -0.932673000000     1.007825032230
      Gh(O)           2.688093000000     2.201399000000    -0.380651000000    15.994914619570
      Gh(H)           2.548789000000     3.054275000000    -0.789423000000     1.007825032230
      Gh(H)           1.816747000000     1.792628000000    -0.342110000000     1.007825032230

  Charge       = -1
  Multiplicity = 1
  Basis Set: AUG-CC-PVTZ
    Blend: AUG-CC-PVTZ
  Basis Set: (AUG-CC-PVTZ AUX)
    Blend: AUG-CC-PVTZ-JKFIT

    Orbital Energies [Eh]
    ---------------------

    Doubly Occupied:

       1A   -489.721770     2A    -64.861460     3A    -58.215984
       4A    -58.215982     5A    -58.215981     6A     -9.533173
       7A     -7.140519     8A     -7.140505     9A     -7.140495
      10A     -2.882219    11A     -2.882210    12A     -2.882207
      13A     -2.882193    14A     -2.882178    15A     -0.685992
      16A     -0.139337    17A     -0.139336    18A     -0.139332

  @DF-RHF Final Energy: -2572.53371607784948

   => Energetics <=

    Nuclear Repulsion Energy =              0.0000000000000000
    One-Electron Energy =               -3593.6656851962961809
    Two-Electron Energy =                1021.1319691184462499
    Total Energy =                      -2572.5337160778499310
 Dipole X            :          0.0000501            0.0000000            0.0000501
 Dipole Y            :          0.0001621            0.0000000            0.0001621
 Dipole Z            :         -0.0001113            0.0000000           -0.0001113
 Magnitude           :                                                    0.0002029
  Basis Set: (AUG-CC-PVTZ AUX)
    Blend: AUG-CC-PVTZ-RI
	 Reference Energy          =   -2572.5337160778494763 [Eh]
	 Singles Energy            =      -0.0000000000000000 [Eh]
	 Same-Spin Energy          =      -0.0901979321057950 [Eh]
	 Opposite-Spin Energy      =      -0.2097795451908181 [Eh]
	 Correlation Energy        =      -0.2999774772966131 [Eh]
	 Total Energy              =   -2572.8336935551460556 [Eh]

	 ================> DF-SCS-MP2 Energies <==================
	-----------------------------------------------------------
	 SCS Same-Spin Scale       =       0.3333333333333333 [-]
	 SCS Opposite-Spin Scale   =       1.2000000000000000 [-]
	 SCS Same-Spin Energy      =      -0.0300659773685983 [Eh]
	 SCS Opposite-Spin Energy  =      -0.2517354542289817 [Eh]
	 SCS Correlation Energy    =      -0.2818014315975800 [Eh]
	 SCS Total Energy          =   -2572.8155175094470906 [Eh]
	-----------------------------------------------------------

*** Psi4 exiting successfully. Buy a developer a beer!
