                               Psi4 1.8.2 release

  ==> Input File <==

--------------------------------------------------------------------------
MEMORY 60 GB

molecule dimer {
0 1
Gh(Br)     0.000000     0.000000     0.000000
Gh(O)      2.468166    -1.725257    -1.468911
Gh(H)      2.008711    -1.796399    -2.336402
Gh(H)      1.933235    -1.232159    -0.838800
Gh(O)     -1.184606    -3.402731     0.278725
Gh(H)     -0.353106    -3.499588     0.783401
Gh(H)     -1.108456    -2.501841    -0.036643
O         -1.124259    -1.651488    -2.915811
H         -0.354710    -2.056374    -3.284914
H         -0.779463    -1.098095    -2.188563
Gh(O)     -2.680953     1.703746    -1.441367
Gh(H)     -2.245764     1.022923    -0.880588
Gh(H)     -2.101163     1.772878    -2.243374

units ang
no_reorient
no_com
symmetry c1
}

set {
basis        aug-cc-pVTZ
scf_type     df
}

energy("mp2")
--------------------------------------------------------------------------

    Molecular point group: c1

    Geometry (in Angstrom), charge = 0, multiplicity = 1:

       Center              X                  Y                   Z               Mass
    ------------   -----------------  -----------------  -----------------  -----------------
      Gh(BR)          0.000000000000     0.000000000000     0.000000000000    78.918337600000
      Gh(O)           2.468166000000    -1.725257000000    -1.468911000000    15.994914619570
      Gh(H)           2.008711000000    -1.796399000000    -2.336402000000     1.007825032230
      Gh(H)           1.933235000000    -1.232159000000    -0.838800000000     1.007825032230
      Gh(O)          -1.184606000000    -3.402731000000     0.278725000000    15.994914619570
      Gh(H)          -0.353106000000    -3.499588000000     0.783401000000     1.007825032230
      Gh(H)          -1.108456000000    -2.501841000000    -0.036643000000     1.007825032230
         O           -1.124259000000    -1.651488000000    -2.915811000000    15.994914619570
         H           -0.354710000000    -2.056374000000    -3.284914000000     1.007825032230
         H           -0.779463000000    -1.098095000000    -2.188563000000     1.007825032230
      Gh(O)          -2.680953000000     1.703746000000    -1.441367000000    15.994914619570
      Gh(H)          -2.245764000000     1.022923000000    -0.880588000000     1.007825032230
      Gh(H)          -2.101163000000     1.772878000000    -2.243374000000     1.007825032230

  Charge       = 0
  Multiplicity = 1
  Basis Set: AUG-CC-PVTZ
    Blend: AUG-CC-PVTZ
  Basis Set: (AUG-CC-PVTZ AUX)
    Blend: AUG-CC-PVTZ-JKFIT

    Orbital Energies [Eh]
    ---------------------

    Doubly Occupied:

       1A    -20.567798     2A     -1.352194     3A     -0.715472
       4A     -0.584646     5A     -0.510149

  @DF-RHF Final Energy:   -76.05990888000177

   => Energetics <=

    Nuclear Repulsion Energy =              9.1645528618006793
    One-Electron Energy =                -122.9884035442000396
    Two-Electron Energy =                  37.7639418023975963
    Total Energy =                        -76.0599088800017569
 Dipole X            :         19.8806013          -19.1396092            0.7409922
 Dipole Y            :         31.0231863          -30.9279626            0.0952237
 Dipole Z            :         54.6576247          -54.4240463            0.2335784
 Magnitude           :                                                    0.7827489
  Basis Set: (AUG-CC-PVTZ AUX)
    Blend: AUG-CC-PVTZ-RI
	 Reference Energy          =     -76.0599088800017711 [Eh]
	 Singles Energy            =      -0.0000000000000000 [Eh]
	 Same-Spin Energy          =      -0.0684545583229313 [Eh]
	 Opposite-Spin Energy      =      -0.2160034053027732 [Eh]
	 Correlation Energy        =      -0.2844579636257045 [Eh]
	 Total Energy              =     -76.3443668436274692 [Eh]

	 ================> DF-SCS-MP2 Energies <==================
	-----------------------------------------------------------
	 SCS Same-Spin Scale       =       0.3333333333333333 [-]
	 SCS Opposite-Spin Scale   =       1.2000000000000000 [-]
	 SCS Same-Spin Energy      =      -0.0228181861076438 [Eh]
	 SCS Opposite-Spin Energy  =      -0.2592040863633278 [Eh]
	 SCS Correlation Energy    =      -0.2820222724709716 [Eh]
	 SCS Total Energy          =     -76.3419311524727391 [Eh]
	-----------------------------------------------------------

*** Psi4 exiting successfully. Buy a developer a beer!
