                               Psi4 1.8.2 release

  ==> Input File <==

--------------------------------------------------------------------------
MEMORY 60 GB

molecule dimer {
-1 1
Br         0.000000     0.000000     0.000000
O         -0.630320    -1.812852    -2.835716
H          0.099872    -1.746765    -3.480055
H         -0.261433    -1.797117    -1.930378
O          2.945936    -0.416442    -1.486677
H          3.091641     0.065515    -2.290126
H          2.192306    -0.076273    -1.026734
O          1.081383     0.129347     3.221554
H          0.797023     0.138574     2.329944
H          1.856045    -0.415427     3.230156
O          0.682430    -2.991189     1.039180
H          0.558201    -2.053686     0.678418
H          1.365896    -3.343831     0.489197
O         -2.520613    -2.137780     0.741783
H         -2.608792    -1.437443     1.439520
H         -1.795357    -1.828209     0.187538

units ang
no_reorient
no_com
symmetry c1
}

set {
basis        aug-cc-pVTZ
scf_type     df
}

energy("mp2")
--------------------------------------------------------------------------

    Molecular point group: c1

    Geometry (in Angstrom), charge = -1, multiplicity = 1:

       Center              X                  Y                   Z               Mass
    ------------   -----------------  -----------------  -----------------  -----------------
         BR           0.000000000000     0.000000000000     0.000000000000    78.918337600000
         O           -0.630320000000    -1.812852000000    -2.835716000000    15.994914619570
         H            0.099872000000    -1.746765000000    -3.480055000000     1.007825032230
         H           -0.261433000000    -1.797117000000    -1.930378000000     1.007825032230
         O            2.945936000000    -0.416442000000    -1.486677000000    15.994914619570
         H            3.091641000000     0.065515000000    -2.290126000000     1.007825032230
         H            2.192306000000    -0.076273000000    -1.026734000000     1.007825032230
         O            1.081383000000     0.129347000000     3.221554000000    15.994914619570
         H            0.797023000000     0.138574000000     2.329944000000     1.007825032230
         H            1.856045000000    -0.415427000000     3.230156000000     1.007825032230
         O            0.682430000000    -2.991189000000     1.039180000000    15.994914619570
         H            0.558201000000    -2.053686000000     0.678418000000     1.007825032230
         H            1.365896000000    -3.343831000000     0.489197000000     1.007825032230
         O           -2.520613000000    -2.137780000000     0.741783000000    15.994914619570
         H           -2.608792000000    -1.437443000000     1.439520000000     1.007825032230
         H           -1.795357000000    -1.828209000000     0.187538000000     1.007825032230

  Charge       = -1
  Multiplicity = 1
  Basis Set: AUG-CC-PVTZ
    Blend: AUG-CC-PVTZ
  Basis Set: (AUG-CC-PVTZ AUX)
    Blend: AUG-CC-PVTZ-JKFIT

    Orbital Energies [Eh]
    ---------------------

    Doubly Occupied:

       1A   -489.798894     2A    -64.939515     3A    -58.294011
       4A    -58.293983     5A    -58.293960     6A    -20.433099
       7A    -20.432008     8A    -20.414779     9A    -20.411101
      10A    -20.410868    11A     -9.611996    12A     -7.219657
      13A     -7.219474    14A     -7.219359    15A     -2.961274
      16A     -2.961214    17A     -2.961069    18A     -2.960855
      19A     -2.960834    20A     -1.226832    21A     -1.214717
      22A     -1.207257    23A     -1.191330    24A     -1.186172
      25A     -0.781987    26A     -0.607807    27A     -0.584190
      28A     -0.581781    29A     -0.555430    30A     -0.547728
      31A     -0.451105    32A     -0.444663    33A     -0.441680
      34A     -0.433629    35A     -0.429964    36A     -0.382820
      37A     -0.374976    38A     -0.366367    39A     -0.358497
      40A     -0.348351    41A     -0.227619    42A     -0.226991
      43A     -0.225285

  @DF-RHF Final Energy: -2952.87530924403609

   => Energetics <=

    Nuclear Repulsion Energy =            450.0481036492548128
    One-Electron Energy =               -5021.4565630725164738
    Two-Electron Energy =                1618.5331501792254585
    Total Energy =                      -2952.8753092440365435
 Dipole X            :        -32.5144679           33.5727421            1.0582741
 Dipole Y            :        134.8969237         -132.8968606            2.0000631
 Dipole Z            :        -10.8442690            9.5780240           -1.2662450
 Magnitude           :                                                    2.5929854
  Basis Set: (AUG-CC-PVTZ AUX)
    Blend: AUG-CC-PVTZ-RI
	 Reference Energy          =   -2952.8753092440360888 [Eh]
	 Singles Energy            =      -0.0000000000000000 [Eh]
	 Same-Spin Energy          =      -0.4459419920994807 [Eh]
	 Opposite-Spin Energy      =      -1.3036659424979253 [Eh]
	 Correlation Energy        =      -1.7496079345974060 [Eh]
	 Total Energy              =   -2954.6249171786334955 [Eh]

	 ================> DF-SCS-MP2 Energies <==================
	-----------------------------------------------------------
	 SCS Same-Spin Scale       =       0.3333333333333333 [-]
	 SCS Opposite-Spin Scale   =       1.2000000000000000 [-]
	 SCS Same-Spin Energy      =      -0.1486473306998269 [Eh]
	 SCS Opposite-Spin Energy  =      -1.5643991309975103 [Eh]
	 SCS Correlation Energy    =      -1.7130464616973371 [Eh]
	 SCS Total Energy          =   -2954.5883557057336475 [Eh]
	-----------------------------------------------------------

*** Psi4 exiting successfully. Buy a developer a beer!
