                               Psi4 1.8.2 release

  ==> Input File <==

--------------------------------------------------------------------------
MEMORY 60 GB

molecule dimer {
-1 1
Br         0.000000     0.000000     0.000000
Gh(O)      1.521234     1.209788    -2.685367
Gh(H)      2.096141     0.409973    -2.642532
Gh(H)      1.413599     1.432485    -3.599181
Gh(O)      2.137029    -0.858665     2.437340
Gh(H)      1.531524    -0.762129     1.688950
Gh(H)      1.596637    -0.978037     3.206662
Gh(O)      1.238938     1.972390     2.398987
Gh(H)      0.860966     1.485662     1.615154
Gh(H)      1.150578     1.320561     3.162309
Gh(O)      0.117012    -3.331974     0.636691
Gh(H)      0.665240    -3.509200     1.434153
Gh(H)      0.025395    -2.338891     0.576819
Gh(O)     -1.361959    -0.368772     3.303538
Gh(H)     -0.708171    -0.442974     3.989043
Gh(H)     -0.893664    -0.189371     2.459854
Gh(O)     -1.248477     2.143362    -2.447598
Gh(H)     -0.346353     1.847909    -2.331410
Gh(H)     -1.185038     2.892626    -1.867573

units ang
no_reorient
no_com
symmetry c1
}

set {
basis        aug-cc-pVTZ
scf_type     df
}

energy("mp2")
--------------------------------------------------------------------------

    Molecular point group: c1

    Geometry (in Angstrom), charge = -1, multiplicity = 1:

       Center              X                  Y                   Z               Mass
    ------------   -----------------  -----------------  -----------------  -----------------
         BR           0.000000000000     0.000000000000     0.000000000000    78.918337600000
      Gh(O)           1.521234000000     1.209788000000    -2.685367000000    15.994914619570
      Gh(H)           2.096141000000     0.409973000000    -2.642532000000     1.007825032230
      Gh(H)           1.413599000000     1.432485000000    -3.599181000000     1.007825032230
      Gh(O)           2.137029000000    -0.858665000000     2.437340000000    15.994914619570
      Gh(H)           1.531524000000    -0.762129000000     1.688950000000     1.007825032230
      Gh(H)           1.596637000000    -0.978037000000     3.206662000000     1.007825032230
      Gh(O)           1.238938000000     1.972390000000     2.398987000000    15.994914619570
      Gh(H)           0.860966000000     1.485662000000     1.615154000000     1.007825032230
      Gh(H)           1.150578000000     1.320561000000     3.162309000000     1.007825032230
      Gh(O)           0.117012000000    -3.331974000000     0.636691000000    15.994914619570
      Gh(H)           0.665240000000    -3.509200000000     1.434153000000     1.007825032230
      Gh(H)           0.025395000000    -2.338891000000     0.576819000000     1.007825032230
      Gh(O)          -1.361959000000    -0.368772000000     3.303538000000    15.994914619570
      Gh(H)          -0.708171000000    -0.442974000000     3.989043000000     1.007825032230
      Gh(H)          -0.893664000000    -0.189371000000     2.459854000000     1.007825032230
      Gh(O)          -1.248477000000     2.143362000000    -2.447598000000    15.994914619570
      Gh(H)          -0.346353000000     1.847909000000    -2.331410000000     1.007825032230
      Gh(H)          -1.185038000000     2.892626000000    -1.867573000000     1.007825032230

  Charge       = -1
  Multiplicity = 1
  Basis Set: AUG-CC-PVTZ
    Blend: AUG-CC-PVTZ
  Basis Set: (AUG-CC-PVTZ AUX)
    Blend: AUG-CC-PVTZ-JKFIT

    Orbital Energies [Eh]
    ---------------------

    Doubly Occupied:

       1A   -489.722188     2A    -64.861781     3A    -58.216317
       4A    -58.216316     5A    -58.216312     6A     -9.533286
       7A     -7.140629     8A     -7.140609     9A     -7.140600
      10A     -2.882335    11A     -2.882320    12A     -2.882307
      13A     -2.882301    14A     -2.882294    15A     -0.685989
      16A     -0.139337    17A     -0.139331    18A     -0.139329

  @DF-RHF Final Energy: -2572.53373141257998

   => Energetics <=

    Nuclear Repulsion Energy =              0.0000000000000000
    One-Electron Energy =               -3593.6603046348691350
    Two-Electron Energy =                1021.1265732222894940
    Total Energy =                      -2572.5337314125795274
 Dipole X            :          0.0000631            0.0000000            0.0000631
 Dipole Y            :         -0.0000038            0.0000000           -0.0000038
 Dipole Z            :          0.0000016            0.0000000            0.0000016
 Magnitude           :                                                    0.0000632
  Basis Set: (AUG-CC-PVTZ AUX)
    Blend: AUG-CC-PVTZ-RI
	 Reference Energy          =   -2572.5337314125799821 [Eh]
	 Singles Energy            =      -0.0000000000000000 [Eh]
	 Same-Spin Energy          =      -0.0913237492118408 [Eh]
	 Opposite-Spin Energy      =      -0.2126201789195932 [Eh]
	 Correlation Energy        =      -0.3039439281314340 [Eh]
	 Total Energy              =   -2572.8376753407114848 [Eh]

	 ================> DF-SCS-MP2 Energies <==================
	-----------------------------------------------------------
	 SCS Same-Spin Scale       =       0.3333333333333333 [-]
	 SCS Opposite-Spin Scale   =       1.2000000000000000 [-]
	 SCS Same-Spin Energy      =      -0.0304412497372803 [Eh]
	 SCS Opposite-Spin Energy  =      -0.2551442147035118 [Eh]
	 SCS Correlation Energy    =      -0.2855854644407921 [Eh]
	 SCS Total Energy          =   -2572.8193168770208104 [Eh]
	-----------------------------------------------------------

*** Psi4 exiting successfully. Buy a developer a beer!
