                               Psi4 1.8.2 release

  ==> Input File <==

--------------------------------------------------------------------------
MEMORY 60 GB

molecule dimer {
-1 1
Br         0.000000     0.000000     0.000000
O          0.827585    -0.673228     3.345565
H          1.608849    -1.256143     3.487856
H          0.809009    -0.281301     2.433452
O         -0.064610     2.592766     1.902330
H         -0.769192     3.247236     1.817366
H         -0.304759     1.892666     1.320770
O          2.158632    -2.165332    -1.610499
H          1.952538    -1.333555    -1.224842
H          3.138913    -2.262052    -1.619831
O          3.156044     1.337992    -0.732851
H          3.306466     0.506097    -0.217667
H          2.230436     1.255178    -0.739111

units ang
no_reorient
no_com
symmetry c1
}

set {
basis        aug-cc-pVTZ
scf_type     df
}

energy("mp2")
--------------------------------------------------------------------------

    Molecular point group: c1

    Geometry (in Angstrom), charge = -1, multiplicity = 1:

       Center              X                  Y                   Z               Mass
    ------------   -----------------  -----------------  -----------------  -----------------
         BR           0.000000000000     0.000000000000     0.000000000000    78.918337600000
         O            0.827585000000    -0.673228000000     3.345565000000    15.994914619570
         H            1.608849000000    -1.256143000000     3.487856000000     1.007825032230
         H            0.809009000000    -0.281301000000     2.433452000000     1.007825032230
         O           -0.064610000000     2.592766000000     1.902330000000    15.994914619570
         H           -0.769192000000     3.247236000000     1.817366000000     1.007825032230
         H           -0.304759000000     1.892666000000     1.320770000000     1.007825032230
         O            2.158632000000    -2.165332000000    -1.610499000000    15.994914619570
         H            1.952538000000    -1.333555000000    -1.224842000000     1.007825032230
         H            3.138913000000    -2.262052000000    -1.619831000000     1.007825032230
         O            3.156044000000     1.337992000000    -0.732851000000    15.994914619570
         H            3.306466000000     0.506097000000    -0.217667000000     1.007825032230
         H            2.230436000000     1.255178000000    -0.739111000000     1.007825032230

  Charge       = -1
  Multiplicity = 1
  Basis Set: AUG-CC-PVTZ
    Blend: AUG-CC-PVTZ
  Basis Set: (AUG-CC-PVTZ AUX)
    Blend: AUG-CC-PVTZ-JKFIT

    Orbital Energies [Eh]
    ---------------------

    Doubly Occupied:

       1A   -489.777204     2A    -64.917583     3A    -58.272103
       4A    -58.272069     5A    -58.272036     6A    -20.432594
       7A    -20.428309     8A    -20.417563     9A    -20.407402
      10A     -9.589922    11A     -7.197555    12A     -7.197375
      13A     -7.197238    14A     -2.939221    15A     -2.939180
      16A     -2.938992    17A     -2.938769    18A     -2.938739
      19A     -1.219898    20A     -1.215793    21A     -1.200051
      22A     -1.183724    23A     -0.754394    24A     -0.588879
      25A     -0.569037    26A     -0.564248    27A     -0.556722
      28A     -0.468664    29A     -0.445209    30A     -0.432140
      31A     -0.417955    32A     -0.377262    33A     -0.372778
      34A     -0.357507    35A     -0.355097    36A     -0.206358
      37A     -0.202860    38A     -0.200584

  @DF-RHF Final Energy: -2876.80173563580729

   => Energetics <=

    Nuclear Repulsion Energy =            329.0547658819847356
    One-Electron Energy =               -4674.1869653109324645
    Two-Electron Energy =                1468.3304637931400976
    Total Energy =                      -2876.8017356358072902
 Dipole X            :       -115.2450545          114.5050595           -0.7399950
 Dipole Y            :        -20.3040103           19.8529147           -0.4510957
 Dipole Z            :        -54.5524507           53.8465233           -0.7059274
 Magnitude           :                                                    1.1177716
  Basis Set: (AUG-CC-PVTZ AUX)
    Blend: AUG-CC-PVTZ-RI
	 Reference Energy          =   -2876.8017356358072902 [Eh]
	 Singles Energy            =      -0.0000000000000000 [Eh]
	 Same-Spin Energy          =      -0.3727817615472516 [Eh]
	 Opposite-Spin Energy      =      -1.0815956972412046 [Eh]
	 Correlation Energy        =      -1.4543774587884561 [Eh]
	 Total Energy              =   -2878.2561130945955483 [Eh]

	 ================> DF-SCS-MP2 Energies <==================
	-----------------------------------------------------------
	 SCS Same-Spin Scale       =       0.3333333333333333 [-]
	 SCS Opposite-Spin Scale   =       1.2000000000000000 [-]
	 SCS Same-Spin Energy      =      -0.1242605871824172 [Eh]
	 SCS Opposite-Spin Energy  =      -1.2979148366894455 [Eh]
	 SCS Correlation Energy    =      -1.4221754238718627 [Eh]
	 SCS Total Energy          =   -2878.2239110596792671 [Eh]
	-----------------------------------------------------------

*** Psi4 exiting successfully. Buy a developer a beer!
