                               Psi4 1.8.2 release

  ==> Input File <==

--------------------------------------------------------------------------
MEMORY 60 GB

molecule dimer {
0 1
Gh(Br)     0.000000     0.000000     0.000000
Gh(O)     -0.871621     3.438375     0.383857
Gh(H)     -0.516984     2.572586     0.549013
Gh(H)     -0.363617     4.028043     0.929764
Gh(O)      1.138510     0.841363    -2.887618
Gh(H)      0.694724     0.580199    -2.053917
Gh(H)      2.017329     1.105167    -2.581160
O         -3.253094     1.026650    -0.425546
H         -3.390640     1.760968    -1.019761
H         -2.319946     0.849586    -0.372891
Gh(O)     -0.964777    -1.798146    -2.591474
Gh(H)     -0.682415    -1.413219    -1.710488
Gh(H)     -1.809853    -2.198752    -2.407912
Gh(O)      0.991667     1.473530     2.961882
Gh(H)      1.085614     0.936924     2.131226
Gh(H)      0.113098     1.201158     3.227799

units ang
no_reorient
no_com
symmetry c1
}

set {
basis        aug-cc-pVTZ
scf_type     df
}

energy("mp2")
--------------------------------------------------------------------------

    Molecular point group: c1

    Geometry (in Angstrom), charge = 0, multiplicity = 1:

       Center              X                  Y                   Z               Mass
    ------------   -----------------  -----------------  -----------------  -----------------
      Gh(BR)          0.000000000000     0.000000000000     0.000000000000    78.918337600000
      Gh(O)          -0.871621000000     3.438375000000     0.383857000000    15.994914619570
      Gh(H)          -0.516984000000     2.572586000000     0.549013000000     1.007825032230
      Gh(H)          -0.363617000000     4.028043000000     0.929764000000     1.007825032230
      Gh(O)           1.138510000000     0.841363000000    -2.887618000000    15.994914619570
      Gh(H)           0.694724000000     0.580199000000    -2.053917000000     1.007825032230
      Gh(H)           2.017329000000     1.105167000000    -2.581160000000     1.007825032230
         O           -3.253094000000     1.026650000000    -0.425546000000    15.994914619570
         H           -3.390640000000     1.760968000000    -1.019761000000     1.007825032230
         H           -2.319946000000     0.849586000000    -0.372891000000     1.007825032230
      Gh(O)          -0.964777000000    -1.798146000000    -2.591474000000    15.994914619570
      Gh(H)          -0.682415000000    -1.413219000000    -1.710488000000     1.007825032230
      Gh(H)          -1.809853000000    -2.198752000000    -2.407912000000     1.007825032230
      Gh(O)           0.991667000000     1.473530000000     2.961882000000    15.994914619570
      Gh(H)           1.085614000000     0.936924000000     2.131226000000     1.007825032230
      Gh(H)           0.113098000000     1.201158000000     3.227799000000     1.007825032230

  Charge       = 0
  Multiplicity = 1
  Basis Set: AUG-CC-PVTZ
    Blend: AUG-CC-PVTZ
  Basis Set: (AUG-CC-PVTZ AUX)
    Blend: AUG-CC-PVTZ-JKFIT

    Orbital Energies [Eh]
    ---------------------

    Doubly Occupied:

       1A    -20.564541     2A     -1.352879     3A     -0.727972
       4A     -0.577732     5A     -0.509502

  @DF-RHF Final Energy:   -76.06077338462428

   => Energetics <=

    Nuclear Repulsion Energy =              9.2270723515220361
    One-Electron Energy =                -123.1104376115593624
    Two-Electron Energy =                  37.8225918754130319
    Total Energy =                        -76.0607733846242979
 Dipole X            :         60.5092804          -59.9710973            0.5381830
 Dipole Y            :        -20.0778280           20.4539307            0.3761027
 Dipole Z            :          8.6994515           -9.0650540           -0.3656025
 Magnitude           :                                                    0.7515048
  Basis Set: (AUG-CC-PVTZ AUX)
    Blend: AUG-CC-PVTZ-RI
	 Reference Energy          =     -76.0607733846242837 [Eh]
	 Singles Energy            =      -0.0000000000000000 [Eh]
	 Same-Spin Energy          =      -0.0682566786708131 [Eh]
	 Opposite-Spin Energy      =      -0.2154125243952182 [Eh]
	 Correlation Energy        =      -0.2836692030660314 [Eh]
	 Total Energy              =     -76.3444425876903097 [Eh]

	 ================> DF-SCS-MP2 Energies <==================
	-----------------------------------------------------------
	 SCS Same-Spin Scale       =       0.3333333333333333 [-]
	 SCS Opposite-Spin Scale   =       1.2000000000000000 [-]
	 SCS Same-Spin Energy      =      -0.0227522262236044 [Eh]
	 SCS Opposite-Spin Energy  =      -0.2584950292742619 [Eh]
	 SCS Correlation Energy    =      -0.2812472554978663 [Eh]
	 SCS Total Energy          =     -76.3420206401221435 [Eh]
	-----------------------------------------------------------

*** Psi4 exiting successfully. Buy a developer a beer!
