                               Psi4 1.8.2 release

  ==> Input File <==

--------------------------------------------------------------------------
MEMORY 60 GB

molecule dimer {
0 1
Gh(Br)     0.000000     0.000000     0.000000
Gh(O)      0.907598    -3.034016    -0.451314
Gh(H)      0.892890    -2.061947    -0.424380
Gh(H)      1.171918    -3.349880     0.408425
O          2.003620    -0.060569     2.713891
H          1.339719     0.557371     2.425223
H          2.579032     0.542567     3.258704
Gh(O)      1.853817     0.385000    -2.659522
Gh(H)      2.431046    -0.410080    -2.411062
Gh(H)      1.417523     0.543139    -1.862559
Gh(O)      0.164337     3.154937    -0.854991
Gh(H)      0.250547     2.315141    -0.320131
Gh(H)      1.066341     3.225957    -1.078370

units ang
no_reorient
no_com
symmetry c1
}

set {
basis        aug-cc-pVTZ
scf_type     df
}

energy("mp2")
--------------------------------------------------------------------------

    Molecular point group: c1

    Geometry (in Angstrom), charge = 0, multiplicity = 1:

       Center              X                  Y                   Z               Mass
    ------------   -----------------  -----------------  -----------------  -----------------
      Gh(BR)          0.000000000000     0.000000000000     0.000000000000    78.918337600000
      Gh(O)           0.907598000000    -3.034016000000    -0.451314000000    15.994914619570
      Gh(H)           0.892890000000    -2.061947000000    -0.424380000000     1.007825032230
      Gh(H)           1.171918000000    -3.349880000000     0.408425000000     1.007825032230
         O            2.003620000000    -0.060569000000     2.713891000000    15.994914619570
         H            1.339719000000     0.557371000000     2.425223000000     1.007825032230
         H            2.579032000000     0.542567000000     3.258704000000     1.007825032230
      Gh(O)           1.853817000000     0.385000000000    -2.659522000000    15.994914619570
      Gh(H)           2.431046000000    -0.410080000000    -2.411062000000     1.007825032230
      Gh(H)           1.417523000000     0.543139000000    -1.862559000000     1.007825032230
      Gh(O)           0.164337000000     3.154937000000    -0.854991000000    15.994914619570
      Gh(H)           0.250547000000     2.315141000000    -0.320131000000     1.007825032230
      Gh(H)           1.066341000000     3.225957000000    -1.078370000000     1.007825032230

  Charge       = 0
  Multiplicity = 1
  Basis Set: AUG-CC-PVTZ
    Blend: AUG-CC-PVTZ
  Basis Set: (AUG-CC-PVTZ AUX)
    Blend: AUG-CC-PVTZ-JKFIT

    Orbital Energies [Eh]
    ---------------------

    Doubly Occupied:

       1A    -20.571906     2A     -1.348760     3A     -0.700547
       4A     -0.590118     5A     -0.510357

  @DF-RHF Final Energy:   -76.05749489567268

   => Energetics <=

    Nuclear Repulsion Energy =              9.0531620231129448
    One-Electron Energy =                -122.7779341425987241
    Two-Electron Energy =                  37.6672772238131088
    Total Energy =                        -76.0574948956726757
 Dipole X            :        -37.7605903           37.6957106           -0.0648797
 Dipole Y            :         -0.3678394            1.1629110            0.7950716
 Dipole Z            :        -51.6070321           51.7691511            0.1621190
 Magnitude           :                                                    0.8140214
  Basis Set: (AUG-CC-PVTZ AUX)
    Blend: AUG-CC-PVTZ-RI
	 Reference Energy          =     -76.0574948956726757 [Eh]
	 Singles Energy            =      -0.0000000000000000 [Eh]
	 Same-Spin Energy          =      -0.0687503068956978 [Eh]
	 Opposite-Spin Energy      =      -0.2165288772166618 [Eh]
	 Correlation Energy        =      -0.2852791841123596 [Eh]
	 Total Energy              =     -76.3427740797850305 [Eh]

	 ================> DF-SCS-MP2 Energies <==================
	-----------------------------------------------------------
	 SCS Same-Spin Scale       =       0.3333333333333333 [-]
	 SCS Opposite-Spin Scale   =       1.2000000000000000 [-]
	 SCS Same-Spin Energy      =      -0.0229167689652326 [Eh]
	 SCS Opposite-Spin Energy  =      -0.2598346526599942 [Eh]
	 SCS Correlation Energy    =      -0.2827514216252268 [Eh]
	 SCS Total Energy          =     -76.3402463172978969 [Eh]
	-----------------------------------------------------------

*** Psi4 exiting successfully. Buy a developer a beer!
