                               Psi4 1.8.2 release

  ==> Input File <==

--------------------------------------------------------------------------
MEMORY 60 GB

molecule dimer {
-1 1
Br         0.000000     0.000000     0.000000
O          0.621247    -0.253886     3.242490
H          0.234566     0.055975     2.396675
H          0.415263     0.421387     3.885040
O         -0.516566     3.494598     0.217594
H         -0.532078     2.526620     0.174775
H         -1.057899     3.829521    -0.470581
O         -2.996306     0.834889     0.610223
H         -2.026873     0.813467     0.442268
H         -3.320349    -0.026119     0.263152
O          2.165559     2.220841    -1.401461
H          1.379243     2.086322    -1.915582
H          1.950098     2.837132    -0.711281
O         -0.802070     1.843563    -2.594464
H         -1.311892     2.734430    -2.481891
H         -0.751670     1.215067    -1.902978

units ang
no_reorient
no_com
symmetry c1
}

set {
basis        aug-cc-pVTZ
scf_type     df
}

energy("mp2")
--------------------------------------------------------------------------

    Molecular point group: c1

    Geometry (in Angstrom), charge = -1, multiplicity = 1:

       Center              X                  Y                   Z               Mass
    ------------   -----------------  -----------------  -----------------  -----------------
         BR           0.000000000000     0.000000000000     0.000000000000    78.918337600000
         O            0.621247000000    -0.253886000000     3.242490000000    15.994914619570
         H            0.234566000000     0.055975000000     2.396675000000     1.007825032230
         H            0.415263000000     0.421387000000     3.885040000000     1.007825032230
         O           -0.516566000000     3.494598000000     0.217594000000    15.994914619570
         H           -0.532078000000     2.526620000000     0.174775000000     1.007825032230
         H           -1.057899000000     3.829521000000    -0.470581000000     1.007825032230
         O           -2.996306000000     0.834889000000     0.610223000000    15.994914619570
         H           -2.026873000000     0.813467000000     0.442268000000     1.007825032230
         H           -3.320349000000    -0.026119000000     0.263152000000     1.007825032230
         O            2.165559000000     2.220841000000    -1.401461000000    15.994914619570
         H            1.379243000000     2.086322000000    -1.915582000000     1.007825032230
         H            1.950098000000     2.837132000000    -0.711281000000     1.007825032230
         O           -0.802070000000     1.843563000000    -2.594464000000    15.994914619570
         H           -1.311892000000     2.734430000000    -2.481891000000     1.007825032230
         H           -0.751670000000     1.215067000000    -1.902978000000     1.007825032230

  Charge       = -1
  Multiplicity = 1
  Basis Set: AUG-CC-PVTZ
    Blend: AUG-CC-PVTZ
  Basis Set: (AUG-CC-PVTZ AUX)
    Blend: AUG-CC-PVTZ-JKFIT

    Orbital Energies [Eh]
    ---------------------

    Doubly Occupied:

       1A   -489.787110     2A    -64.927718     3A    -58.282235
       4A    -58.282192     5A    -58.282116     6A    -20.438173
       7A    -20.437974     8A    -20.416614     9A    -20.414873
      10A    -20.407403    11A     -9.600218    12A     -7.207984
      13A     -7.207821    14A     -7.207299    15A     -2.949780
      16A     -2.949768    17A     -2.949121    18A     -2.948900
      19A     -2.948734    20A     -1.230456    21A     -1.211407
      22A     -1.200660    23A     -1.199072    24A     -1.190054
      25A     -0.770377    26A     -0.612917    27A     -0.603264
      28A     -0.574399    29A     -0.566733    30A     -0.555356
      31A     -0.462230    32A     -0.437202    33A     -0.435179
      34A     -0.434915    35A     -0.426901    36A     -0.386537
      37A     -0.378974    38A     -0.361149    39A     -0.358456
      40A     -0.357808    41A     -0.218867    42A     -0.217146
      43A     -0.207672

  @DF-RHF Final Energy: -2952.85895045327607

   => Energetics <=

    Nuclear Repulsion Energy =            457.8430532356994718
    One-Electron Energy =               -5037.3164594690051672
    Two-Electron Energy =                1626.6144557800291750
    Total Energy =                      -2952.8589504532765204
 Dipole X            :         31.7934381          -32.5914999           -0.7980617
 Dipole Y            :       -154.8800373          154.2278094           -0.6522278
 Dipole Z            :         -0.9121570            0.5190189           -0.3931380
 Magnitude           :                                                    1.1031143
  Basis Set: (AUG-CC-PVTZ AUX)
    Blend: AUG-CC-PVTZ-RI
	 Reference Energy          =   -2952.8589504532760657 [Eh]
	 Singles Energy            =      -0.0000000000000000 [Eh]
	 Same-Spin Energy          =      -0.4473281785133729 [Eh]
	 Opposite-Spin Energy      =      -1.3057720913752591 [Eh]
	 Correlation Energy        =      -1.7531002698886320 [Eh]
	 Total Energy              =   -2954.6120507231648844 [Eh]

	 ================> DF-SCS-MP2 Energies <==================
	-----------------------------------------------------------
	 SCS Same-Spin Scale       =       0.3333333333333333 [-]
	 SCS Opposite-Spin Scale   =       1.2000000000000000 [-]
	 SCS Same-Spin Energy      =      -0.1491093928377910 [Eh]
	 SCS Opposite-Spin Energy  =      -1.5669265096503109 [Eh]
	 SCS Correlation Energy    =      -1.7160359024881018 [Eh]
	 SCS Total Energy          =   -2954.5749863557639401 [Eh]
	-----------------------------------------------------------

*** Psi4 exiting successfully. Buy a developer a beer!
