                               Psi4 1.8.2 release

  ==> Input File <==

--------------------------------------------------------------------------
MEMORY 60 GB

molecule dimer {
-1 1
Br         0.000000     0.000000     0.000000
O          2.465274    -2.082896    -1.151644
H          2.088415    -1.327484    -0.739582
H          3.392014    -2.150807    -0.795133
O         -2.741984    -0.795186    -1.139633
H         -3.050808    -1.748838    -1.012684
H         -1.833173    -0.702090    -0.816427
O         -1.323507     2.305848    -2.078266
H         -1.377126     1.531047    -1.554944
H         -2.005493     2.942304    -1.677368
O         -1.653707     2.630529     1.100887
H         -0.964169     2.021284     0.768719
H         -1.213494     3.129397     1.794661

units ang
no_reorient
no_com
symmetry c1
}

set {
basis        aug-cc-pVTZ
scf_type     df
}

energy("mp2")
--------------------------------------------------------------------------

    Molecular point group: c1

    Geometry (in Angstrom), charge = -1, multiplicity = 1:

       Center              X                  Y                   Z               Mass
    ------------   -----------------  -----------------  -----------------  -----------------
         BR           0.000000000000     0.000000000000     0.000000000000    78.918337600000
         O            2.465274000000    -2.082896000000    -1.151644000000    15.994914619570
         H            2.088415000000    -1.327484000000    -0.739582000000     1.007825032230
         H            3.392014000000    -2.150807000000    -0.795133000000     1.007825032230
         O           -2.741984000000    -0.795186000000    -1.139633000000    15.994914619570
         H           -3.050808000000    -1.748838000000    -1.012684000000     1.007825032230
         H           -1.833173000000    -0.702090000000    -0.816427000000     1.007825032230
         O           -1.323507000000     2.305848000000    -2.078266000000    15.994914619570
         H           -1.377126000000     1.531047000000    -1.554944000000     1.007825032230
         H           -2.005493000000     2.942304000000    -1.677368000000     1.007825032230
         O           -1.653707000000     2.630529000000     1.100887000000    15.994914619570
         H           -0.964169000000     2.021284000000     0.768719000000     1.007825032230
         H           -1.213494000000     3.129397000000     1.794661000000     1.007825032230

  Charge       = -1
  Multiplicity = 1
  Basis Set: AUG-CC-PVTZ
    Blend: AUG-CC-PVTZ
  Basis Set: (AUG-CC-PVTZ AUX)
    Blend: AUG-CC-PVTZ-JKFIT

    Orbital Energies [Eh]
    ---------------------

    Doubly Occupied:

       1A   -489.775620     2A    -64.916285     3A    -58.270774
       4A    -58.270748     5A    -58.270734     6A    -20.427238
       7A    -20.415046     8A    -20.401887     9A    -20.398293
      10A     -9.588855    11A     -7.196591    12A     -7.196418
      13A     -7.196092    14A     -2.938262    15A     -2.938189
      16A     -2.937843    17A     -2.937675    18A     -2.937602
      19A     -1.208242    20A     -1.197716    21A     -1.179338
      22A     -1.168935    23A     -0.758603    24A     -0.575579
      25A     -0.561999    26A     -0.550065    27A     -0.541967
      28A     -0.442841    29A     -0.438107    30A     -0.417664
      31A     -0.407726    32A     -0.370242    33A     -0.361827
      34A     -0.343231    35A     -0.339985    36A     -0.207193
      37A     -0.204407    38A     -0.198470

  @DF-RHF Final Energy: -2876.79454765158289

   => Energetics <=

    Nuclear Repulsion Energy =            337.6778344840466275
    One-Electron Energy =               -4691.9681826754640497
    Two-Electron Energy =                1477.4958005398343630
    Total Energy =                      -2876.7945476515828886
 Dipole X            :         59.9660963          -58.5724883            1.3936080
 Dipole Y            :        -38.5549700           38.0990953           -0.4558746
 Dipole Z            :         58.9018671          -57.0357253            1.8661418
 Magnitude           :                                                    2.3732783
  Basis Set: (AUG-CC-PVTZ AUX)
    Blend: AUG-CC-PVTZ-RI
	 Reference Energy          =   -2876.7945476515828886 [Eh]
	 Singles Energy            =      -0.0000000000000000 [Eh]
	 Same-Spin Energy          =      -0.3760475557430975 [Eh]
	 Opposite-Spin Energy      =      -1.0871701225826862 [Eh]
	 Correlation Energy        =      -1.4632176783257838 [Eh]
	 Total Energy              =   -2878.2577653299085796 [Eh]

	 ================> DF-SCS-MP2 Energies <==================
	-----------------------------------------------------------
	 SCS Same-Spin Scale       =       0.3333333333333333 [-]
	 SCS Opposite-Spin Scale   =       1.2000000000000000 [-]
	 SCS Same-Spin Energy      =      -0.1253491852476992 [Eh]
	 SCS Opposite-Spin Energy  =      -1.3046041470992233 [Eh]
	 SCS Correlation Energy    =      -1.4299533323469225 [Eh]
	 SCS Total Energy          =   -2878.2245009839298291 [Eh]
	-----------------------------------------------------------

*** Psi4 exiting successfully. Buy a developer a beer!
