                               Psi4 1.8.2 release

  ==> Input File <==

--------------------------------------------------------------------------
MEMORY 60 GB

molecule dimer {
-1 1
Br         0.000000     0.000000     0.000000
Gh(O)     -3.089947     1.034619     0.842009
Gh(H)     -3.734811     0.391946     0.529675
Gh(H)     -2.297161     0.715238     0.405981
Gh(O)     -2.233158    -2.307199     1.583647
Gh(H)     -2.798612    -2.457186     0.820221
Gh(H)     -1.458816    -1.809725     1.296922
Gh(O)     -0.611219     2.868519     1.544803
Gh(H)     -0.492191     2.014807     1.191864
Gh(H)      0.279621     2.996725     1.995565
Gh(O)     -1.434323     2.291860    -1.824576
Gh(H)     -0.902332     3.109212    -1.825781
Gh(H)     -0.845869     1.602856    -1.446966

units ang
no_reorient
no_com
symmetry c1
}

set {
basis        aug-cc-pVTZ
scf_type     df
}

energy("mp2")
--------------------------------------------------------------------------

    Molecular point group: c1

    Geometry (in Angstrom), charge = -1, multiplicity = 1:

       Center              X                  Y                   Z               Mass
    ------------   -----------------  -----------------  -----------------  -----------------
         BR           0.000000000000     0.000000000000     0.000000000000    78.918337600000
      Gh(O)          -3.089947000000     1.034619000000     0.842009000000    15.994914619570
      Gh(H)          -3.734811000000     0.391946000000     0.529675000000     1.007825032230
      Gh(H)          -2.297161000000     0.715238000000     0.405981000000     1.007825032230
      Gh(O)          -2.233158000000    -2.307199000000     1.583647000000    15.994914619570
      Gh(H)          -2.798612000000    -2.457186000000     0.820221000000     1.007825032230
      Gh(H)          -1.458816000000    -1.809725000000     1.296922000000     1.007825032230
      Gh(O)          -0.611219000000     2.868519000000     1.544803000000    15.994914619570
      Gh(H)          -0.492191000000     2.014807000000     1.191864000000     1.007825032230
      Gh(H)           0.279621000000     2.996725000000     1.995565000000     1.007825032230
      Gh(O)          -1.434323000000     2.291860000000    -1.824576000000    15.994914619570
      Gh(H)          -0.902332000000     3.109212000000    -1.825781000000     1.007825032230
      Gh(H)          -0.845869000000     1.602856000000    -1.446966000000     1.007825032230

  Charge       = -1
  Multiplicity = 1
  Basis Set: AUG-CC-PVTZ
    Blend: AUG-CC-PVTZ
  Basis Set: (AUG-CC-PVTZ AUX)
    Blend: AUG-CC-PVTZ-JKFIT

    Orbital Energies [Eh]
    ---------------------

    Doubly Occupied:

       1A   -489.721976     2A    -64.861612     3A    -58.216141
       4A    -58.216140     5A    -58.216139     6A     -9.533227
       7A     -7.140564     8A     -7.140558     9A     -7.140547
      10A     -2.882274    11A     -2.882266    12A     -2.882255
      13A     -2.882245    14A     -2.882235    15A     -0.685994
      16A     -0.139339    17A     -0.139336    18A     -0.139334

  @DF-RHF Final Energy: -2572.53372076708956

   => Energetics <=

    Nuclear Repulsion Energy =              0.0000000000000000
    One-Electron Energy =               -3593.6630789989580990
    Two-Electron Energy =                1021.1293582318686504
    Total Energy =                      -2572.5337207670895623
 Dipole X            :         -0.0003453            0.0000000           -0.0003453
 Dipole Y            :          0.0000083            0.0000000            0.0000083
 Dipole Z            :          0.0000460            0.0000000            0.0000460
 Magnitude           :                                                    0.0003484
  Basis Set: (AUG-CC-PVTZ AUX)
    Blend: AUG-CC-PVTZ-RI
	 Reference Energy          =   -2572.5337207670895623 [Eh]
	 Singles Energy            =      -0.0000000000000000 [Eh]
	 Same-Spin Energy          =      -0.0907017993699370 [Eh]
	 Opposite-Spin Energy      =      -0.2111436132128610 [Eh]
	 Correlation Energy        =      -0.3018454125827980 [Eh]
	 Total Energy              =   -2572.8355661796722416 [Eh]

	 ================> DF-SCS-MP2 Energies <==================
	-----------------------------------------------------------
	 SCS Same-Spin Scale       =       0.3333333333333333 [-]
	 SCS Opposite-Spin Scale   =       1.2000000000000000 [-]
	 SCS Same-Spin Energy      =      -0.0302339331233123 [Eh]
	 SCS Opposite-Spin Energy  =      -0.2533723358554332 [Eh]
	 SCS Correlation Energy    =      -0.2836062689787455 [Eh]
	 SCS Total Energy          =   -2572.8173270360684910 [Eh]
	-----------------------------------------------------------

*** Psi4 exiting successfully. Buy a developer a beer!
