                               Psi4 1.9 release

  ==> Input File <==

--------------------------------------------------------------------------
MEMORY 60 GB

molecule dimer {
-1 1
Br     0.000000     0.000000     0.000000
--
0 1
O     -1.556110    -2.946603    -0.307399
H     -1.448311    -3.834352    -0.530023
H     -0.696136    -2.475940    -0.482361
O     -0.086996     0.125946     3.353392
H     -0.789442     0.773124     3.412034
H      0.173565     0.233040     2.501182
O      1.506198     2.404300     1.895924
H      1.138172     1.617521     1.469830
H      2.068506     2.028144     2.516707
O      3.466933     0.167256    -0.603178
H      2.462198     0.362718    -0.327444
H      3.349089    -0.691950    -1.088854
O      1.507524     0.971719    -2.962000
H      1.482423     1.837733    -3.370919
H      1.113174     1.149479    -2.095101
O     -3.321768     0.154397     0.868399
H     -2.339922     0.333567     0.860598
H     -3.394288    -0.551032     0.257363

units ang
no_reorient
no_com
symmetry c1
}

set {
basis        aug-cc-pVTZ
scf_type     df
}

energy("mp2", bsse_type="cp")
--------------------------------------------------------------------------

                               Psi4 1.9 release
    Molecular point group: c1
  Charge       = 0
  Multiplicity = 1
  Basis Set: AUG-CC-PVTZ
    Blend: AUG-CC-PVTZ
  Basis Set: (AUG-CC-PVTZ AUX)
    Blend: AUG-CC-PVTZ-JKFIT
  @DF-RHF Final Energy:  -456.32603747088734
    Total Energy =                       -456.3260374708873428
 Dipole X            :        -28.6271939           28.8093963            0.1822024
 Dipole Y            :        -15.3894323           14.7364094           -0.6530229
 Dipole Z            :        -40.7474933           39.8432048           -0.9042885
 Magnitude           :                                                    1.1302099
  Basis Set: (AUG-CC-PVTZ AUX)
    Blend: AUG-CC-PVTZ-RI
	 Reference Energy          =    -456.3260374708873428 [Eh]
	 Singles Energy            =      -0.0000000000000000 [Eh]
	 Same-Spin Energy          =      -0.4134077904279406 [Eh]
	 Opposite-Spin Energy      =      -1.3004779012051388 [Eh]
	 Correlation Energy        =      -1.7138856916330796 [Eh]
	 Total Energy              =    -458.0399231625204379 [Eh]
	 SCS Total Energy          =    -458.0244135491428210 [Eh]
                               Psi4 1.9 release
    Molecular point group: c1
  Multiplicity = 1
  Basis Set: AUG-CC-PVTZ
    Blend: AUG-CC-PVTZ
  Basis Set: (AUG-CC-PVTZ AUX)
    Blend: AUG-CC-PVTZ-JKFIT
  @DF-RHF Final Energy: -2572.53373576390049
    Total Energy =                      -2572.5337357639004949
  Basis Set: (AUG-CC-PVTZ AUX)
	 Singles Energy            =      -0.0000000000000000 [Eh]
	 Same-Spin Energy          =      -0.0915374794450296 [Eh]
	 Opposite-Spin Energy      =      -0.2131789187490467 [Eh]
	 Correlation Energy        =      -0.3047163981940763 [Eh]
	 Total Energy              =   -2572.8384521620946543 [Eh]
	 SCS Total Energy          =   -2572.8200629595476130 [Eh]
                               Psi4 1.9 release
    Molecular point group: c1

    Geometry (in Bohr), charge = -1, multiplicity = 1:

       Center              X                  Y                   Z               Mass
    ------------   -----------------  -----------------  -----------------  -----------------
         BR           0.000000000000     0.000000000000     0.000000000000    78.918337600000
         O           -2.940621721086    -5.568272670452    -0.580899921240    15.994914619570
         H           -2.736911134488    -7.245875148601    -1.001598310194     1.007825032230
         H           -1.315506386072    -4.678848503066    -0.911530183602     1.007825032230
         O           -0.164398614010     0.238003446597     6.336992471301    15.994914619570
         H           -1.491829171934     1.460992621018     6.447809790750     1.007825032230
         H            0.327990314965     0.440381776277     4.726548969925     1.007825032230
         O            2.846301710712     4.543468523438     3.582777114683    15.994914619570
         H            2.150833363665     3.056671692177     2.777576150982     1.007825032230
         H            3.908909828866     3.832636702991     4.755886968023     1.007825032230
         O            6.551553865312     0.316068032840    -1.139841224901    15.994914619570
         H            4.652879886650     0.685437680774    -0.618779481424     1.007825032230
         H            6.328860979783    -1.307595992511    -2.057635850609     1.007825032230
         O            2.848807487555     1.836282780904    -5.597368783606    15.994914619570
         H            2.801373472080     3.472812061716    -6.370113701102     1.007825032230
         H            2.103593989980     2.172200496965    -3.959167095173     1.007825032230
         O           -6.277231772310     0.291768044592     1.641036277621    15.994914619570
         H           -4.421811734934     0.630350274491     1.626294524117     1.007825032230
         H           -6.414274710928    -1.041299566363     0.486345584826     1.007825032230

  Charge       = -1
  Multiplicity = 1
  Basis Set: AUG-CC-PVTZ
    Blend: AUG-CC-PVTZ
  Basis Set: (AUG-CC-PVTZ AUX)
    Blend: AUG-CC-PVTZ-JKFIT

    Orbital Energies [Eh]
    ---------------------

    Doubly Occupied:

       1A   -489.807755     2A    -64.948319     3A    -58.302811
       4A    -58.302809     5A    -58.302771     6A    -20.440783
       7A    -20.435761     8A    -20.429605     9A    -20.425898
      10A    -20.422339    11A    -20.417813    12A     -9.620710
      13A     -7.228345    14A     -7.228267    15A     -7.228019
      16A     -2.969993    17A     -2.969987    18A     -2.969700
      19A     -2.969610    20A     -2.969536    21A     -1.237147
      22A     -1.229127    23A     -1.227412    24A     -1.221257
      25A     -1.202813    26A     -1.177956    27A     -0.788995
      28A     -0.601614    29A     -0.594035    30A     -0.583228
      31A     -0.579369    32A     -0.560942    33A     -0.529915
      34A     -0.467555    35A     -0.460204    36A     -0.458690
      37A     -0.457165    38A     -0.444579    39A     -0.438151
      40A     -0.386941    41A     -0.386290    42A     -0.383726
      43A     -0.368204    44A     -0.362675    45A     -0.356421
      46A     -0.238065    47A     -0.235713    48A     -0.232099

  @DF-RHF Final Energy: -3028.92636680293253

   => Energetics <=

    Nuclear Repulsion Energy =            556.5738518414798364
    One-Electron Energy =               -5339.7981853573073749
    Two-Electron Energy =                1754.2979667128943220
    Total Energy =                      -3028.9263668029329892
 Dipole X            :        -28.9735492           28.8093963           -0.1641529
 Dipole Y            :        -15.5777483           14.7364094           -0.8413389
 Dipole Z            :        -40.9905295           39.8432048           -1.1473247
 Magnitude           :                                                    1.4321841
  Basis Set: (AUG-CC-PVTZ AUX)
    Blend: AUG-CC-PVTZ-RI
	 Reference Energy          =   -3028.9263668029325345 [Eh]
	 Singles Energy            =      -0.0000000000000000 [Eh]
	 Same-Spin Energy          =      -0.5159292896100992 [Eh]
	 Opposite-Spin Energy      =      -1.5217368941268197 [Eh]
	 Correlation Energy        =      -2.0376661837369188 [Eh]
	 Total Energy              =   -3030.9640329866692809 [Eh]

	 ================> DF-SCS-MP2 Energies <==================
	-----------------------------------------------------------
	 SCS Same-Spin Scale       =       0.3333333333333333 [-]
	 SCS Opposite-Spin Scale   =       1.2000000000000000 [-]
	 SCS Same-Spin Energy      =      -0.1719764298700331 [Eh]
	 SCS Opposite-Spin Energy  =      -1.8260842729521836 [Eh]
	 SCS Correlation Energy    =      -1.9980607028222166 [Eh]
	 SCS Total Energy          =   -3030.9244275057549203 [Eh]
	-----------------------------------------------------------

*** Psi4 exiting successfully. Buy a developer a beer!
