                               Psi4 1.8.2 release

  ==> Input File <==

--------------------------------------------------------------------------
MEMORY 60 GB

molecule dimer {
0 1
Gh(Br)     0.000000     0.000000     0.000000
Gh(O)      2.794095    -1.387479     0.567346
Gh(H)      1.955440    -0.895211     0.196524
Gh(H)      3.481853    -0.702595     0.669128
Gh(O)      2.335776     1.864406     0.831723
Gh(H)      1.699945     1.187957     0.609791
Gh(H)      1.817179     2.598588     1.156693
O         -0.357779     0.030054     3.245802
H         -0.127128     0.352128     2.389975
H         -0.011989     0.692795     3.899278

units ang
no_reorient
no_com
symmetry c1
}

set {
basis        aug-cc-pVTZ
scf_type     df
}

energy("mp2")
--------------------------------------------------------------------------

    Molecular point group: c1

    Geometry (in Angstrom), charge = 0, multiplicity = 1:

       Center              X                  Y                   Z               Mass
    ------------   -----------------  -----------------  -----------------  -----------------
      Gh(BR)          0.000000000000     0.000000000000     0.000000000000    78.918337600000
      Gh(O)           2.794095000000    -1.387479000000     0.567346000000    15.994914619570
      Gh(H)           1.955440000000    -0.895211000000     0.196524000000     1.007825032230
      Gh(H)           3.481853000000    -0.702595000000     0.669128000000     1.007825032230
      Gh(O)           2.335776000000     1.864406000000     0.831723000000    15.994914619570
      Gh(H)           1.699945000000     1.187957000000     0.609791000000     1.007825032230
      Gh(H)           1.817179000000     2.598588000000     1.156693000000     1.007825032230
         O           -0.357779000000     0.030054000000     3.245802000000    15.994914619570
         H           -0.127128000000     0.352128000000     2.389975000000     1.007825032230
         H           -0.011989000000     0.692795000000     3.899278000000     1.007825032230

  Charge       = 0
  Multiplicity = 1
  Basis Set: AUG-CC-PVTZ
    Blend: AUG-CC-PVTZ
  Basis Set: (AUG-CC-PVTZ AUX)
    Blend: AUG-CC-PVTZ-JKFIT

    Orbital Energies [Eh]
    ---------------------

    Doubly Occupied:

       1A    -20.568003     2A     -1.347273     3A     -0.715890
       4A     -0.578764     5A     -0.508922

  @DF-RHF Final Energy:   -76.05855859989303

   => Energetics <=

    Nuclear Repulsion Energy =              9.0938029644315002
    One-Electron Energy =                -122.8670179356888781
    Two-Electron Energy =                  37.7146563713643417
    Total Energy =                        -76.0585585998930327
 Dipole X            :          6.0543935           -5.6717276            0.3826659
 Dipole Y            :         -1.7753509            2.4289689            0.6536181
 Dipole Z            :        -61.0971940           60.9543804           -0.1428136
 Magnitude           :                                                    0.7707435
  Basis Set: (AUG-CC-PVTZ AUX)
    Blend: AUG-CC-PVTZ-RI
	 Reference Energy          =     -76.0585585998930327 [Eh]
	 Singles Energy            =      -0.0000000000000000 [Eh]
	 Same-Spin Energy          =      -0.0685215488192174 [Eh]
	 Opposite-Spin Energy      =      -0.2161003826586317 [Eh]
	 Correlation Energy        =      -0.2846219314778491 [Eh]
	 Total Energy              =     -76.3431805313708765 [Eh]

	 ================> DF-SCS-MP2 Energies <==================
	-----------------------------------------------------------
	 SCS Same-Spin Scale       =       0.3333333333333333 [-]
	 SCS Opposite-Spin Scale   =       1.2000000000000000 [-]
	 SCS Same-Spin Energy      =      -0.0228405162730725 [Eh]
	 SCS Opposite-Spin Energy  =      -0.2593204591903580 [Eh]
	 SCS Correlation Energy    =      -0.2821609754634305 [Eh]
	 SCS Total Energy          =     -76.3407195753564594 [Eh]
	-----------------------------------------------------------

*** Psi4 exiting successfully. Buy a developer a beer!
