                               Psi4 1.8.2 release

  ==> Input File <==

--------------------------------------------------------------------------
MEMORY 60 GB

molecule dimer {
0 1
Gh(Br)     0.000000     0.000000     0.000000
Gh(O)     -2.114396    -0.823968    -2.451740
Gh(H)     -1.344934    -0.815549    -1.892709
Gh(H)     -2.578301    -1.686826    -2.349784
Gh(O)     -2.840106    -0.818403     1.694288
Gh(H)     -2.923211    -1.709126     1.352216
Gh(H)     -1.976154    -0.530056     1.405183
Gh(O)      0.359761    -1.678973     2.757291
Gh(H)      0.155656    -1.071042     3.436648
Gh(H)      0.309349    -1.206416     1.893897
O         -0.002582    -3.436636     0.122679
H         -0.128662    -2.474547     0.122748
H          0.840782    -3.640659    -0.311875
Gh(O)      3.119434    -1.374833    -0.676470
Gh(H)      2.298457    -1.110581    -0.190519
Gh(H)      3.320939    -2.236567    -0.244513

units ang
no_reorient
no_com
symmetry c1
}

set {
basis        aug-cc-pVTZ
scf_type     df
}

energy("mp2")
--------------------------------------------------------------------------

    Molecular point group: c1

    Geometry (in Angstrom), charge = 0, multiplicity = 1:

       Center              X                  Y                   Z               Mass
    ------------   -----------------  -----------------  -----------------  -----------------
      Gh(BR)          0.000000000000     0.000000000000     0.000000000000    78.918337600000
      Gh(O)          -2.114396000000    -0.823968000000    -2.451740000000    15.994914619570
      Gh(H)          -1.344934000000    -0.815549000000    -1.892709000000     1.007825032230
      Gh(H)          -2.578301000000    -1.686826000000    -2.349784000000     1.007825032230
      Gh(O)          -2.840106000000    -0.818403000000     1.694288000000    15.994914619570
      Gh(H)          -2.923211000000    -1.709126000000     1.352216000000     1.007825032230
      Gh(H)          -1.976154000000    -0.530056000000     1.405183000000     1.007825032230
      Gh(O)           0.359761000000    -1.678973000000     2.757291000000    15.994914619570
      Gh(H)           0.155656000000    -1.071042000000     3.436648000000     1.007825032230
      Gh(H)           0.309349000000    -1.206416000000     1.893897000000     1.007825032230
         O           -0.002582000000    -3.436636000000     0.122679000000    15.994914619570
         H           -0.128662000000    -2.474547000000     0.122748000000     1.007825032230
         H            0.840782000000    -3.640659000000    -0.311875000000     1.007825032230
      Gh(O)           3.119434000000    -1.374833000000    -0.676470000000    15.994914619570
      Gh(H)           2.298457000000    -1.110581000000    -0.190519000000     1.007825032230
      Gh(H)           3.320939000000    -2.236567000000    -0.244513000000     1.007825032230

  Charge       = 0
  Multiplicity = 1
  Basis Set: AUG-CC-PVTZ
    Blend: AUG-CC-PVTZ
  Basis Set: (AUG-CC-PVTZ AUX)
    Blend: AUG-CC-PVTZ-JKFIT

    Orbital Energies [Eh]
    ---------------------

    Doubly Occupied:

       1A    -20.567413     2A     -1.343897     3A     -0.718379
       4A     -0.574145     5A     -0.507953

  @DF-RHF Final Energy:   -76.05923662352477

   => Energetics <=

    Nuclear Repulsion Energy =              9.0608169461823778
    One-Electron Energy =                -122.8165289332329877
    Two-Electron Energy =                  37.6964753635258347
    Total Energy =                        -76.0592366235247681
 Dipole X            :         -0.8275631            1.3066776            0.4791145
 Dipole Y            :         64.0174100          -63.5104712            0.5069388
 Dipole Z            :         -1.7877107            1.4972395           -0.2904713
 Magnitude           :                                                    0.7555866
  Basis Set: (AUG-CC-PVTZ AUX)
    Blend: AUG-CC-PVTZ-RI
	 Reference Energy          =     -76.0592366235247681 [Eh]
	 Singles Energy            =      -0.0000000000000000 [Eh]
	 Same-Spin Energy          =      -0.0685780694723969 [Eh]
	 Opposite-Spin Energy      =      -0.2165401536234171 [Eh]
	 Correlation Energy        =      -0.2851182230958139 [Eh]
	 Total Energy              =     -76.3443548466205755 [Eh]

	 ================> DF-SCS-MP2 Energies <==================
	-----------------------------------------------------------
	 SCS Same-Spin Scale       =       0.3333333333333333 [-]
	 SCS Opposite-Spin Scale   =       1.2000000000000000 [-]
	 SCS Same-Spin Energy      =      -0.0228593564907990 [Eh]
	 SCS Opposite-Spin Energy  =      -0.2598481843481005 [Eh]
	 SCS Correlation Energy    =      -0.2827075408388994 [Eh]
	 SCS Total Energy          =     -76.3419441643636674 [Eh]
	-----------------------------------------------------------

*** Psi4 exiting successfully. Buy a developer a beer!
