                               Psi4 1.8.2 release

  ==> Input File <==

--------------------------------------------------------------------------
MEMORY 60 GB

molecule dimer {
0 1
Gh(Br)     0.000000     0.000000     0.000000
O         -3.089947     1.034619     0.842009
H         -3.734811     0.391946     0.529675
H         -2.297161     0.715238     0.405981
Gh(O)     -2.233158    -2.307199     1.583647
Gh(H)     -2.798612    -2.457186     0.820221
Gh(H)     -1.458816    -1.809725     1.296922
Gh(O)     -0.611219     2.868519     1.544803
Gh(H)     -0.492191     2.014807     1.191864
Gh(H)      0.279621     2.996725     1.995565
Gh(O)     -1.434323     2.291860    -1.824576
Gh(H)     -0.902332     3.109212    -1.825781
Gh(H)     -0.845869     1.602856    -1.446966

units ang
no_reorient
no_com
symmetry c1
}

set {
basis        aug-cc-pVTZ
scf_type     df
}

energy("mp2")
--------------------------------------------------------------------------

    Molecular point group: c1

    Geometry (in Angstrom), charge = 0, multiplicity = 1:

       Center              X                  Y                   Z               Mass
    ------------   -----------------  -----------------  -----------------  -----------------
      Gh(BR)          0.000000000000     0.000000000000     0.000000000000    78.918337600000
         O           -3.089947000000     1.034619000000     0.842009000000    15.994914619570
         H           -3.734811000000     0.391946000000     0.529675000000     1.007825032230
         H           -2.297161000000     0.715238000000     0.405981000000     1.007825032230
      Gh(O)          -2.233158000000    -2.307199000000     1.583647000000    15.994914619570
      Gh(H)          -2.798612000000    -2.457186000000     0.820221000000     1.007825032230
      Gh(H)          -1.458816000000    -1.809725000000     1.296922000000     1.007825032230
      Gh(O)          -0.611219000000     2.868519000000     1.544803000000    15.994914619570
      Gh(H)          -0.492191000000     2.014807000000     1.191864000000     1.007825032230
      Gh(H)           0.279621000000     2.996725000000     1.995565000000     1.007825032230
      Gh(O)          -1.434323000000     2.291860000000    -1.824576000000    15.994914619570
      Gh(H)          -0.902332000000     3.109212000000    -1.825781000000     1.007825032230
      Gh(H)          -0.845869000000     1.602856000000    -1.446966000000     1.007825032230

  Charge       = 0
  Multiplicity = 1
  Basis Set: AUG-CC-PVTZ
    Blend: AUG-CC-PVTZ
  Basis Set: (AUG-CC-PVTZ AUX)
    Blend: AUG-CC-PVTZ-JKFIT

    Orbital Energies [Eh]
    ---------------------

    Doubly Occupied:

       1A    -20.569421     2A     -1.354447     3A     -0.707935
       4A     -0.591853     5A     -0.511162

  @DF-RHF Final Energy:   -76.05978448069554

   => Energetics <=

    Nuclear Repulsion Energy =              9.1682785659618862
    One-Electron Energy =                -122.9864875515914946
    Two-Electron Energy =                  37.7584245049340694
    Total Energy =                        -76.0597844806955408
 Dipole X            :         58.2099492          -58.1120037            0.0979456
 Dipole Y            :        -18.3647710           17.7334470           -0.6313240
 Dipole Z            :        -14.9888264           14.4974648           -0.4913615
 Magnitude           :                                                    0.8059774
  Basis Set: (AUG-CC-PVTZ AUX)
    Blend: AUG-CC-PVTZ-RI
	 Reference Energy          =     -76.0597844806955408 [Eh]
	 Singles Energy            =      -0.0000000000000000 [Eh]
	 Same-Spin Energy          =      -0.0685679826996582 [Eh]
	 Opposite-Spin Energy      =      -0.2163534945774247 [Eh]
	 Correlation Energy        =      -0.2849214772770828 [Eh]
	 Total Energy              =     -76.3447059579726215 [Eh]

	 ================> DF-SCS-MP2 Energies <==================
	-----------------------------------------------------------
	 SCS Same-Spin Scale       =       0.3333333333333333 [-]
	 SCS Opposite-Spin Scale   =       1.2000000000000000 [-]
	 SCS Same-Spin Energy      =      -0.0228559942332194 [Eh]
	 SCS Opposite-Spin Energy  =      -0.2596241934929096 [Eh]
	 SCS Correlation Energy    =      -0.2824801877261290 [Eh]
	 SCS Total Energy          =     -76.3422646684216630 [Eh]
	-----------------------------------------------------------

*** Psi4 exiting successfully. Buy a developer a beer!
