                               Psi4 1.8.2 release

  ==> Input File <==

--------------------------------------------------------------------------
MEMORY 60 GB

molecule dimer {
-1 1
Br         0.000000     0.000000     0.000000
Gh(O)     -2.849832     1.193942    -1.826212
Gh(H)     -1.931928     1.207032    -1.575616
Gh(H)     -2.940118     0.369058    -2.291841
Gh(O)      3.301686    -0.334450    -0.377123
Gh(H)      2.396533    -0.045027    -0.274515
Gh(H)      3.799968     0.084606     0.318721
Gh(O)     -0.087440     3.511872     0.501620
Gh(H)      0.781254     4.031099     0.240035
Gh(H)     -0.046340     2.573718     0.235001
Gh(O)      0.762499     2.499028    -2.179473
Gh(H)      0.529887     2.070563    -3.000811
Gh(H)      0.722495     1.889826    -1.445165
Gh(O)     -1.395787    -1.285353    -2.578759
Gh(H)     -0.708440    -1.470841    -3.234854
Gh(H)     -0.928793    -0.644101    -2.033967

units ang
no_reorient
no_com
symmetry c1
}

set {
basis        aug-cc-pVTZ
scf_type     df
}

energy("mp2")
--------------------------------------------------------------------------

    Molecular point group: c1

    Geometry (in Angstrom), charge = -1, multiplicity = 1:

       Center              X                  Y                   Z               Mass
    ------------   -----------------  -----------------  -----------------  -----------------
         BR           0.000000000000     0.000000000000     0.000000000000    78.918337600000
      Gh(O)          -2.849832000000     1.193942000000    -1.826212000000    15.994914619570
      Gh(H)          -1.931928000000     1.207032000000    -1.575616000000     1.007825032230
      Gh(H)          -2.940118000000     0.369058000000    -2.291841000000     1.007825032230
      Gh(O)           3.301686000000    -0.334450000000    -0.377123000000    15.994914619570
      Gh(H)           2.396533000000    -0.045027000000    -0.274515000000     1.007825032230
      Gh(H)           3.799968000000     0.084606000000     0.318721000000     1.007825032230
      Gh(O)          -0.087440000000     3.511872000000     0.501620000000    15.994914619570
      Gh(H)           0.781254000000     4.031099000000     0.240035000000     1.007825032230
      Gh(H)          -0.046340000000     2.573718000000     0.235001000000     1.007825032230
      Gh(O)           0.762499000000     2.499028000000    -2.179473000000    15.994914619570
      Gh(H)           0.529887000000     2.070563000000    -3.000811000000     1.007825032230
      Gh(H)           0.722495000000     1.889826000000    -1.445165000000     1.007825032230
      Gh(O)          -1.395787000000    -1.285353000000    -2.578759000000    15.994914619570
      Gh(H)          -0.708440000000    -1.470841000000    -3.234854000000     1.007825032230
      Gh(H)          -0.928793000000    -0.644101000000    -2.033967000000     1.007825032230

  Charge       = -1
  Multiplicity = 1
  Basis Set: AUG-CC-PVTZ
    Blend: AUG-CC-PVTZ
  Basis Set: (AUG-CC-PVTZ AUX)
    Blend: AUG-CC-PVTZ-JKFIT

    Orbital Energies [Eh]
    ---------------------

    Doubly Occupied:

       1A   -489.722215     2A    -64.861789     3A    -58.216326
       4A    -58.216324     5A    -58.216323     6A     -9.533287
       7A     -7.140620     8A     -7.140614     9A     -7.140602
      10A     -2.882333    11A     -2.882325    12A     -2.882318
      13A     -2.882304    14A     -2.882296    15A     -0.685993
      16A     -0.139337    17A     -0.139335    18A     -0.139333

  @DF-RHF Final Energy: -2572.53372945224373

   => Energetics <=

    Nuclear Repulsion Energy =              0.0000000000000000
    One-Electron Energy =               -3593.6601137443108200
    Two-Electron Energy =                1021.1263842920674279
    Total Energy =                      -2572.5337294522432785
 Dipole X            :          0.0000170            0.0000000            0.0000170
 Dipole Y            :          0.0000816            0.0000000            0.0000816
 Dipole Z            :         -0.0002411            0.0000000           -0.0002411
 Magnitude           :                                                    0.0002551
  Basis Set: (AUG-CC-PVTZ AUX)
    Blend: AUG-CC-PVTZ-RI
	 Reference Energy          =   -2572.5337294522437332 [Eh]
	 Singles Energy            =      -0.0000000000000000 [Eh]
	 Same-Spin Energy          =      -0.0913029971441804 [Eh]
	 Opposite-Spin Energy      =      -0.2125793168618973 [Eh]
	 Correlation Energy        =      -0.3038823140060778 [Eh]
	 Total Energy              =   -2572.8376117662496654 [Eh]

	 ================> DF-SCS-MP2 Energies <==================
	-----------------------------------------------------------
	 SCS Same-Spin Scale       =       0.3333333333333333 [-]
	 SCS Opposite-Spin Scale   =       1.2000000000000000 [-]
	 SCS Same-Spin Energy      =      -0.0304343323813935 [Eh]
	 SCS Opposite-Spin Energy  =      -0.2550951802342768 [Eh]
	 SCS Correlation Energy    =      -0.2855295126156703 [Eh]
	 SCS Total Energy          =   -2572.8192589648592730 [Eh]
	-----------------------------------------------------------

*** Psi4 exiting successfully. Buy a developer a beer!
