                               Psi4 1.8.2 release

  ==> Input File <==

--------------------------------------------------------------------------
MEMORY 60 GB

molecule dimer {
0 1
Gh(Br)     0.000000     0.000000     0.000000
Gh(O)      1.048984    -1.751826     2.468714
Gh(H)      0.346226    -1.574453     3.123380
Gh(H)      0.851106    -1.311539     1.644549
Gh(O)     -2.820287    -2.108900     0.576548
Gh(H)     -2.511233    -1.229356     0.357885
Gh(H)     -2.113463    -2.779649     0.548949
O          3.567175    -0.231884     0.328854
H          2.744073    -0.227220     0.878728
H          4.212940     0.263403     0.897667
Gh(O)     -3.465849     0.836464    -0.133478
Gh(H)     -3.736443     0.132471    -0.710973
Gh(H)     -3.073107     1.425776    -0.768412
Gh(O)     -0.059575     2.949979    -1.773779
Gh(H)      0.033635     2.297669    -1.066174
Gh(H)     -0.868960     2.765295    -2.220305

units ang
no_reorient
no_com
symmetry c1
}

set {
basis        aug-cc-pVTZ
scf_type     df
}

energy("mp2")
--------------------------------------------------------------------------

    Molecular point group: c1

    Geometry (in Angstrom), charge = 0, multiplicity = 1:

       Center              X                  Y                   Z               Mass
    ------------   -----------------  -----------------  -----------------  -----------------
      Gh(BR)          0.000000000000     0.000000000000     0.000000000000    78.918337600000
      Gh(O)           1.048984000000    -1.751826000000     2.468714000000    15.994914619570
      Gh(H)           0.346226000000    -1.574453000000     3.123380000000     1.007825032230
      Gh(H)           0.851106000000    -1.311539000000     1.644549000000     1.007825032230
      Gh(O)          -2.820287000000    -2.108900000000     0.576548000000    15.994914619570
      Gh(H)          -2.511233000000    -1.229356000000     0.357885000000     1.007825032230
      Gh(H)          -2.113463000000    -2.779649000000     0.548949000000     1.007825032230
         O            3.567175000000    -0.231884000000     0.328854000000    15.994914619570
         H            2.744073000000    -0.227220000000     0.878728000000     1.007825032230
         H            4.212940000000     0.263403000000     0.897667000000     1.007825032230
      Gh(O)          -3.465849000000     0.836464000000    -0.133478000000    15.994914619570
      Gh(H)          -3.736443000000     0.132471000000    -0.710973000000     1.007825032230
      Gh(H)          -3.073107000000     1.425776000000    -0.768412000000     1.007825032230
      Gh(O)          -0.059575000000     2.949979000000    -1.773779000000    15.994914619570
      Gh(H)           0.033635000000     2.297669000000    -1.066174000000     1.007825032230
      Gh(H)          -0.868960000000     2.765295000000    -2.220305000000     1.007825032230

  Charge       = 0
  Multiplicity = 1
  Basis Set: AUG-CC-PVTZ
    Blend: AUG-CC-PVTZ
  Basis Set: (AUG-CC-PVTZ AUX)
    Blend: AUG-CC-PVTZ-JKFIT

    Orbital Energies [Eh]
    ---------------------

    Doubly Occupied:

       1A    -20.573881     2A     -1.337839     3A     -0.696204
       4A     -0.581790     5A     -0.508215

  @DF-RHF Final Energy:   -76.05619525881409

   => Energetics <=

    Nuclear Repulsion Energy =              8.8819863770840399
    One-Electron Energy =                -122.4805004500423848
    Two-Electron Energy =                  37.5423188141442665
    Total Energy =                        -76.0561952588140855
 Dipole X            :        -67.1904704           67.0747196           -0.1157508
 Dipole Y            :          3.7613295           -3.4372021            0.3241274
 Dipole Z            :         -7.6030454            8.3284520            0.7254066
 Magnitude           :                                                    0.8029144
  Basis Set: (AUG-CC-PVTZ AUX)
    Blend: AUG-CC-PVTZ-RI
	 Reference Energy          =     -76.0561952588140855 [Eh]
	 Singles Energy            =      -0.0000000000000000 [Eh]
	 Same-Spin Energy          =      -0.0690106715985276 [Eh]
	 Opposite-Spin Energy      =      -0.2174685713561340 [Eh]
	 Correlation Energy        =      -0.2864792429546615 [Eh]
	 Total Energy              =     -76.3426745017687409 [Eh]

	 ================> DF-SCS-MP2 Energies <==================
	-----------------------------------------------------------
	 SCS Same-Spin Scale       =       0.3333333333333333 [-]
	 SCS Opposite-Spin Scale   =       1.2000000000000000 [-]
	 SCS Same-Spin Energy      =      -0.0230035571995092 [Eh]
	 SCS Opposite-Spin Energy  =      -0.2609622856273608 [Eh]
	 SCS Correlation Energy    =      -0.2839658428268700 [Eh]
	 SCS Total Energy          =     -76.3401611016409589 [Eh]
	-----------------------------------------------------------

*** Psi4 exiting successfully. Buy a developer a beer!
