                               Psi4 1.8.2 release

  ==> Input File <==

--------------------------------------------------------------------------
MEMORY 60 GB

molecule dimer {
-1 1
Br         0.000000     0.000000     0.000000
O         -1.772441    -1.013978     2.474033
H         -1.574978    -0.449582     3.217609
H         -1.403679    -0.590186     1.642038
O          0.153443     3.026345    -1.370826
H         -0.355384     2.308360    -1.026650
H         -0.493762     3.710273    -1.432334
O         -2.091719     2.479956     1.054046
H         -1.732622     2.926053     1.826747
H         -1.314715     1.926701     0.771278
O         -2.844312    -0.096528    -2.039101
H         -2.475962     0.417129    -2.754453
H         -2.104157    -0.194575    -1.466153
O          0.017861    -2.734789    -2.364762
H          0.784096    -3.289794    -2.529533
H          0.337217    -2.049244    -1.765328
O          2.661036     0.539110    -2.156861
H          2.239767     1.400442    -1.867415
H          2.677201    -0.043631    -1.356634

units ang
no_reorient
no_com
symmetry c1
}

set {
basis        aug-cc-pVTZ
scf_type     df
}

energy("mp2")
--------------------------------------------------------------------------

    Molecular point group: c1

    Geometry (in Angstrom), charge = -1, multiplicity = 1:

       Center              X                  Y                   Z               Mass
    ------------   -----------------  -----------------  -----------------  -----------------
         BR           0.000000000000     0.000000000000     0.000000000000    78.918337600000
         O           -1.772441000000    -1.013978000000     2.474033000000    15.994914619570
         H           -1.574978000000    -0.449582000000     3.217609000000     1.007825032230
         H           -1.403679000000    -0.590186000000     1.642038000000     1.007825032230
         O            0.153443000000     3.026345000000    -1.370826000000    15.994914619570
         H           -0.355384000000     2.308360000000    -1.026650000000     1.007825032230
         H           -0.493762000000     3.710273000000    -1.432334000000     1.007825032230
         O           -2.091719000000     2.479956000000     1.054046000000    15.994914619570
         H           -1.732622000000     2.926053000000     1.826747000000     1.007825032230
         H           -1.314715000000     1.926701000000     0.771278000000     1.007825032230
         O           -2.844312000000    -0.096528000000    -2.039101000000    15.994914619570
         H           -2.475962000000     0.417129000000    -2.754453000000     1.007825032230
         H           -2.104157000000    -0.194575000000    -1.466153000000     1.007825032230
         O            0.017861000000    -2.734789000000    -2.364762000000    15.994914619570
         H            0.784096000000    -3.289794000000    -2.529533000000     1.007825032230
         H            0.337217000000    -2.049244000000    -1.765328000000     1.007825032230
         O            2.661036000000     0.539110000000    -2.156861000000    15.994914619570
         H            2.239767000000     1.400442000000    -1.867415000000     1.007825032230
         H            2.677201000000    -0.043631000000    -1.356634000000     1.007825032230

  Charge       = -1
  Multiplicity = 1
  Basis Set: AUG-CC-PVTZ
    Blend: AUG-CC-PVTZ
  Basis Set: (AUG-CC-PVTZ AUX)
    Blend: AUG-CC-PVTZ-JKFIT

    Orbital Energies [Eh]
    ---------------------

    Doubly Occupied:

       1A   -489.802766     2A    -64.943370     3A    -58.297885
       4A    -58.297851     5A    -58.297801     6A    -20.441194
       7A    -20.440511     8A    -20.435409     9A    -20.433227
      10A    -20.415770    11A    -20.407990    12A     -9.615794
      13A     -7.223553    14A     -7.223225    15A     -7.223131
      16A     -2.965195    17A     -2.965113    18A     -2.964918
      19A     -2.964528    20A     -2.964508    21A     -1.239892
      22A     -1.218501    23A     -1.217130    24A     -1.211739
      25A     -1.198026    26A     -1.185353    27A     -0.785278
      28A     -0.599226    29A     -0.581913    30A     -0.574251
      31A     -0.570417    32A     -0.565539    33A     -0.560471
      34A     -0.474697    35A     -0.462706    36A     -0.451659
      37A     -0.446876    38A     -0.442370    39A     -0.423247
      40A     -0.392892    41A     -0.380290    42A     -0.377154
      43A     -0.372565    44A     -0.363987    45A     -0.351963
      46A     -0.234501    47A     -0.229519    48A     -0.227713

  @DF-RHF Final Energy: -3028.93688764744911

   => Energetics <=

    Nuclear Repulsion Energy =            559.2867061664637731
    One-Electron Energy =               -5345.5199500335520497
    Two-Electron Energy =                1757.2963562196391649
    Total Energy =                      -3028.9368876474491117
 Dipole X            :         70.7369062          -68.8352281            1.9016781
 Dipole Y            :        -43.8621636           44.7352485            0.8730849
 Dipole Z            :         80.7048996          -79.3091523            1.3957473
 Magnitude           :                                                    2.5153066
  Basis Set: (AUG-CC-PVTZ AUX)
    Blend: AUG-CC-PVTZ-RI
	 Reference Energy          =   -3028.9368876474491117 [Eh]
	 Singles Energy            =      -0.0000000000000000 [Eh]
	 Same-Spin Energy          =      -0.5163327988795612 [Eh]
	 Opposite-Spin Energy      =      -1.5227694915797649 [Eh]
	 Correlation Energy        =      -2.0391022904593261 [Eh]
	 Total Energy              =   -3030.9759899379082526 [Eh]

	 ================> DF-SCS-MP2 Energies <==================
	-----------------------------------------------------------
	 SCS Same-Spin Scale       =       0.3333333333333333 [-]
	 SCS Opposite-Spin Scale   =       1.2000000000000000 [-]
	 SCS Same-Spin Energy      =      -0.1721109329598537 [Eh]
	 SCS Opposite-Spin Energy  =      -1.8273233898957177 [Eh]
	 SCS Correlation Energy    =      -1.9994343228555715 [Eh]
	 SCS Total Energy          =   -3030.9363219703045615 [Eh]
	-----------------------------------------------------------

*** Psi4 exiting successfully. Buy a developer a beer!
