                               Psi4 1.8.2 release

  ==> Input File <==

--------------------------------------------------------------------------
MEMORY 60 GB

molecule dimer {
0 1
Gh(Br)     0.000000     0.000000     0.000000
O         -0.046525    -2.172810     2.388371
H          0.192961    -2.058591     3.276470
H          0.227483    -1.447125     1.853069
Gh(O)     -3.001582    -1.688367    -0.659378
Gh(H)     -3.051597    -2.464025    -0.091192
Gh(H)     -2.107316    -1.279153    -0.589440
Gh(O)      1.202238     1.886794     2.696986
Gh(H)      0.703236     1.368206     2.070104
Gh(H)      0.555514     2.123391     3.374762
Gh(O)      0.642071     3.088985    -0.348066
Gh(H)      0.818347     3.560490     0.475379
Gh(H)      0.241245     2.278483    -0.088040
Gh(O)     -1.743083     0.570150     2.511522
Gh(H)     -1.402890     0.297354     1.627315
Gh(H)     -2.233465    -0.240456     2.843953

units ang
no_reorient
no_com
symmetry c1
}

set {
basis        aug-cc-pVTZ
scf_type     df
}

energy("mp2")
--------------------------------------------------------------------------

    Molecular point group: c1

    Geometry (in Angstrom), charge = 0, multiplicity = 1:

       Center              X                  Y                   Z               Mass
    ------------   -----------------  -----------------  -----------------  -----------------
      Gh(BR)          0.000000000000     0.000000000000     0.000000000000    78.918337600000
         O           -0.046525000000    -2.172810000000     2.388371000000    15.994914619570
         H            0.192961000000    -2.058591000000     3.276470000000     1.007825032230
         H            0.227483000000    -1.447125000000     1.853069000000     1.007825032230
      Gh(O)          -3.001582000000    -1.688367000000    -0.659378000000    15.994914619570
      Gh(H)          -3.051597000000    -2.464025000000    -0.091192000000     1.007825032230
      Gh(H)          -2.107316000000    -1.279153000000    -0.589440000000     1.007825032230
      Gh(O)           1.202238000000     1.886794000000     2.696986000000    15.994914619570
      Gh(H)           0.703236000000     1.368206000000     2.070104000000     1.007825032230
      Gh(H)           0.555514000000     2.123391000000     3.374762000000     1.007825032230
      Gh(O)           0.642071000000     3.088985000000    -0.348066000000    15.994914619570
      Gh(H)           0.818347000000     3.560490000000     0.475379000000     1.007825032230
      Gh(H)           0.241245000000     2.278483000000    -0.088040000000     1.007825032230
      Gh(O)          -1.743083000000     0.570150000000     2.511522000000    15.994914619570
      Gh(H)          -1.402890000000     0.297354000000     1.627315000000     1.007825032230
      Gh(H)          -2.233465000000    -0.240456000000     2.843953000000     1.007825032230

  Charge       = 0
  Multiplicity = 1
  Basis Set: AUG-CC-PVTZ
    Blend: AUG-CC-PVTZ
  Basis Set: (AUG-CC-PVTZ AUX)
    Blend: AUG-CC-PVTZ-JKFIT

    Orbital Energies [Eh]
    ---------------------

    Doubly Occupied:

       1A    -20.559719     2A     -1.360155     3A     -0.744808
       4A     -0.574553     5A     -0.510152

  @DF-RHF Final Energy:   -76.06030764402273

   => Energetics <=

    Nuclear Repulsion Energy =              9.4006900011107071
    One-Electron Energy =                -123.4232182118005312
    Two-Electron Energy =                  37.9622205666671064
    Total Energy =                        -76.0603076440227142
 Dipole X            :          0.2641433            0.0911679            0.3553113
 Dipole Y            :         40.0526311          -39.4729697            0.5796614
 Dipole Z            :        -45.5548415           45.8003605            0.2455189
 Magnitude           :                                                    0.7228644
  Basis Set: (AUG-CC-PVTZ AUX)
    Blend: AUG-CC-PVTZ-RI
	 Reference Energy          =     -76.0603076440227284 [Eh]
	 Singles Energy            =      -0.0000000000000000 [Eh]
	 Same-Spin Energy          =      -0.0679372481648771 [Eh]
	 Opposite-Spin Energy      =      -0.2144003745743567 [Eh]
	 Correlation Energy        =      -0.2823376227392338 [Eh]
	 Total Energy              =     -76.3426452667619628 [Eh]

	 ================> DF-SCS-MP2 Energies <==================
	-----------------------------------------------------------
	 SCS Same-Spin Scale       =       0.3333333333333333 [-]
	 SCS Opposite-Spin Scale   =       1.2000000000000000 [-]
	 SCS Same-Spin Energy      =      -0.0226457493882924 [Eh]
	 SCS Opposite-Spin Energy  =      -0.2572804494892280 [Eh]
	 SCS Correlation Energy    =      -0.2799261988775204 [Eh]
	 SCS Total Energy          =     -76.3402338429002469 [Eh]
	-----------------------------------------------------------

*** Psi4 exiting successfully. Buy a developer a beer!
