                               Psi4 1.8.2 release

  ==> Input File <==

--------------------------------------------------------------------------
MEMORY 60 GB

molecule dimer {
0 1
Gh(Br)     0.000000     0.000000     0.000000
Gh(O)      2.465274    -2.082896    -1.151644
Gh(H)      2.088415    -1.327484    -0.739582
Gh(H)      3.392014    -2.150807    -0.795133
Gh(O)     -2.741984    -0.795186    -1.139633
Gh(H)     -3.050808    -1.748838    -1.012684
Gh(H)     -1.833173    -0.702090    -0.816427
Gh(O)     -1.323507     2.305848    -2.078266
Gh(H)     -1.377126     1.531047    -1.554944
Gh(H)     -2.005493     2.942304    -1.677368
O         -1.653707     2.630529     1.100887
H         -0.964169     2.021284     0.768719
H         -1.213494     3.129397     1.794661

units ang
no_reorient
no_com
symmetry c1
}

set {
basis        aug-cc-pVTZ
scf_type     df
}

energy("mp2")
--------------------------------------------------------------------------

    Molecular point group: c1

    Geometry (in Angstrom), charge = 0, multiplicity = 1:

       Center              X                  Y                   Z               Mass
    ------------   -----------------  -----------------  -----------------  -----------------
      Gh(BR)          0.000000000000     0.000000000000     0.000000000000    78.918337600000
      Gh(O)           2.465274000000    -2.082896000000    -1.151644000000    15.994914619570
      Gh(H)           2.088415000000    -1.327484000000    -0.739582000000     1.007825032230
      Gh(H)           3.392014000000    -2.150807000000    -0.795133000000     1.007825032230
      Gh(O)          -2.741984000000    -0.795186000000    -1.139633000000    15.994914619570
      Gh(H)          -3.050808000000    -1.748838000000    -1.012684000000     1.007825032230
      Gh(H)          -1.833173000000    -0.702090000000    -0.816427000000     1.007825032230
      Gh(O)          -1.323507000000     2.305848000000    -2.078266000000    15.994914619570
      Gh(H)          -1.377126000000     1.531047000000    -1.554944000000     1.007825032230
      Gh(H)          -2.005493000000     2.942304000000    -1.677368000000     1.007825032230
         O           -1.653707000000     2.630529000000     1.100887000000    15.994914619570
         H           -0.964169000000     2.021284000000     0.768719000000     1.007825032230
         H           -1.213494000000     3.129397000000     1.794661000000     1.007825032230

  Charge       = 0
  Multiplicity = 1
  Basis Set: AUG-CC-PVTZ
    Blend: AUG-CC-PVTZ
  Basis Set: (AUG-CC-PVTZ AUX)
    Blend: AUG-CC-PVTZ-JKFIT

    Orbital Energies [Eh]
    ---------------------

    Doubly Occupied:

       1A    -20.569445     2A     -1.347451     3A     -0.710431
       4A     -0.583049     5A     -0.509421

  @DF-RHF Final Energy:   -76.05940854100147

   => Energetics <=

    Nuclear Repulsion Energy =              9.0773997037724889
    One-Electron Energy =                -122.8340187619580917
    Two-Electron Energy =                  37.6972105171841321
    Total Energy =                        -76.0594085410014742
 Dipole X            :         29.8605223          -29.1156132            0.7449091
 Dipole Y            :        -49.5720147           49.5012115           -0.0708032
 Dipole Z            :        -21.2466346           21.4870856            0.2404510
 Magnitude           :                                                    0.7859512
  Basis Set: (AUG-CC-PVTZ AUX)
    Blend: AUG-CC-PVTZ-RI
	 Reference Energy          =     -76.0594085410014742 [Eh]
	 Singles Energy            =      -0.0000000000000000 [Eh]
	 Same-Spin Energy          =      -0.0686172081320421 [Eh]
	 Opposite-Spin Energy      =      -0.2164442767582844 [Eh]
	 Correlation Energy        =      -0.2850614848903265 [Eh]
	 Total Energy              =     -76.3444700258917948 [Eh]

	 ================> DF-SCS-MP2 Energies <==================
	-----------------------------------------------------------
	 SCS Same-Spin Scale       =       0.3333333333333333 [-]
	 SCS Opposite-Spin Scale   =       1.2000000000000000 [-]
	 SCS Same-Spin Energy      =      -0.0228724027106807 [Eh]
	 SCS Opposite-Spin Energy  =      -0.2597331321099413 [Eh]
	 SCS Correlation Energy    =      -0.2826055348206220 [Eh]
	 SCS Total Energy          =     -76.3420140758220924 [Eh]
	-----------------------------------------------------------

*** Psi4 exiting successfully. Buy a developer a beer!
