                               Psi4 1.8.2 release

  ==> Input File <==

--------------------------------------------------------------------------
MEMORY 60 GB

molecule dimer {
-1 1
Br         0.000000     0.000000     0.000000
O         -1.911432     2.433986     1.070897
H         -1.555279     3.089706     1.640643
H         -1.224968     1.718194     1.109894
O         -1.401665     2.429875    -1.811153
H         -1.959056     2.676358    -1.041095
H         -0.686385     1.866479    -1.500724
O         -1.794280    -2.241072     2.073482
H         -1.722283    -2.617890     2.966158
H         -1.034366    -1.621705     2.007902
O          2.505713    -0.505921     1.723979
H          1.700403    -0.507406     1.113190
H          2.107247    -0.320223     2.595222
O          2.946339    -0.264625    -1.581763
H          3.334716     0.559035    -1.244785
H          2.261634    -0.356773    -0.924585

units ang
no_reorient
no_com
symmetry c1
}

set {
basis        aug-cc-pVTZ
scf_type     df
}

energy("mp2")
--------------------------------------------------------------------------

    Molecular point group: c1

    Geometry (in Angstrom), charge = -1, multiplicity = 1:

       Center              X                  Y                   Z               Mass
    ------------   -----------------  -----------------  -----------------  -----------------
         BR           0.000000000000     0.000000000000     0.000000000000    78.918337600000
         O           -1.911432000000     2.433986000000     1.070897000000    15.994914619570
         H           -1.555279000000     3.089706000000     1.640643000000     1.007825032230
         H           -1.224968000000     1.718194000000     1.109894000000     1.007825032230
         O           -1.401665000000     2.429875000000    -1.811153000000    15.994914619570
         H           -1.959056000000     2.676358000000    -1.041095000000     1.007825032230
         H           -0.686385000000     1.866479000000    -1.500724000000     1.007825032230
         O           -1.794280000000    -2.241072000000     2.073482000000    15.994914619570
         H           -1.722283000000    -2.617890000000     2.966158000000     1.007825032230
         H           -1.034366000000    -1.621705000000     2.007902000000     1.007825032230
         O            2.505713000000    -0.505921000000     1.723979000000    15.994914619570
         H            1.700403000000    -0.507406000000     1.113190000000     1.007825032230
         H            2.107247000000    -0.320223000000     2.595222000000     1.007825032230
         O            2.946339000000    -0.264625000000    -1.581763000000    15.994914619570
         H            3.334716000000     0.559035000000    -1.244785000000     1.007825032230
         H            2.261634000000    -0.356773000000    -0.924585000000     1.007825032230

  Charge       = -1
  Multiplicity = 1
  Basis Set: AUG-CC-PVTZ
    Blend: AUG-CC-PVTZ
  Basis Set: (AUG-CC-PVTZ AUX)
    Blend: AUG-CC-PVTZ-JKFIT

    Orbital Energies [Eh]
    ---------------------

    Doubly Occupied:

       1A   -489.797507     2A    -64.938312     3A    -58.292784
       4A    -58.292763     5A    -58.292732     6A    -20.447013
       7A    -20.438976     8A    -20.416399     9A    -20.416152
      10A    -20.395549    11A     -9.610978    12A     -7.218681
      13A     -7.218540    14A     -7.218231    15A     -2.960308
      16A     -2.960280    17A     -2.959925    18A     -2.959834
      19A     -2.959726    20A     -1.227618    21A     -1.220847
      22A     -1.204776    23A     -1.188824    24A     -1.176155
      25A     -0.783326    26A     -0.586308    27A     -0.583660
      28A     -0.558091    29A     -0.552507    30A     -0.544718
      31A     -0.468196    32A     -0.459288    33A     -0.450501
      34A     -0.440892    35A     -0.421244    36A     -0.386080
      37A     -0.377485    38A     -0.361548    39A     -0.358837
      40A     -0.341712    41A     -0.228593    42A     -0.226037
      43A     -0.221264

  @DF-RHF Final Energy: -2952.86585697021610

   => Energetics <=

    Nuclear Repulsion Energy =            445.7753434913133788
    One-Electron Energy =               -5012.9560004278637280
    Two-Electron Energy =                1614.3147999663347036
    Total Energy =                      -2952.8658569702161003
 Dipole X            :         -7.5547192            7.5193393           -0.0353799
 Dipole Y            :        -36.2647315           36.4787421            0.2140106
 Dipole Z            :        -32.9066747           35.0078492            2.1011746
 Magnitude           :                                                    2.1123415
  Basis Set: (AUG-CC-PVTZ AUX)
    Blend: AUG-CC-PVTZ-RI
	 Reference Energy          =   -2952.8658569702161003 [Eh]
	 Singles Energy            =      -0.0000000000000000 [Eh]
	 Same-Spin Energy          =      -0.4487251678363195 [Eh]
	 Opposite-Spin Energy      =      -1.3082449081105265 [Eh]
	 Correlation Energy        =      -1.7569700759468461 [Eh]
	 Total Energy              =   -2954.6228270461629108 [Eh]

	 ================> DF-SCS-MP2 Energies <==================
	-----------------------------------------------------------
	 SCS Same-Spin Scale       =       0.3333333333333333 [-]
	 SCS Opposite-Spin Scale   =       1.2000000000000000 [-]
	 SCS Same-Spin Energy      =      -0.1495750559454398 [Eh]
	 SCS Opposite-Spin Energy  =      -1.5698938897326318 [Eh]
	 SCS Correlation Energy    =      -1.7194689456780716 [Eh]
	 SCS Total Energy          =   -2954.5853259158943729 [Eh]
	-----------------------------------------------------------

*** Psi4 exiting successfully. Buy a developer a beer!
