                               Psi4 1.8.2 release

  ==> Input File <==

--------------------------------------------------------------------------
MEMORY 60 GB

molecule dimer {
-1 1
Br         0.000000     0.000000     0.000000
Gh(O)      1.500307     0.811394    -3.090514
Gh(H)      1.680740     0.622734    -2.201421
Gh(H)      1.748017     1.689370    -3.324807
Gh(O)      0.724522    -0.831400     3.164447
Gh(H)      0.313632    -0.838633     2.273180
Gh(H)      1.443347    -0.198288     3.178378
Gh(O)     -0.538708    -3.161155    -1.222705
Gh(H)     -0.911093    -2.966491    -2.155417
Gh(H)     -0.428745    -2.313873    -0.869458
Gh(O)     -2.786344     0.234985    -1.999484
Gh(H)     -2.318369     0.483461    -1.218225
Gh(H)     -2.131614     0.066966    -2.657688

units ang
no_reorient
no_com
symmetry c1
}

set {
basis        aug-cc-pVTZ
scf_type     df
}

energy("mp2")
--------------------------------------------------------------------------

    Molecular point group: c1

    Geometry (in Angstrom), charge = -1, multiplicity = 1:

       Center              X                  Y                   Z               Mass
    ------------   -----------------  -----------------  -----------------  -----------------
         BR           0.000000000000     0.000000000000     0.000000000000    78.918337600000
      Gh(O)           1.500307000000     0.811394000000    -3.090514000000    15.994914619570
      Gh(H)           1.680740000000     0.622734000000    -2.201421000000     1.007825032230
      Gh(H)           1.748017000000     1.689370000000    -3.324807000000     1.007825032230
      Gh(O)           0.724522000000    -0.831400000000     3.164447000000    15.994914619570
      Gh(H)           0.313632000000    -0.838633000000     2.273180000000     1.007825032230
      Gh(H)           1.443347000000    -0.198288000000     3.178378000000     1.007825032230
      Gh(O)          -0.538708000000    -3.161155000000    -1.222705000000    15.994914619570
      Gh(H)          -0.911093000000    -2.966491000000    -2.155417000000     1.007825032230
      Gh(H)          -0.428745000000    -2.313873000000    -0.869458000000     1.007825032230
      Gh(O)          -2.786344000000     0.234985000000    -1.999484000000    15.994914619570
      Gh(H)          -2.318369000000     0.483461000000    -1.218225000000     1.007825032230
      Gh(H)          -2.131614000000     0.066966000000    -2.657688000000     1.007825032230

  Charge       = -1
  Multiplicity = 1
  Basis Set: AUG-CC-PVTZ
    Blend: AUG-CC-PVTZ
  Basis Set: (AUG-CC-PVTZ AUX)
    Blend: AUG-CC-PVTZ-JKFIT

    Orbital Energies [Eh]
    ---------------------

    Doubly Occupied:

       1A   -489.721701     2A    -64.861422     3A    -58.215940
       4A    -58.215939     5A    -58.215937     6A     -9.533165
       7A     -7.140506     8A     -7.140497     9A     -7.140484
      10A     -2.882205    11A     -2.882199    12A     -2.882189
      13A     -2.882180    14A     -2.882166    15A     -0.685990
      16A     -0.139335    17A     -0.139332    18A     -0.139330

  @DF-RHF Final Energy: -2572.53371427072898

   => Energetics <=

    Nuclear Repulsion Energy =              0.0000000000000000
    One-Electron Energy =               -3593.6663919679858736
    Two-Electron Energy =                1021.1326776972568950
    Total Energy =                      -2572.5337142707289786
 Dipole X            :         -0.0000616            0.0000000           -0.0000616
 Dipole Y            :         -0.0003130            0.0000000           -0.0003130
 Dipole Z            :         -0.0000271            0.0000000           -0.0000271
 Magnitude           :                                                    0.0003201
  Basis Set: (AUG-CC-PVTZ AUX)
    Blend: AUG-CC-PVTZ-RI
	 Reference Energy          =   -2572.5337142707289786 [Eh]
	 Singles Energy            =      -0.0000000000000000 [Eh]
	 Same-Spin Energy          =      -0.0899047590909762 [Eh]
	 Opposite-Spin Energy      =      -0.2090206442506987 [Eh]
	 Correlation Energy        =      -0.2989254033416749 [Eh]
	 Total Energy              =   -2572.8326396740708333 [Eh]

	 ================> DF-SCS-MP2 Energies <==================
	-----------------------------------------------------------
	 SCS Same-Spin Scale       =       0.3333333333333333 [-]
	 SCS Opposite-Spin Scale   =       1.2000000000000000 [-]
	 SCS Same-Spin Energy      =      -0.0299682530303254 [Eh]
	 SCS Opposite-Spin Energy  =      -0.2508247731008384 [Eh]
	 SCS Correlation Energy    =      -0.2807930261311638 [Eh]
	 SCS Total Energy          =   -2572.8145072968600289 [Eh]
	-----------------------------------------------------------

*** Psi4 exiting successfully. Buy a developer a beer!
