                               Psi4 1.8.2 release

  ==> Input File <==

--------------------------------------------------------------------------
MEMORY 60 GB

molecule dimer {
-1 1
Br         0.000000     0.000000     0.000000
Gh(O)     -0.039065     1.360465    -3.062156
Gh(H)     -0.212638     0.478259    -3.493798
Gh(H)      0.045206     1.278611    -2.107441
Gh(O)     -2.989528     1.408932     0.945248
Gh(H)     -2.062048     1.043559     0.850710
Gh(H)     -2.903099     2.019723     1.687443
Gh(O)     -2.974629    -1.593570    -0.781374
Gh(H)     -2.231751    -1.030002    -0.687159
Gh(H)     -2.758326    -2.380343    -0.265965
Gh(O)      0.721300     2.711650     2.171943
Gh(H)      1.708723     2.884228     1.993117
Gh(H)      0.459653     1.920161     1.656005

units ang
no_reorient
no_com
symmetry c1
}

set {
basis        aug-cc-pVTZ
scf_type     df
}

energy("mp2")
--------------------------------------------------------------------------

    Molecular point group: c1

    Geometry (in Angstrom), charge = -1, multiplicity = 1:

       Center              X                  Y                   Z               Mass
    ------------   -----------------  -----------------  -----------------  -----------------
         BR           0.000000000000     0.000000000000     0.000000000000    78.918337600000
      Gh(O)          -0.039065000000     1.360465000000    -3.062156000000    15.994914619570
      Gh(H)          -0.212638000000     0.478259000000    -3.493798000000     1.007825032230
      Gh(H)           0.045206000000     1.278611000000    -2.107441000000     1.007825032230
      Gh(O)          -2.989528000000     1.408932000000     0.945248000000    15.994914619570
      Gh(H)          -2.062048000000     1.043559000000     0.850710000000     1.007825032230
      Gh(H)          -2.903099000000     2.019723000000     1.687443000000     1.007825032230
      Gh(O)          -2.974629000000    -1.593570000000    -0.781374000000    15.994914619570
      Gh(H)          -2.231751000000    -1.030002000000    -0.687159000000     1.007825032230
      Gh(H)          -2.758326000000    -2.380343000000    -0.265965000000     1.007825032230
      Gh(O)           0.721300000000     2.711650000000     2.171943000000    15.994914619570
      Gh(H)           1.708723000000     2.884228000000     1.993117000000     1.007825032230
      Gh(H)           0.459653000000     1.920161000000     1.656005000000     1.007825032230

  Charge       = -1
  Multiplicity = 1
  Basis Set: AUG-CC-PVTZ
    Blend: AUG-CC-PVTZ
  Basis Set: (AUG-CC-PVTZ AUX)
    Blend: AUG-CC-PVTZ-JKFIT

    Orbital Energies [Eh]
    ---------------------

    Doubly Occupied:

       1A   -489.721890     2A    -64.861552     3A    -58.216079
       4A    -58.216076     5A    -58.216076     6A     -9.533207
       7A     -7.140545     8A     -7.140534     9A     -7.140529
      10A     -2.882249    11A     -2.882247    12A     -2.882236
      13A     -2.882220    14A     -2.882215    15A     -0.685993
      16A     -0.139337    17A     -0.139335    18A     -0.139334

  @DF-RHF Final Energy: -2572.53371847066956

   => Energetics <=

    Nuclear Repulsion Energy =              0.0000000000000000
    One-Electron Energy =               -3593.6641250833495178
    Two-Electron Energy =                1021.1304066126800763
    Total Energy =                      -2572.5337184706695552
 Dipole X            :         -0.0004234            0.0000000           -0.0004234
 Dipole Y            :          0.0003984            0.0000000            0.0003984
 Dipole Z            :          0.0000549            0.0000000            0.0000549
 Magnitude           :                                                    0.0005839
  Basis Set: (AUG-CC-PVTZ AUX)
    Blend: AUG-CC-PVTZ-RI
	 Reference Energy          =   -2572.5337184706695552 [Eh]
	 Singles Energy            =      -0.0000000000000000 [Eh]
	 Same-Spin Energy          =      -0.0903852076844980 [Eh]
	 Opposite-Spin Energy      =      -0.2102538362161301 [Eh]
	 Correlation Energy        =      -0.3006390439006280 [Eh]
	 Total Energy              =   -2572.8343575145700015 [Eh]

	 ================> DF-SCS-MP2 Energies <==================
	-----------------------------------------------------------
	 SCS Same-Spin Scale       =       0.3333333333333333 [-]
	 SCS Opposite-Spin Scale   =       1.2000000000000000 [-]
	 SCS Same-Spin Energy      =      -0.0301284025614993 [Eh]
	 SCS Opposite-Spin Energy  =      -0.2523046034593561 [Eh]
	 SCS Correlation Energy    =      -0.2824330060208554 [Eh]
	 SCS Total Energy          =   -2572.8161514766902656 [Eh]
	-----------------------------------------------------------

*** Psi4 exiting successfully. Buy a developer a beer!
