                               Psi4 1.8.2 release

  ==> Input File <==

--------------------------------------------------------------------------
MEMORY 60 GB

molecule dimer {
-1 1
Br         0.000000     0.000000     0.000000
O         -1.240886    -3.182298    -0.315482
H         -1.336837    -3.164388     0.618207
H         -0.845413    -2.278598    -0.523277
O         -0.972663     2.731075    -1.695096
H         -0.675308     1.871896    -2.024684
H         -1.748117     2.595633    -1.153655
O          0.238220    -1.724367     3.124076
H          0.205817    -1.206054     2.262866
H          1.175013    -1.881560     3.293870
O         -2.901260    -1.114093     1.330561
H         -2.382813    -1.711812     1.788198
H         -2.332582    -0.944358     0.558417
O         -2.124030     2.379906     1.059776
H         -1.431709     1.833183     0.702258
H         -2.285508     2.097630     2.002058
O          2.270799    -0.304696    -2.751069
H          1.469455     0.170842    -2.962831
H          2.050684    -0.944818    -2.039366

units ang
no_reorient
no_com
symmetry c1
}

set {
basis        aug-cc-pVTZ
scf_type     df
}

energy("mp2")
--------------------------------------------------------------------------

    Molecular point group: c1

    Geometry (in Angstrom), charge = -1, multiplicity = 1:

       Center              X                  Y                   Z               Mass
    ------------   -----------------  -----------------  -----------------  -----------------
         BR           0.000000000000     0.000000000000     0.000000000000    78.918337600000
         O           -1.240886000000    -3.182298000000    -0.315482000000    15.994914619570
         H           -1.336837000000    -3.164388000000     0.618207000000     1.007825032230
         H           -0.845413000000    -2.278598000000    -0.523277000000     1.007825032230
         O           -0.972663000000     2.731075000000    -1.695096000000    15.994914619570
         H           -0.675308000000     1.871896000000    -2.024684000000     1.007825032230
         H           -1.748117000000     2.595633000000    -1.153655000000     1.007825032230
         O            0.238220000000    -1.724367000000     3.124076000000    15.994914619570
         H            0.205817000000    -1.206054000000     2.262866000000     1.007825032230
         H            1.175013000000    -1.881560000000     3.293870000000     1.007825032230
         O           -2.901260000000    -1.114093000000     1.330561000000    15.994914619570
         H           -2.382813000000    -1.711812000000     1.788198000000     1.007825032230
         H           -2.332582000000    -0.944358000000     0.558417000000     1.007825032230
         O           -2.124030000000     2.379906000000     1.059776000000    15.994914619570
         H           -1.431709000000     1.833183000000     0.702258000000     1.007825032230
         H           -2.285508000000     2.097630000000     2.002058000000     1.007825032230
         O            2.270799000000    -0.304696000000    -2.751069000000    15.994914619570
         H            1.469455000000     0.170842000000    -2.962831000000     1.007825032230
         H            2.050684000000    -0.944818000000    -2.039366000000     1.007825032230

  Charge       = -1
  Multiplicity = 1
  Basis Set: AUG-CC-PVTZ
    Blend: AUG-CC-PVTZ
  Basis Set: (AUG-CC-PVTZ AUX)
    Blend: AUG-CC-PVTZ-JKFIT

    Orbital Energies [Eh]
    ---------------------

    Doubly Occupied:

       1A   -489.809030     2A    -64.949556     3A    -58.304073
       4A    -58.304024     5A    -58.304002     6A    -20.452174
       7A    -20.444766     8A    -20.434077     9A    -20.428418
      10A    -20.426932    11A    -20.425975    12A     -9.621946
      13A     -7.229563    14A     -7.229449    15A     -7.229291
      16A     -2.971228    17A     -2.971191    18A     -2.970994
      19A     -2.970811    20A     -2.970768    21A     -1.230074
      22A     -1.223975    23A     -1.223267    24A     -1.215540
      25A     -1.214976    26A     -1.205429    27A     -0.788951
      28A     -0.597578    29A     -0.595430    30A     -0.591073
      31A     -0.583661    32A     -0.574332    33A     -0.572418
      34A     -0.473871    35A     -0.465506    36A     -0.459238
      37A     -0.449493    38A     -0.447489    39A     -0.440742
      40A     -0.392711    41A     -0.388060    42A     -0.386607
      43A     -0.376650    44A     -0.372394    45A     -0.367126
      46A     -0.236900    47A     -0.236191    48A     -0.233997

  @DF-RHF Final Energy: -3028.93929320421421

   => Energetics <=

    Nuclear Repulsion Energy =            559.9669344438062808
    One-Electron Energy =               -5346.2285522001593563
    Two-Electron Energy =                1757.3223245521389799
    Total Energy =                      -3028.9392932042142093
 Dipole X            :         88.1935791          -86.8818178            1.3117614
 Dipole Y            :         24.7081234          -25.0921388           -0.3840154
 Dipole Z            :        -15.5561933           16.1461772            0.5899839
 Magnitude           :                                                    1.4887131
  Basis Set: (AUG-CC-PVTZ AUX)
    Blend: AUG-CC-PVTZ-RI
	 Reference Energy          =   -3028.9392932042142093 [Eh]
	 Singles Energy            =      -0.0000000000000000 [Eh]
	 Same-Spin Energy          =      -0.5155087224103918 [Eh]
	 Opposite-Spin Energy      =      -1.5203970472848649 [Eh]
	 Correlation Energy        =      -2.0359057696952565 [Eh]
	 Total Energy              =   -3030.9751989739093005 [Eh]

	 ================> DF-SCS-MP2 Energies <==================
	-----------------------------------------------------------
	 SCS Same-Spin Scale       =       0.3333333333333333 [-]
	 SCS Opposite-Spin Scale   =       1.2000000000000000 [-]
	 SCS Same-Spin Energy      =      -0.1718362408034639 [Eh]
	 SCS Opposite-Spin Energy  =      -1.8244764567418379 [Eh]
	 SCS Correlation Energy    =      -1.9963126975453018 [Eh]
	 SCS Total Energy          =   -3030.9356059017595726 [Eh]
	-----------------------------------------------------------

*** Psi4 exiting successfully. Buy a developer a beer!
