                               Psi4 1.8.2 release

  ==> Input File <==

--------------------------------------------------------------------------
MEMORY 60 GB

molecule dimer {
-1 1
Br         0.000000     0.000000     0.000000
Gh(O)      3.287674    -0.889413    -0.174356
Gh(H)      2.291823    -0.896161    -0.076636
Gh(H)      3.344902    -0.512476    -1.041446
Gh(O)      0.571519     3.175317    -0.846170
Gh(H)      0.928904     2.305382    -0.539798
Gh(H)      1.302047     3.732851    -1.068660
Gh(O)      0.642149    -1.354710    -2.748407
Gh(H)      0.407845    -0.866599    -1.970799
Gh(H)     -0.147391    -1.177426    -3.323453

units ang
no_reorient
no_com
symmetry c1
}

set {
basis        aug-cc-pVTZ
scf_type     df
}

energy("mp2")
--------------------------------------------------------------------------

    Molecular point group: c1

    Geometry (in Angstrom), charge = -1, multiplicity = 1:

       Center              X                  Y                   Z               Mass
    ------------   -----------------  -----------------  -----------------  -----------------
         BR           0.000000000000     0.000000000000     0.000000000000    78.918337600000
      Gh(O)           3.287674000000    -0.889413000000    -0.174356000000    15.994914619570
      Gh(H)           2.291823000000    -0.896161000000    -0.076636000000     1.007825032230
      Gh(H)           3.344902000000    -0.512476000000    -1.041446000000     1.007825032230
      Gh(O)           0.571519000000     3.175317000000    -0.846170000000    15.994914619570
      Gh(H)           0.928904000000     2.305382000000    -0.539798000000     1.007825032230
      Gh(H)           1.302047000000     3.732851000000    -1.068660000000     1.007825032230
      Gh(O)           0.642149000000    -1.354710000000    -2.748407000000    15.994914619570
      Gh(H)           0.407845000000    -0.866599000000    -1.970799000000     1.007825032230
      Gh(H)          -0.147391000000    -1.177426000000    -3.323453000000     1.007825032230

  Charge       = -1
  Multiplicity = 1
  Basis Set: AUG-CC-PVTZ
    Blend: AUG-CC-PVTZ
  Basis Set: (AUG-CC-PVTZ AUX)
    Blend: AUG-CC-PVTZ-JKFIT

    Orbital Energies [Eh]
    ---------------------

    Doubly Occupied:

       1A   -489.721704     2A    -64.861412     3A    -58.215934
       4A    -58.215932     5A    -58.215930     6A     -9.533159
       7A     -7.140499     8A     -7.140496     9A     -7.140484
      10A     -2.882200    11A     -2.882198    12A     -2.882196
      13A     -2.882172    14A     -2.882169    15A     -0.685995
      16A     -0.139339    17A     -0.139338    18A     -0.139336

  @DF-RHF Final Energy: -2572.53371154941942

   => Energetics <=

    Nuclear Repulsion Energy =              0.0000000000000000
    One-Electron Energy =               -3593.6664346756897430
    Two-Electron Energy =                1021.1327231262702071
    Total Energy =                      -2572.5337115494194222
 Dipole X            :          0.0003881            0.0000000            0.0003881
 Dipole Y            :         -0.0000540            0.0000000           -0.0000540
 Dipole Z            :          0.0000267            0.0000000            0.0000267
 Magnitude           :                                                    0.0003927
  Basis Set: (AUG-CC-PVTZ AUX)
    Blend: AUG-CC-PVTZ-RI
	 Reference Energy          =   -2572.5337115494194222 [Eh]
	 Singles Energy            =      -0.0000000000000000 [Eh]
	 Same-Spin Energy          =      -0.0900052373538131 [Eh]
	 Opposite-Spin Energy      =      -0.2094327156942519 [Eh]
	 Correlation Energy        =      -0.2994379530480650 [Eh]
	 Total Energy              =   -2572.8331495024676769 [Eh]

	 ================> DF-SCS-MP2 Energies <==================
	-----------------------------------------------------------
	 SCS Same-Spin Scale       =       0.3333333333333333 [-]
	 SCS Opposite-Spin Scale   =       1.2000000000000000 [-]
	 SCS Same-Spin Energy      =      -0.0300017457846044 [Eh]
	 SCS Opposite-Spin Energy  =      -0.2513192588331023 [Eh]
	 SCS Correlation Energy    =      -0.2813210046177066 [Eh]
	 SCS Total Energy          =   -2572.8150325540373160 [Eh]
	-----------------------------------------------------------

*** Psi4 exiting successfully. Buy a developer a beer!
