                               Psi4 1.8.2 release

  ==> Input File <==

--------------------------------------------------------------------------
MEMORY 60 GB

molecule dimer {
0 1
Gh(Br)     0.000000     0.000000     0.000000
Gh(O)     -0.182304     3.494170    -0.605864
Gh(H)      0.120242     3.914423     0.257357
Gh(H)      0.132300     2.594793    -0.587648
O         -2.270989    -2.543796    -0.135242
H         -1.629269    -1.818732    -0.214141
H         -2.769596    -2.373792     0.665191
Gh(O)     -2.622852     0.829441    -1.960167
Gh(H)     -1.727443     0.478275    -1.721753
Gh(H)     -2.825376     0.371547    -2.777806
Gh(O)     -0.227539    -1.062518     3.239792
Gh(H)     -0.110948    -1.919017     2.769254
Gh(H)     -0.127755    -0.388440     2.591113
Gh(O)      3.140969     1.639494    -0.214309
Gh(H)      3.024015     2.037304    -1.045371
Gh(H)      2.229103     1.295954     0.003369

units ang
no_reorient
no_com
symmetry c1
}

set {
basis        aug-cc-pVTZ
scf_type     df
}

energy("mp2")
--------------------------------------------------------------------------

    Molecular point group: c1

    Geometry (in Angstrom), charge = 0, multiplicity = 1:

       Center              X                  Y                   Z               Mass
    ------------   -----------------  -----------------  -----------------  -----------------
      Gh(BR)          0.000000000000     0.000000000000     0.000000000000    78.918337600000
      Gh(O)          -0.182304000000     3.494170000000    -0.605864000000    15.994914619570
      Gh(H)           0.120242000000     3.914423000000     0.257357000000     1.007825032230
      Gh(H)           0.132300000000     2.594793000000    -0.587648000000     1.007825032230
         O           -2.270989000000    -2.543796000000    -0.135242000000    15.994914619570
         H           -1.629269000000    -1.818732000000    -0.214141000000     1.007825032230
         H           -2.769596000000    -2.373792000000     0.665191000000     1.007825032230
      Gh(O)          -2.622852000000     0.829441000000    -1.960167000000    15.994914619570
      Gh(H)          -1.727443000000     0.478275000000    -1.721753000000     1.007825032230
      Gh(H)          -2.825376000000     0.371547000000    -2.777806000000     1.007825032230
      Gh(O)          -0.227539000000    -1.062518000000     3.239792000000    15.994914619570
      Gh(H)          -0.110948000000    -1.919017000000     2.769254000000     1.007825032230
      Gh(H)          -0.127755000000    -0.388440000000     2.591113000000     1.007825032230
      Gh(O)           3.140969000000     1.639494000000    -0.214309000000    15.994914619570
      Gh(H)           3.024015000000     2.037304000000    -1.045371000000     1.007825032230
      Gh(H)           2.229103000000     1.295954000000     0.003369000000     1.007825032230

  Charge       = 0
  Multiplicity = 1
  Basis Set: AUG-CC-PVTZ
    Blend: AUG-CC-PVTZ
  Basis Set: (AUG-CC-PVTZ AUX)
    Blend: AUG-CC-PVTZ-JKFIT

    Orbital Energies [Eh]
    ---------------------

    Doubly Occupied:

       1A    -20.567721     2A     -1.348497     3A     -0.716860
       4A     -0.580121     5A     -0.509211

  @DF-RHF Final Energy:   -76.05998356463205

   => Energetics <=

    Nuclear Repulsion Energy =              9.1186133412066184
    One-Electron Energy =                -122.9123706953362074
    Two-Electron Energy =                  37.7337737894975476
    Total Energy =                        -76.0599835646320344
 Dipole X            :         42.7390496          -42.6450281            0.0940215
 Dipole Y            :         46.9744700          -46.3793442            0.5951258
 Dipole Z            :          1.6737043           -1.1922018            0.4815025
 Magnitude           :                                                    0.7712714
  Basis Set: (AUG-CC-PVTZ AUX)
    Blend: AUG-CC-PVTZ-RI
	 Reference Energy          =     -76.0599835646320486 [Eh]
	 Singles Energy            =      -0.0000000000000000 [Eh]
	 Same-Spin Energy          =      -0.0684862785630009 [Eh]
	 Opposite-Spin Energy      =      -0.2161465270140002 [Eh]
	 Correlation Energy        =      -0.2846328055770010 [Eh]
	 Total Energy              =     -76.3446163702090530 [Eh]

	 ================> DF-SCS-MP2 Energies <==================
	-----------------------------------------------------------
	 SCS Same-Spin Scale       =       0.3333333333333333 [-]
	 SCS Opposite-Spin Scale   =       1.2000000000000000 [-]
	 SCS Same-Spin Energy      =      -0.0228287595210003 [Eh]
	 SCS Opposite-Spin Energy  =      -0.2593758324168002 [Eh]
	 SCS Correlation Energy    =      -0.2822045919378005 [Eh]
	 SCS Total Energy          =     -76.3421881565698470 [Eh]
	-----------------------------------------------------------

*** Psi4 exiting successfully. Buy a developer a beer!
