                               Psi4 1.8.2 release

  ==> Input File <==

--------------------------------------------------------------------------
MEMORY 60 GB

molecule dimer {
0 1
Gh(Br)     0.000000     0.000000     0.000000
Gh(O)      0.907785    -3.270542     0.005052
Gh(H)      0.638022    -2.382067     0.033667
Gh(H)      1.487598    -3.318185     0.780281
O         -0.442867    -1.493360     2.705895
H         -0.557517    -2.505349     2.636657
H         -0.309218    -1.143022     1.794908
Gh(O)      3.300513    -1.122755    -0.539692
Gh(H)      3.130969    -1.988896    -0.865131
Gh(H)      2.387446    -0.783323    -0.362168
Gh(O)     -1.677447     1.488794     2.663873
Gh(H)     -1.236549     1.357234     3.514456
Gh(H)     -1.130855     0.928758     2.068196
Gh(O)      2.470751    -0.161330     2.335308
Gh(H)      2.923351    -1.018032     2.221032
Gh(H)      1.582633    -0.292052     2.024141

units ang
no_reorient
no_com
symmetry c1
}

set {
basis        aug-cc-pVTZ
scf_type     df
}

energy("mp2")
--------------------------------------------------------------------------

    Molecular point group: c1

    Geometry (in Angstrom), charge = 0, multiplicity = 1:

       Center              X                  Y                   Z               Mass
    ------------   -----------------  -----------------  -----------------  -----------------
      Gh(BR)          0.000000000000     0.000000000000     0.000000000000    78.918337600000
      Gh(O)           0.907785000000    -3.270542000000     0.005052000000    15.994914619570
      Gh(H)           0.638022000000    -2.382067000000     0.033667000000     1.007825032230
      Gh(H)           1.487598000000    -3.318185000000     0.780281000000     1.007825032230
         O           -0.442867000000    -1.493360000000     2.705895000000    15.994914619570
         H           -0.557517000000    -2.505349000000     2.636657000000     1.007825032230
         H           -0.309218000000    -1.143022000000     1.794908000000     1.007825032230
      Gh(O)           3.300513000000    -1.122755000000    -0.539692000000    15.994914619570
      Gh(H)           3.130969000000    -1.988896000000    -0.865131000000     1.007825032230
      Gh(H)           2.387446000000    -0.783323000000    -0.362168000000     1.007825032230
      Gh(O)          -1.677447000000     1.488794000000     2.663873000000    15.994914619570
      Gh(H)          -1.236549000000     1.357234000000     3.514456000000     1.007825032230
      Gh(H)          -1.130855000000     0.928758000000     2.068196000000     1.007825032230
      Gh(O)           2.470751000000    -0.161330000000     2.335308000000    15.994914619570
      Gh(H)           2.923351000000    -1.018032000000     2.221032000000     1.007825032230
      Gh(H)           1.582633000000    -0.292052000000     2.024141000000     1.007825032230

  Charge       = 0
  Multiplicity = 1
  Basis Set: AUG-CC-PVTZ
    Blend: AUG-CC-PVTZ
  Basis Set: (AUG-CC-PVTZ AUX)
    Blend: AUG-CC-PVTZ-JKFIT

    Orbital Energies [Eh]
    ---------------------

    Doubly Occupied:

       1A    -20.573197     2A     -1.329297     3A     -0.699122
       4A     -0.569763     5A     -0.505749

  @DF-RHF Final Energy:   -76.05323458052044

   => Energetics <=

    Nuclear Repulsion Energy =              8.7709326172700290
    One-Electron Energy =                -122.2940721591209297
    Two-Electron Energy =                  37.4699049613304567
    Total Energy =                        -76.0532345805204386
 Dipole X            :          8.3461176           -8.3330705            0.0130471
 Dipole Y            :         29.0437078          -29.4707532           -0.4270454
 Dipole Z            :        -49.9245728           49.2816480           -0.6429248
 Magnitude           :                                                    0.7719393
  Basis Set: (AUG-CC-PVTZ AUX)
    Blend: AUG-CC-PVTZ-RI
	 Reference Energy          =     -76.0532345805204386 [Eh]
	 Singles Energy            =      -0.0000000000000000 [Eh]
	 Same-Spin Energy          =      -0.0691791461775528 [Eh]
	 Opposite-Spin Energy      =      -0.2186107634146702 [Eh]
	 Correlation Energy        =      -0.2877899095922231 [Eh]
	 Total Energy              =     -76.3410244901126589 [Eh]

	 ================> DF-SCS-MP2 Energies <==================
	-----------------------------------------------------------
	 SCS Same-Spin Scale       =       0.3333333333333333 [-]
	 SCS Opposite-Spin Scale   =       1.2000000000000000 [-]
	 SCS Same-Spin Energy      =      -0.0230597153925176 [Eh]
	 SCS Opposite-Spin Energy  =      -0.2623329160976043 [Eh]
	 SCS Correlation Energy    =      -0.2853926314901219 [Eh]
	 SCS Total Energy          =     -76.3386272120105644 [Eh]
	-----------------------------------------------------------

*** Psi4 exiting successfully. Buy a developer a beer!
