                               Psi4 1.8.2 release

  ==> Input File <==

--------------------------------------------------------------------------
MEMORY 60 GB

molecule dimer {
0 1
Gh(Br)     0.000000     0.000000     0.000000
Gh(O)     -3.089947     1.034619     0.842009
Gh(H)     -3.734811     0.391946     0.529675
Gh(H)     -2.297161     0.715238     0.405981
O         -2.233158    -2.307199     1.583647
H         -2.798612    -2.457186     0.820221
H         -1.458816    -1.809725     1.296922
Gh(O)     -0.611219     2.868519     1.544803
Gh(H)     -0.492191     2.014807     1.191864
Gh(H)      0.279621     2.996725     1.995565
Gh(O)     -1.434323     2.291860    -1.824576
Gh(H)     -0.902332     3.109212    -1.825781
Gh(H)     -0.845869     1.602856    -1.446966

units ang
no_reorient
no_com
symmetry c1
}

set {
basis        aug-cc-pVTZ
scf_type     df
}

energy("mp2")
--------------------------------------------------------------------------

    Molecular point group: c1

    Geometry (in Angstrom), charge = 0, multiplicity = 1:

       Center              X                  Y                   Z               Mass
    ------------   -----------------  -----------------  -----------------  -----------------
      Gh(BR)          0.000000000000     0.000000000000     0.000000000000    78.918337600000
      Gh(O)          -3.089947000000     1.034619000000     0.842009000000    15.994914619570
      Gh(H)          -3.734811000000     0.391946000000     0.529675000000     1.007825032230
      Gh(H)          -2.297161000000     0.715238000000     0.405981000000     1.007825032230
         O           -2.233158000000    -2.307199000000     1.583647000000    15.994914619570
         H           -2.798612000000    -2.457186000000     0.820221000000     1.007825032230
         H           -1.458816000000    -1.809725000000     1.296922000000     1.007825032230
      Gh(O)          -0.611219000000     2.868519000000     1.544803000000    15.994914619570
      Gh(H)          -0.492191000000     2.014807000000     1.191864000000     1.007825032230
      Gh(H)           0.279621000000     2.996725000000     1.995565000000     1.007825032230
      Gh(O)          -1.434323000000     2.291860000000    -1.824576000000    15.994914619570
      Gh(H)          -0.902332000000     3.109212000000    -1.825781000000     1.007825032230
      Gh(H)          -0.845869000000     1.602856000000    -1.446966000000     1.007825032230

  Charge       = 0
  Multiplicity = 1
  Basis Set: AUG-CC-PVTZ
    Blend: AUG-CC-PVTZ
  Basis Set: (AUG-CC-PVTZ AUX)
    Blend: AUG-CC-PVTZ-JKFIT

    Orbital Energies [Eh]
    ---------------------

    Doubly Occupied:

       1A    -20.566357     2A     -1.347890     3A     -0.722087
       4A     -0.576155     5A     -0.508687

  @DF-RHF Final Energy:   -76.06002937126037

   => Energetics <=

    Nuclear Repulsion Energy =              9.1317467662857723
    One-Electron Energy =                -122.9411972429117839
    Two-Electron Energy =                  37.7494211053656414
    Total Energy =                        -76.0600293712603701
 Dipole X            :         41.9459851          -41.8058290            0.1401560
 Dipole Y            :         43.1761456          -42.9430870            0.2330586
 Dipole Z            :        -28.6468477           27.9420933           -0.7047544
 Magnitude           :                                                    0.7554064
  Basis Set: (AUG-CC-PVTZ AUX)
    Blend: AUG-CC-PVTZ-RI
	 Reference Energy          =     -76.0600293712603701 [Eh]
	 Singles Energy            =      -0.0000000000000000 [Eh]
	 Same-Spin Energy          =      -0.0684144710360495 [Eh]
	 Opposite-Spin Energy      =      -0.2157616824077407 [Eh]
	 Correlation Energy        =      -0.2841761534437902 [Eh]
	 Total Energy              =     -76.3442055247041651 [Eh]

	 ================> DF-SCS-MP2 Energies <==================
	-----------------------------------------------------------
	 SCS Same-Spin Scale       =       0.3333333333333333 [-]
	 SCS Opposite-Spin Scale   =       1.2000000000000000 [-]
	 SCS Same-Spin Energy      =      -0.0228048236786832 [Eh]
	 SCS Opposite-Spin Energy  =      -0.2589140188892888 [Eh]
	 SCS Correlation Energy    =      -0.2817188425679720 [Eh]
	 SCS Total Energy          =     -76.3417482138283390 [Eh]
	-----------------------------------------------------------

*** Psi4 exiting successfully. Buy a developer a beer!
