                               Psi4 1.8.2 release

  ==> Input File <==

--------------------------------------------------------------------------
MEMORY 60 GB

molecule dimer {
0 1
Gh(Br)     0.000000     0.000000     0.000000
Gh(O)      1.548803    -0.710591     3.040000
Gh(H)      0.898652    -0.539982     2.353961
Gh(H)      1.060812    -1.118901     3.781649
Gh(O)      0.137519    -0.423573    -3.463886
Gh(H)     -0.133520    -0.725311    -2.600673
Gh(H)     -0.032708    -1.196669    -3.995500
O         -2.010270    -2.265977     1.576016
H         -1.353894    -1.831518     1.044048
H         -2.834302    -1.936376     1.192922
Gh(O)     -0.016933    -2.910328    -1.674653
Gh(H)     -0.135970    -2.167692    -1.070498
Gh(H)      0.453271    -3.621303    -1.199784
Gh(O)      3.384032    -0.837063    -0.115591
Gh(H)      3.644167    -1.658433    -0.579572
Gh(H)      2.425456    -0.765354    -0.030565

units ang
no_reorient
no_com
symmetry c1
}

set {
basis        aug-cc-pVTZ
scf_type     df
}

energy("mp2")
--------------------------------------------------------------------------

    Molecular point group: c1

    Geometry (in Angstrom), charge = 0, multiplicity = 1:

       Center              X                  Y                   Z               Mass
    ------------   -----------------  -----------------  -----------------  -----------------
      Gh(BR)          0.000000000000     0.000000000000     0.000000000000    78.918337600000
      Gh(O)           1.548803000000    -0.710591000000     3.040000000000    15.994914619570
      Gh(H)           0.898652000000    -0.539982000000     2.353961000000     1.007825032230
      Gh(H)           1.060812000000    -1.118901000000     3.781649000000     1.007825032230
      Gh(O)           0.137519000000    -0.423573000000    -3.463886000000    15.994914619570
      Gh(H)          -0.133520000000    -0.725311000000    -2.600673000000     1.007825032230
      Gh(H)          -0.032708000000    -1.196669000000    -3.995500000000     1.007825032230
         O           -2.010270000000    -2.265977000000     1.576016000000    15.994914619570
         H           -1.353894000000    -1.831518000000     1.044048000000     1.007825032230
         H           -2.834302000000    -1.936376000000     1.192922000000     1.007825032230
      Gh(O)          -0.016933000000    -2.910328000000    -1.674653000000    15.994914619570
      Gh(H)          -0.135970000000    -2.167692000000    -1.070498000000     1.007825032230
      Gh(H)           0.453271000000    -3.621303000000    -1.199784000000     1.007825032230
      Gh(O)           3.384032000000    -0.837063000000    -0.115591000000    15.994914619570
      Gh(H)           3.644167000000    -1.658433000000    -0.579572000000     1.007825032230
      Gh(H)           2.425456000000    -0.765354000000    -0.030565000000     1.007825032230

  Charge       = 0
  Multiplicity = 1
  Basis Set: AUG-CC-PVTZ
    Blend: AUG-CC-PVTZ
  Basis Set: (AUG-CC-PVTZ AUX)
    Blend: AUG-CC-PVTZ-JKFIT

    Orbital Energies [Eh]
    ---------------------

    Doubly Occupied:

       1A    -20.568293     2A     -1.354722     3A     -0.712604
       4A     -0.589208     5A     -0.510931

  @DF-RHF Final Energy:   -76.06017556435280

   => Energetics <=

    Nuclear Repulsion Energy =              9.1902657060604707
    One-Electron Energy =                -123.0293614967209805
    Two-Electron Energy =                  37.7789202263076902
    Total Energy =                        -76.0601755643528179
 Dipole X            :         38.1980446          -38.3054213           -0.1073767
 Dipole Y            :         41.8819449          -41.3768952            0.5050497
 Dipole Z            :        -28.6579900           28.0531695           -0.6048205
 Magnitude           :                                                    0.7952439
  Basis Set: (AUG-CC-PVTZ AUX)
    Blend: AUG-CC-PVTZ-RI
	 Reference Energy          =     -76.0601755643528037 [Eh]
	 Singles Energy            =      -0.0000000000000000 [Eh]
	 Same-Spin Energy          =      -0.0684618574612787 [Eh]
	 Opposite-Spin Energy      =      -0.2160481107971291 [Eh]
	 Correlation Energy        =      -0.2845099682584078 [Eh]
	 Total Energy              =     -76.3446855326112086 [Eh]

	 ================> DF-SCS-MP2 Energies <==================
	-----------------------------------------------------------
	 SCS Same-Spin Scale       =       0.3333333333333333 [-]
	 SCS Opposite-Spin Scale   =       1.2000000000000000 [-]
	 SCS Same-Spin Energy      =      -0.0228206191537596 [Eh]
	 SCS Opposite-Spin Energy  =      -0.2592577329565550 [Eh]
	 SCS Correlation Energy    =      -0.2820783521103145 [Eh]
	 SCS Total Energy          =     -76.3422539164631218 [Eh]
	-----------------------------------------------------------

*** Psi4 exiting successfully. Buy a developer a beer!
