                               Psi4 1.8.2 release

  ==> Input File <==

--------------------------------------------------------------------------
MEMORY 60 GB

molecule dimer {
-1 1
Br         0.000000     0.000000     0.000000
O         -1.840831    -1.774050     1.834568
H         -1.901929    -2.503854     1.228639
H         -1.270653    -1.166530     1.322161
O          1.154957    -1.856330     2.510722
H          0.297931    -2.172747     2.763830
H          1.068259    -1.392424     1.661516
O          3.348506    -0.225290    -1.030075
H          2.446439    -0.034057    -0.715322
H          3.503325    -1.124527    -0.914376
O         -1.970296     2.489958    -0.789570
H         -2.695508     3.100915    -1.071316
H         -1.197742     2.647194    -1.321328
O          0.086673    -3.010722    -1.445107
H          0.037079    -2.054659    -1.152701
H          0.257774    -2.926956    -2.402717

units ang
no_reorient
no_com
symmetry c1
}

set {
basis        aug-cc-pVTZ
scf_type     df
}

energy("mp2")
--------------------------------------------------------------------------

    Molecular point group: c1

    Geometry (in Angstrom), charge = -1, multiplicity = 1:

       Center              X                  Y                   Z               Mass
    ------------   -----------------  -----------------  -----------------  -----------------
         BR           0.000000000000     0.000000000000     0.000000000000    78.918337600000
         O           -1.840831000000    -1.774050000000     1.834568000000    15.994914619570
         H           -1.901929000000    -2.503854000000     1.228639000000     1.007825032230
         H           -1.270653000000    -1.166530000000     1.322161000000     1.007825032230
         O            1.154957000000    -1.856330000000     2.510722000000    15.994914619570
         H            0.297931000000    -2.172747000000     2.763830000000     1.007825032230
         H            1.068259000000    -1.392424000000     1.661516000000     1.007825032230
         O            3.348506000000    -0.225290000000    -1.030075000000    15.994914619570
         H            2.446439000000    -0.034057000000    -0.715322000000     1.007825032230
         H            3.503325000000    -1.124527000000    -0.914376000000     1.007825032230
         O           -1.970296000000     2.489958000000    -0.789570000000    15.994914619570
         H           -2.695508000000     3.100915000000    -1.071316000000     1.007825032230
         H           -1.197742000000     2.647194000000    -1.321328000000     1.007825032230
         O            0.086673000000    -3.010722000000    -1.445107000000    15.994914619570
         H            0.037079000000    -2.054659000000    -1.152701000000     1.007825032230
         H            0.257774000000    -2.926956000000    -2.402717000000     1.007825032230

  Charge       = -1
  Multiplicity = 1
  Basis Set: AUG-CC-PVTZ
    Blend: AUG-CC-PVTZ
  Basis Set: (AUG-CC-PVTZ AUX)
    Blend: AUG-CC-PVTZ-JKFIT

    Orbital Energies [Eh]
    ---------------------

    Doubly Occupied:

       1A   -489.786936     2A    -64.927612     3A    -58.282088
       4A    -58.282082     5A    -58.282046     6A    -20.448944
       7A    -20.426061     8A    -20.417332     9A    -20.405708
      10A    -20.392651    11A     -9.600153    12A     -7.207855
      13A     -7.207629    14A     -7.207468    15A     -2.949466
      16A     -2.949410    17A     -2.949177    18A     -2.948985
      19A     -2.948949    20A     -1.225533    21A     -1.213799
      22A     -1.197709    23A     -1.196644    24A     -1.180975
      25A     -0.770924    26A     -0.601393    27A     -0.587238
      28A     -0.557496    29A     -0.556153    30A     -0.550709
      31A     -0.452332    32A     -0.445287    33A     -0.442265
      34A     -0.440057    35A     -0.419559    36A     -0.388873
      37A     -0.368278    38A     -0.365757    39A     -0.351603
      40A     -0.341780    41A     -0.217564    42A     -0.214126
      43A     -0.212016

  @DF-RHF Final Energy: -2952.86830020062916

   => Energetics <=

    Nuclear Repulsion Energy =            445.4884184552614670
    One-Electron Energy =               -5012.8761767971091103
    Two-Electron Energy =                1614.5194581412188199
    Total Energy =                      -2952.8683002006291645
 Dipole X            :        -13.8094681           12.8067628           -1.0027053
 Dipole Y            :         82.1384139          -80.5762534            1.5621606
 Dipole Z            :        -17.0944095           15.1984814           -1.8959281
 Magnitude           :                                                    2.6533577
  Basis Set: (AUG-CC-PVTZ AUX)
    Blend: AUG-CC-PVTZ-RI
	 Reference Energy          =   -2952.8683002006291645 [Eh]
	 Singles Energy            =      -0.0000000000000000 [Eh]
	 Same-Spin Energy          =      -0.4467253463048386 [Eh]
	 Opposite-Spin Energy      =      -1.3044560562866909 [Eh]
	 Correlation Energy        =      -1.7511814025915295 [Eh]
	 Total Energy              =   -2954.6194816032207200 [Eh]

	 ================> DF-SCS-MP2 Energies <==================
	-----------------------------------------------------------
	 SCS Same-Spin Scale       =       0.3333333333333333 [-]
	 SCS Opposite-Spin Scale   =       1.2000000000000000 [-]
	 SCS Same-Spin Energy      =      -0.1489084487682795 [Eh]
	 SCS Opposite-Spin Energy  =      -1.5653472675440290 [Eh]
	 SCS Correlation Energy    =      -1.7142557163123084 [Eh]
	 SCS Total Energy          =   -2954.5825559169416010 [Eh]
	-----------------------------------------------------------

*** Psi4 exiting successfully. Buy a developer a beer!
