                               Psi4 1.8.2 release

  ==> Input File <==

--------------------------------------------------------------------------
MEMORY 60 GB

molecule dimer {
0 1
Gh(Br)     0.000000     0.000000     0.000000
Gh(O)      0.621247    -0.253886     3.242490
Gh(H)      0.234566     0.055975     2.396675
Gh(H)      0.415263     0.421387     3.885040
Gh(O)     -0.516566     3.494598     0.217594
Gh(H)     -0.532078     2.526620     0.174775
Gh(H)     -1.057899     3.829521    -0.470581
O         -2.996306     0.834889     0.610223
H         -2.026873     0.813467     0.442268
H         -3.320349    -0.026119     0.263152
Gh(O)      2.165559     2.220841    -1.401461
Gh(H)      1.379243     2.086322    -1.915582
Gh(H)      1.950098     2.837132    -0.711281
Gh(O)     -0.802070     1.843563    -2.594464
Gh(H)     -1.311892     2.734430    -2.481891
Gh(H)     -0.751670     1.215067    -1.902978

units ang
no_reorient
no_com
symmetry c1
}

set {
basis        aug-cc-pVTZ
scf_type     df
}

energy("mp2")
--------------------------------------------------------------------------

    Molecular point group: c1

    Geometry (in Angstrom), charge = 0, multiplicity = 1:

       Center              X                  Y                   Z               Mass
    ------------   -----------------  -----------------  -----------------  -----------------
      Gh(BR)          0.000000000000     0.000000000000     0.000000000000    78.918337600000
      Gh(O)           0.621247000000    -0.253886000000     3.242490000000    15.994914619570
      Gh(H)           0.234566000000     0.055975000000     2.396675000000     1.007825032230
      Gh(H)           0.415263000000     0.421387000000     3.885040000000     1.007825032230
      Gh(O)          -0.516566000000     3.494598000000     0.217594000000    15.994914619570
      Gh(H)          -0.532078000000     2.526620000000     0.174775000000     1.007825032230
      Gh(H)          -1.057899000000     3.829521000000    -0.470581000000     1.007825032230
         O           -2.996306000000     0.834889000000     0.610223000000    15.994914619570
         H           -2.026873000000     0.813467000000     0.442268000000     1.007825032230
         H           -3.320349000000    -0.026119000000     0.263152000000     1.007825032230
      Gh(O)           2.165559000000     2.220841000000    -1.401461000000    15.994914619570
      Gh(H)           1.379243000000     2.086322000000    -1.915582000000     1.007825032230
      Gh(H)           1.950098000000     2.837132000000    -0.711281000000     1.007825032230
      Gh(O)          -0.802070000000     1.843563000000    -2.594464000000    15.994914619570
      Gh(H)          -1.311892000000     2.734430000000    -2.481891000000     1.007825032230
      Gh(H)          -0.751670000000     1.215067000000    -1.902978000000     1.007825032230

  Charge       = 0
  Multiplicity = 1
  Basis Set: AUG-CC-PVTZ
    Blend: AUG-CC-PVTZ
  Basis Set: (AUG-CC-PVTZ AUX)
    Blend: AUG-CC-PVTZ-JKFIT

    Orbital Energies [Eh]
    ---------------------

    Doubly Occupied:

       1A    -20.571823     2A     -1.340475     3A     -0.702917
       4A     -0.580380     5A     -0.508310

  @DF-RHF Final Energy:   -76.05766333835886

   => Energetics <=

    Nuclear Repulsion Energy =              8.9481497749729044
    One-Electron Energy =                -122.6038125160118284
    Two-Electron Energy =                  37.5979994026800526
    Total Energy =                        -76.0576633383588785
 Dipole X            :         55.8245625          -55.4023669            0.4221955
 Dipole Y            :        -14.6864716           14.1095645           -0.5769070
 Dipole Z            :        -10.8950062           10.5582854           -0.3367209
 Magnitude           :                                                    0.7902226
  Basis Set: (AUG-CC-PVTZ AUX)
    Blend: AUG-CC-PVTZ-RI
	 Reference Energy          =     -76.0576633383588643 [Eh]
	 Singles Energy            =      -0.0000000000000000 [Eh]
	 Same-Spin Energy          =      -0.0688713408114873 [Eh]
	 Opposite-Spin Energy      =      -0.2174547334161974 [Eh]
	 Correlation Energy        =      -0.2863260742276847 [Eh]
	 Total Energy              =     -76.3439894125865521 [Eh]

	 ================> DF-SCS-MP2 Energies <==================
	-----------------------------------------------------------
	 SCS Same-Spin Scale       =       0.3333333333333333 [-]
	 SCS Opposite-Spin Scale   =       1.2000000000000000 [-]
	 SCS Same-Spin Energy      =      -0.0229571136038291 [Eh]
	 SCS Opposite-Spin Energy  =      -0.2609456800994369 [Eh]
	 SCS Correlation Energy    =      -0.2839027937032660 [Eh]
	 SCS Total Energy          =     -76.3415661320621268 [Eh]
	-----------------------------------------------------------

*** Psi4 exiting successfully. Buy a developer a beer!
