                               Psi4 1.9 release

  ==> Input File <==

--------------------------------------------------------------------------
MEMORY 60 GB

molecule dimer {
-1 1
Br     0.000000     0.000000     0.000000
--
0 1
O      1.933199     1.986490     1.808234
H      1.215137     1.668912     1.233648
H      2.279603     2.831188     1.447197
O     -2.110295     2.665636     0.091665
H     -1.505616     1.895002     0.152179
H     -1.513127     3.456853    -0.085606
O      0.395690    -0.651139     3.487777
H      0.093477    -0.316228     2.602410
H      0.310350    -1.614550     3.373877

units ang
no_reorient
no_com
symmetry c1
}

set {
basis        aug-cc-pVTZ
scf_type     df
}

energy("mp2", bsse_type="cp")
--------------------------------------------------------------------------

                               Psi4 1.9 release
    Molecular point group: c1
  Charge       = 0
  Multiplicity = 1
  Basis Set: AUG-CC-PVTZ
    Blend: AUG-CC-PVTZ
  Basis Set: (AUG-CC-PVTZ AUX)
    Blend: AUG-CC-PVTZ-JKFIT
  @DF-RHF Final Energy:  -228.16478121327052
    Total Energy =                       -228.1647812132705155
 Dipole X            :         -4.6537741            4.9672887            0.3135147
 Dipole Y            :        -75.4728480           75.4550124           -0.0178356
 Dipole Z            :        -99.2191271           97.9352700           -1.2838571
 Magnitude           :                                                    1.3217029
  Basis Set: (AUG-CC-PVTZ AUX)
    Blend: AUG-CC-PVTZ-RI
	 Reference Energy          =    -228.1647812132705155 [Eh]
	 Singles Energy            =      -0.0000000000000000 [Eh]
	 Same-Spin Energy          =      -0.2071161109054149 [Eh]
	 Opposite-Spin Energy      =      -0.6523414755738466 [Eh]
	 Correlation Energy        =      -0.8594575864792615 [Eh]
	 Total Energy              =    -229.0242387997497815 [Eh]
	 SCS Total Energy          =    -229.0166296875942749 [Eh]
                               Psi4 1.9 release
    Molecular point group: c1
  Multiplicity = 1
  Basis Set: AUG-CC-PVTZ
    Blend: AUG-CC-PVTZ
  Basis Set: (AUG-CC-PVTZ AUX)
    Blend: AUG-CC-PVTZ-JKFIT
  @DF-RHF Final Energy: -2572.53370696768798
    Total Energy =                      -2572.5337069676879764
  Basis Set: (AUG-CC-PVTZ AUX)
	 Singles Energy            =      -0.0000000000000000 [Eh]
	 Same-Spin Energy          =      -0.0895920325512933 [Eh]
	 Opposite-Spin Energy      =      -0.2083199794332250 [Eh]
	 Correlation Energy        =      -0.2979120119845183 [Eh]
	 Total Energy              =   -2572.8316189796723847 [Eh]
	 SCS Total Energy          =   -2572.8135549538583291 [Eh]
                               Psi4 1.9 release
    Molecular point group: c1

    Geometry (in Bohr), charge = -1, multiplicity = 1:

       Center              X                  Y                   Z               Mass
    ------------   -----------------  -----------------  -----------------  -----------------
         BR           0.000000000000     0.000000000000     0.000000000000    78.918337600000
         O            3.653216656009     3.753922050961     3.417067030741    15.994914619570
         H            2.296276134910     3.153786607490     2.331256855219     1.007825032230
         H            4.307825344772     5.350169929683     2.734805979584     1.007825032230
         O           -3.987879593923     5.037321990161     0.173221745290    15.994914619570
         H           -2.845201890107     3.581034787195     0.287576632046     1.007825032230
         H           -2.859395623036     6.532505425967    -0.161771894696     1.007825032230
         O            0.747745730582    -1.230474379604     6.590943316671    15.994914619570
         H            0.176645929029    -0.597584313201     4.917842166153     1.007825032230
         H            0.586476503036    -3.051057315858     6.375703510981     1.007825032230

  Charge       = -1
  Multiplicity = 1
  Basis Set: AUG-CC-PVTZ
    Blend: AUG-CC-PVTZ
  Basis Set: (AUG-CC-PVTZ AUX)
    Blend: AUG-CC-PVTZ-JKFIT

    Orbital Energies [Eh]
    ---------------------

    Doubly Occupied:

       1A   -489.770699     2A    -64.911003     3A    -58.265517
       4A    -58.265497     5A    -58.265451     6A    -20.417254
       7A    -20.412863     8A    -20.409954     9A     -9.583342
      10A     -7.190982    11A     -7.190776    12A     -7.190596
      13A     -2.932673    14A     -2.932635    15A     -2.932390
      16A     -2.932152    17A     -2.932112    18A     -1.185555
      19A     -1.184250    20A     -1.182436    21A     -0.746003
      22A     -0.560806    23A     -0.547903    24A     -0.541001
      25A     -0.431650    26A     -0.428824    27A     -0.419129
      28A     -0.355684    29A     -0.352431    30A     -0.351786
      31A     -0.198249    32A     -0.194745    33A     -0.192864

  @DF-RHF Final Energy: -2800.73869901855778

   => Energetics <=

    Nuclear Repulsion Energy =            230.9676490593574272
    One-Electron Energy =               -4372.5942667617400730
    Two-Electron Energy =                1340.8879186838246369
    Total Energy =                      -2800.7386990185577815
 Dipole X            :         -4.6338309            4.9672887            0.3334579
 Dipole Y            :        -76.0808135           75.4550124           -0.6258011
 Dipole Z            :        -99.7919064           97.9352700           -1.8566364
 Magnitude           :                                                    1.9874405
  Basis Set: (AUG-CC-PVTZ AUX)
    Blend: AUG-CC-PVTZ-RI
	 Reference Energy          =   -2800.7386990185577815 [Eh]
	 Singles Energy            =      -0.0000000000000000 [Eh]
	 Same-Spin Energy          =      -0.3028920886268501 [Eh]
	 Opposite-Spin Energy      =      -0.8652691776044892 [Eh]
	 Correlation Energy        =      -1.1681612662313392 [Eh]
	 Total Energy              =   -2801.9068602847892180 [Eh]

	 ================> DF-SCS-MP2 Energies <==================
	-----------------------------------------------------------
	 SCS Same-Spin Scale       =       0.3333333333333333 [-]
	 SCS Opposite-Spin Scale   =       1.2000000000000000 [-]
	 SCS Same-Spin Energy      =      -0.1009640295422834 [Eh]
	 SCS Opposite-Spin Energy  =      -1.0383230131253869 [Eh]
	 SCS Correlation Energy    =      -1.1392870426676702 [Eh]
	 SCS Total Energy          =   -2801.8779860612253287 [Eh]
	-----------------------------------------------------------

*** Psi4 exiting successfully. Buy a developer a beer!
