                               Psi4 1.8.2 release

  ==> Input File <==

--------------------------------------------------------------------------
MEMORY 60 GB

molecule dimer {
-1 1
Br         0.000000     0.000000     0.000000
O          3.163199     0.646243     0.256837
H          2.316875     1.030886     0.379756
H          3.128898     0.185283    -0.623943
O          2.053655     1.826621    -2.200546
H          1.210211     1.608535    -1.815308
H          2.452670     0.991479    -2.451912
O         -1.135008     1.804837    -2.389665
H         -0.790382     1.133645    -1.799786
H         -1.433856     1.374123    -3.206087
O         -1.656461     2.271419     1.980330
H         -1.065867     1.529333     2.085922
H         -2.325769     2.490524     2.710885
O         -2.736680    -2.086686     0.149282
H         -2.946208    -1.915935     1.116394
H         -1.926651    -1.544031    -0.020258

units ang
no_reorient
no_com
symmetry c1
}

set {
basis        aug-cc-pVTZ
scf_type     df
}

energy("mp2")
--------------------------------------------------------------------------

    Molecular point group: c1

    Geometry (in Angstrom), charge = -1, multiplicity = 1:

       Center              X                  Y                   Z               Mass
    ------------   -----------------  -----------------  -----------------  -----------------
         BR           0.000000000000     0.000000000000     0.000000000000    78.918337600000
         O            3.163199000000     0.646243000000     0.256837000000    15.994914619570
         H            2.316875000000     1.030886000000     0.379756000000     1.007825032230
         H            3.128898000000     0.185283000000    -0.623943000000     1.007825032230
         O            2.053655000000     1.826621000000    -2.200546000000    15.994914619570
         H            1.210211000000     1.608535000000    -1.815308000000     1.007825032230
         H            2.452670000000     0.991479000000    -2.451912000000     1.007825032230
         O           -1.135008000000     1.804837000000    -2.389665000000    15.994914619570
         H           -0.790382000000     1.133645000000    -1.799786000000     1.007825032230
         H           -1.433856000000     1.374123000000    -3.206087000000     1.007825032230
         O           -1.656461000000     2.271419000000     1.980330000000    15.994914619570
         H           -1.065867000000     1.529333000000     2.085922000000     1.007825032230
         H           -2.325769000000     2.490524000000     2.710885000000     1.007825032230
         O           -2.736680000000    -2.086686000000     0.149282000000    15.994914619570
         H           -2.946208000000    -1.915935000000     1.116394000000     1.007825032230
         H           -1.926651000000    -1.544031000000    -0.020258000000     1.007825032230

  Charge       = -1
  Multiplicity = 1
  Basis Set: AUG-CC-PVTZ
    Blend: AUG-CC-PVTZ
  Basis Set: (AUG-CC-PVTZ AUX)
    Blend: AUG-CC-PVTZ-JKFIT

    Orbital Energies [Eh]
    ---------------------

    Doubly Occupied:

       1A   -489.787045     2A    -64.927624     3A    -58.282142
       4A    -58.282113     5A    -58.282041     6A    -20.434890
       7A    -20.426996     8A    -20.421540     9A    -20.411484
      10A    -20.408204    11A     -9.600094    12A     -7.207832
      13A     -7.207711    14A     -7.207245    15A     -2.949613
      16A     -2.949588    17A     -2.949022    18A     -2.948850
      19A     -2.948697    20A     -1.214052    21A     -1.201901
      22A     -1.197471    23A     -1.191928    24A     -1.190551
      25A     -0.767943    26A     -0.599062    27A     -0.587061
      28A     -0.571390    29A     -0.559643    30A     -0.553198
      31A     -0.448859    32A     -0.439264    33A     -0.431349
      34A     -0.428043    35A     -0.421563    36A     -0.377278
      37A     -0.374492    38A     -0.364457    39A     -0.358010
      40A     -0.345624    41A     -0.218074    42A     -0.215784
      43A     -0.209291

  @DF-RHF Final Energy: -2952.85068407767403

   => Energetics <=

    Nuclear Repulsion Energy =            442.4677579921292931
    One-Electron Energy =               -5006.8388330933466932
    Two-Electron Energy =                1611.5203910235434250
    Total Energy =                      -2952.8506840776744866
 Dipole X            :          6.8851720           -7.3140697           -0.4288977
 Dipole Y            :        -81.9410651           80.4708010           -1.4702642
 Dipole Z            :         40.9679271          -40.1650573            0.8028697
 Magnitude           :                                                    1.7292281
  Basis Set: (AUG-CC-PVTZ AUX)
    Blend: AUG-CC-PVTZ-RI
	 Reference Energy          =   -2952.8506840776740319 [Eh]
	 Singles Energy            =      -0.0000000000000000 [Eh]
	 Same-Spin Energy          =      -0.4456126937032576 [Eh]
	 Opposite-Spin Energy      =      -1.3039985609970710 [Eh]
	 Correlation Energy        =      -1.7496112547003286 [Eh]
	 Total Energy              =   -2954.6002953323745714 [Eh]

	 ================> DF-SCS-MP2 Energies <==================
	-----------------------------------------------------------
	 SCS Same-Spin Scale       =       0.3333333333333333 [-]
	 SCS Opposite-Spin Scale   =       1.2000000000000000 [-]
	 SCS Same-Spin Energy      =      -0.1485375645677525 [Eh]
	 SCS Opposite-Spin Energy  =      -1.5647982731964851 [Eh]
	 SCS Correlation Energy    =      -1.7133358377642376 [Eh]
	 SCS Total Energy          =   -2954.5640199154381662 [Eh]
	-----------------------------------------------------------

*** Psi4 exiting successfully. Buy a developer a beer!
