                               Psi4 1.8.2 release

  ==> Input File <==

--------------------------------------------------------------------------
MEMORY 60 GB

molecule dimer {
-1 1
Br         0.000000     0.000000     0.000000
O          0.537883    -2.592701     1.926681
H         -0.386009    -2.598137     2.112065
H          0.722606    -1.933912     1.307501
O          1.291657    -2.839776    -1.063081
H          0.556916    -2.277466    -0.805116
H          1.883573    -2.161705    -1.372666
O         -1.874314    -0.408243     2.636827
H         -1.328717    -0.039733     1.938784
H         -2.727285    -0.453675     2.229542

units ang
no_reorient
no_com
symmetry c1
}

set {
basis        aug-cc-pVTZ
scf_type     df
}

energy("mp2")
--------------------------------------------------------------------------

    Molecular point group: c1

    Geometry (in Angstrom), charge = -1, multiplicity = 1:

       Center              X                  Y                   Z               Mass
    ------------   -----------------  -----------------  -----------------  -----------------
         BR           0.000000000000     0.000000000000     0.000000000000    78.918337600000
         O            0.537883000000    -2.592701000000     1.926681000000    15.994914619570
         H           -0.386009000000    -2.598137000000     2.112065000000     1.007825032230
         H            0.722606000000    -1.933912000000     1.307501000000     1.007825032230
         O            1.291657000000    -2.839776000000    -1.063081000000    15.994914619570
         H            0.556916000000    -2.277466000000    -0.805116000000     1.007825032230
         H            1.883573000000    -2.161705000000    -1.372666000000     1.007825032230
         O           -1.874314000000    -0.408243000000     2.636827000000    15.994914619570
         H           -1.328717000000    -0.039733000000     1.938784000000     1.007825032230
         H           -2.727285000000    -0.453675000000     2.229542000000     1.007825032230

  Charge       = -1
  Multiplicity = 1
  Basis Set: AUG-CC-PVTZ
    Blend: AUG-CC-PVTZ
  Basis Set: (AUG-CC-PVTZ AUX)
    Blend: AUG-CC-PVTZ-JKFIT

    Orbital Energies [Eh]
    ---------------------

    Doubly Occupied:

       1A   -489.772367     2A    -64.912885     3A    -58.267371
       4A    -58.267368     5A    -58.267324     6A    -20.411859
       7A    -20.403552     8A    -20.380901     9A     -9.585411
      10A     -7.193033    11A     -7.192839    12A     -7.192781
      13A     -2.934641    14A     -2.934608    15A     -2.934496
      16A     -2.934289    17A     -2.934274    18A     -1.206512
      19A     -1.197789    20A     -1.186967    21A     -0.750448
      22A     -0.569457    23A     -0.565533    24A     -0.544776
      25A     -0.444326    26A     -0.440813    27A     -0.411510
      28A     -0.361542    29A     -0.355336    30A     -0.332146
      31A     -0.201012    32A     -0.197707    33A     -0.195814

  @DF-RHF Final Energy: -2800.74631910352855

   => Energetics <=

    Nuclear Repulsion Energy =            246.2363795257618904
    One-Electron Energy =               -4403.0020232607657817
    Two-Electron Energy =                1356.0193246314759108
    Total Energy =                      -2800.7463191035285490
 Dipole X            :          2.3825271           -3.0936858           -0.7111586
 Dipole Y            :        108.1955408         -106.1844442            2.0110966
 Dipole Z            :        -64.4915952           63.1424130           -1.3491822
 Magnitude           :                                                    2.5239946
  Basis Set: (AUG-CC-PVTZ AUX)
    Blend: AUG-CC-PVTZ-RI
	 Reference Energy          =   -2800.7463191035285490 [Eh]
	 Singles Energy            =      -0.0000000000000000 [Eh]
	 Same-Spin Energy          =      -0.3023690300151739 [Eh]
	 Opposite-Spin Energy      =      -0.8610020171935288 [Eh]
	 Correlation Energy        =      -1.1633710472087027 [Eh]
	 Total Energy              =   -2801.9096901507373332 [Eh]

	 ================> DF-SCS-MP2 Energies <==================
	-----------------------------------------------------------
	 SCS Same-Spin Scale       =       0.3333333333333333 [-]
	 SCS Opposite-Spin Scale   =       1.2000000000000000 [-]
	 SCS Same-Spin Energy      =      -0.1007896766717246 [Eh]
	 SCS Opposite-Spin Energy  =      -1.0332024206322346 [Eh]
	 SCS Correlation Energy    =      -1.1339920973039592 [Eh]
	 SCS Total Energy          =   -2801.8803112008326934 [Eh]
	-----------------------------------------------------------

*** Psi4 exiting successfully. Buy a developer a beer!
