                               Psi4 1.8.2 release

  ==> Input File <==

--------------------------------------------------------------------------
MEMORY 60 GB

molecule dimer {
-1 1
Br         0.000000     0.000000     0.000000
Gh(O)     -2.719380    -0.917874     1.513340
Gh(H)     -2.094607    -0.347929     1.035762
Gh(H)     -3.561100    -0.822273     1.115577
Gh(O)     -2.060809     2.593717    -0.859092
Gh(H)     -1.688050     3.070376    -1.592003
Gh(H)     -1.437597     1.870275    -0.673543
Gh(O)     -0.594218    -3.396631     0.803846
Gh(H)     -0.374269    -2.975147     1.697640
Gh(H)     -0.649522    -2.561829     0.293830

units ang
no_reorient
no_com
symmetry c1
}

set {
basis        aug-cc-pVTZ
scf_type     df
}

energy("mp2")
--------------------------------------------------------------------------

    Molecular point group: c1

    Geometry (in Angstrom), charge = -1, multiplicity = 1:

       Center              X                  Y                   Z               Mass
    ------------   -----------------  -----------------  -----------------  -----------------
         BR           0.000000000000     0.000000000000     0.000000000000    78.918337600000
      Gh(O)          -2.719380000000    -0.917874000000     1.513340000000    15.994914619570
      Gh(H)          -2.094607000000    -0.347929000000     1.035762000000     1.007825032230
      Gh(H)          -3.561100000000    -0.822273000000     1.115577000000     1.007825032230
      Gh(O)          -2.060809000000     2.593717000000    -0.859092000000    15.994914619570
      Gh(H)          -1.688050000000     3.070376000000    -1.592003000000     1.007825032230
      Gh(H)          -1.437597000000     1.870275000000    -0.673543000000     1.007825032230
      Gh(O)          -0.594218000000    -3.396631000000     0.803846000000    15.994914619570
      Gh(H)          -0.374269000000    -2.975147000000     1.697640000000     1.007825032230
      Gh(H)          -0.649522000000    -2.561829000000     0.293830000000     1.007825032230

  Charge       = -1
  Multiplicity = 1
  Basis Set: AUG-CC-PVTZ
    Blend: AUG-CC-PVTZ
  Basis Set: (AUG-CC-PVTZ AUX)
    Blend: AUG-CC-PVTZ-JKFIT

    Orbital Energies [Eh]
    ---------------------

    Doubly Occupied:

       1A   -489.721513     2A    -64.861281     3A    -58.215796
       4A    -58.215793     5A    -58.215792     6A     -9.533118
       7A     -7.140472     8A     -7.140450     9A     -7.140441
      10A     -2.882155    11A     -2.882155    12A     -2.882146
      13A     -2.882139    14A     -2.882119    15A     -0.685996
      16A     -0.139340    17A     -0.139337    18A     -0.139335

  @DF-RHF Final Energy: -2572.53370658315544

   => Energetics <=

    Nuclear Repulsion Energy =              0.0000000000000000
    One-Electron Energy =               -3593.6686551919833619
    Two-Electron Energy =                1021.1349486088282674
    Total Energy =                      -2572.5337065831549808
 Dipole X            :         -0.0002488            0.0000000           -0.0002488
 Dipole Y            :         -0.0000079            0.0000000           -0.0000079
 Dipole Z            :          0.0001399            0.0000000            0.0001399
 Magnitude           :                                                    0.0002855
  Basis Set: (AUG-CC-PVTZ AUX)
    Blend: AUG-CC-PVTZ-RI
	 Reference Energy          =   -2572.5337065831554355 [Eh]
	 Singles Energy            =      -0.0000000000000000 [Eh]
	 Same-Spin Energy          =      -0.0895520032114189 [Eh]
	 Opposite-Spin Energy      =      -0.2082497672262637 [Eh]
	 Correlation Energy        =      -0.2978017704376826 [Eh]
	 Total Energy              =   -2572.8315083535931080 [Eh]

	 ================> DF-SCS-MP2 Energies <==================
	-----------------------------------------------------------
	 SCS Same-Spin Scale       =       0.3333333333333333 [-]
	 SCS Opposite-Spin Scale   =       1.2000000000000000 [-]
	 SCS Same-Spin Energy      =      -0.0298506677371396 [Eh]
	 SCS Opposite-Spin Energy  =      -0.2498997206715164 [Eh]
	 SCS Correlation Energy    =      -0.2797503884086561 [Eh]
	 SCS Total Energy          =   -2572.8134569715639373 [Eh]
	-----------------------------------------------------------

*** Psi4 exiting successfully. Buy a developer a beer!
