                               Psi4 1.9 release

  ==> Input File <==

--------------------------------------------------------------------------
MEMORY 60 GB

molecule dimer {
-1 1
Br     0.000000     0.000000     0.000000
--
0 1
O      3.163199     0.646243     0.256837
H      2.316875     1.030886     0.379756
H      3.128898     0.185283    -0.623943
O      2.053655     1.826621    -2.200546
H      1.210211     1.608535    -1.815308
H      2.452670     0.991479    -2.451912
O     -1.135008     1.804837    -2.389665
H     -0.790382     1.133645    -1.799786
H     -1.433856     1.374123    -3.206087
O     -1.656461     2.271419     1.980330
H     -1.065867     1.529333     2.085922
H     -2.325769     2.490524     2.710885
O     -2.736680    -2.086686     0.149282
H     -2.946208    -1.915935     1.116394
H     -1.926651    -1.544031    -0.020258

units ang
no_reorient
no_com
symmetry c1
}

set {
basis        aug-cc-pVTZ
scf_type     df
}

energy("mp2", bsse_type="cp")
--------------------------------------------------------------------------

                               Psi4 1.9 release
    Molecular point group: c1
  Charge       = 0
  Multiplicity = 1
  Basis Set: AUG-CC-PVTZ
    Blend: AUG-CC-PVTZ
  Basis Set: (AUG-CC-PVTZ AUX)
    Blend: AUG-CC-PVTZ-JKFIT
  @DF-RHF Final Energy:  -380.26946842438252
    Total Energy =                       -380.2694684243825236
 Dipole X            :          6.7034983           -7.3140697           -0.6105714
 Dipole Y            :        -81.6645625           80.4708010           -1.1937616
 Dipole Z            :         40.6304247          -40.1650573            0.4653674
 Magnitude           :                                                    1.4193065
  Basis Set: (AUG-CC-PVTZ AUX)
    Blend: AUG-CC-PVTZ-RI
	 Reference Energy          =    -380.2694684243825236 [Eh]
	 Singles Energy            =      -0.0000000000000000 [Eh]
	 Same-Spin Energy          =      -0.3452578327192015 [Eh]
	 Opposite-Spin Energy      =      -1.0848613107100746 [Eh]
	 Correlation Energy        =      -1.4301191434292762 [Eh]
	 Total Energy              =    -381.6995875678118182 [Eh]
	 SCS Total Energy          =    -381.6863879414743224 [Eh]
                               Psi4 1.9 release
    Molecular point group: c1
  Multiplicity = 1
  Basis Set: AUG-CC-PVTZ
    Blend: AUG-CC-PVTZ
  Basis Set: (AUG-CC-PVTZ AUX)
    Blend: AUG-CC-PVTZ-JKFIT
  @DF-RHF Final Energy: -2572.53372718674564
    Total Energy =                      -2572.5337271867456366
  Basis Set: (AUG-CC-PVTZ AUX)
	 Singles Energy            =      -0.0000000000000000 [Eh]
	 Same-Spin Energy          =      -0.0909592831627706 [Eh]
	 Opposite-Spin Energy      =      -0.2116902329583074 [Eh]
	 Correlation Energy        =      -0.3026495161210780 [Eh]
	 Total Energy              =   -2572.8363767028668008 [Eh]
	 SCS Total Energy          =   -2572.8180752273497092 [Eh]
                               Psi4 1.9 release
    Molecular point group: c1

    Geometry (in Bohr), charge = -1, multiplicity = 1:

       Center              X                  Y                   Z               Mass
    ------------   -----------------  -----------------  -----------------  -----------------
         BR           0.000000000000     0.000000000000     0.000000000000    78.918337600000
         O            5.977579790322     1.221222280494     0.485351588884    15.994914619570
         H            4.378259216920     1.948092206569     0.717634834499     1.007825032230
         H            5.912760294493     0.350134125703    -1.179081387897     1.007825032230
         O            3.880845506177     3.451813425010    -4.158429266472    15.994914619570
         H            2.286967344016     3.039690613213    -3.430434953353     1.007825032230
         H            4.634874576127     1.873623769143    -4.633442163724     1.007825032230
         O           -2.144854270204     3.410647631093    -4.515812381592    15.994914619570
         H           -1.493605514492     2.142278573495    -3.401102624433     1.007825032230
         H           -2.709595143344     2.596716132692    -6.058626364391     1.007825032230
         O           -3.130257627502     4.292359826161     3.742281338028    15.994914619570
         H           -2.014196716163     2.890020524625     3.941821299067     1.007825032230
         H           -4.395066441080     4.706408268880     5.122830207612     1.007825032230
         O           -5.171575693018    -3.943265049827     0.282102095461    15.994914619570
         H           -5.567526228633    -3.620592424179     2.109678908104     1.007825032230
         H           -3.640842729339    -2.917795719217    -0.038282071850     1.007825032230

  Charge       = -1
  Multiplicity = 1
  Basis Set: AUG-CC-PVTZ
    Blend: AUG-CC-PVTZ
  Basis Set: (AUG-CC-PVTZ AUX)
    Blend: AUG-CC-PVTZ-JKFIT

    Orbital Energies [Eh]
    ---------------------

    Doubly Occupied:

       1A   -489.787045     2A    -64.927624     3A    -58.282142
       4A    -58.282113     5A    -58.282041     6A    -20.434890
       7A    -20.426996     8A    -20.421540     9A    -20.411484
      10A    -20.408204    11A     -9.600094    12A     -7.207832
      13A     -7.207711    14A     -7.207245    15A     -2.949613
      16A     -2.949588    17A     -2.949022    18A     -2.948850
      19A     -2.948697    20A     -1.214052    21A     -1.201901
      22A     -1.197471    23A     -1.191928    24A     -1.190551
      25A     -0.767943    26A     -0.599062    27A     -0.587061
      28A     -0.571390    29A     -0.559643    30A     -0.553198
      31A     -0.448859    32A     -0.439264    33A     -0.431349
      34A     -0.428043    35A     -0.421563    36A     -0.377278
      37A     -0.374492    38A     -0.364457    39A     -0.358010
      40A     -0.345624    41A     -0.218074    42A     -0.215784
      43A     -0.209291

  @DF-RHF Final Energy: -2952.85068407708559

   => Energetics <=

    Nuclear Repulsion Energy =            442.4677579921292931
    One-Electron Energy =               -5006.8388330927609786
    Two-Electron Energy =                1611.5203910235466083
    Total Energy =                      -2952.8506840770851340
 Dipole X            :          6.8851720           -7.3140697           -0.4288977
 Dipole Y            :        -81.9410651           80.4708010           -1.4702642
 Dipole Z            :         40.9679271          -40.1650573            0.8028697
 Magnitude           :                                                    1.7292281
  Basis Set: (AUG-CC-PVTZ AUX)
    Blend: AUG-CC-PVTZ-RI
	 Reference Energy          =   -2952.8506840770855888 [Eh]
	 Singles Energy            =      -0.0000000000000000 [Eh]
	 Same-Spin Energy          =      -0.4456126937028052 [Eh]
	 Opposite-Spin Energy      =      -1.3039985609920932 [Eh]
	 Correlation Energy        =      -1.7496112546948983 [Eh]
	 Total Energy              =   -2954.6002953317806714 [Eh]

	 ================> DF-SCS-MP2 Energies <==================
	-----------------------------------------------------------
	 SCS Same-Spin Scale       =       0.3333333333333333 [-]
	 SCS Opposite-Spin Scale   =       1.2000000000000000 [-]
	 SCS Same-Spin Energy      =      -0.1485375645676017 [Eh]
	 SCS Opposite-Spin Energy  =      -1.5647982731905119 [Eh]
	 SCS Correlation Energy    =      -1.7133358377581136 [Eh]
	 SCS Total Energy          =   -2954.5640199148438114 [Eh]
	-----------------------------------------------------------

*** Psi4 exiting successfully. Buy a developer a beer!
