                               Psi4 1.8.2 release

  ==> Input File <==

--------------------------------------------------------------------------
MEMORY 60 GB

molecule dimer {
0 1
Gh(Br)     0.000000     0.000000     0.000000
O          2.452911    -0.995525     2.199232
H          3.132083    -1.275402     2.790759
H          2.338359    -1.739127     1.526334
Gh(O)     -3.040005     0.614667    -1.483514
Gh(H)     -2.166655     0.355003    -1.129877
Gh(H)     -2.955149     0.617711    -2.466047
Gh(O)     -0.201879    -0.214965    -3.389215
Gh(H)     -0.892087    -0.868485    -3.563227
Gh(H)     -0.029122    -0.354479    -2.467663
Gh(O)      2.167253     1.963529    -1.986450
Gh(H)      1.432173     1.531595    -1.573186
Gh(H)      1.877952     2.248149    -2.830986
Gh(O)      1.737886     2.376316     1.902304
Gh(H)      1.869496     2.030453     2.758105
Gh(H)      1.995270     1.750043     1.235313
Gh(O)      1.036004    -2.754093    -1.296498
Gh(H)      1.857363    -2.562526    -1.734994
Gh(H)      0.655300    -2.037283    -0.779103

units ang
no_reorient
no_com
symmetry c1
}

set {
basis        aug-cc-pVTZ
scf_type     df
}

energy("mp2")
--------------------------------------------------------------------------

    Molecular point group: c1

    Geometry (in Angstrom), charge = 0, multiplicity = 1:

       Center              X                  Y                   Z               Mass
    ------------   -----------------  -----------------  -----------------  -----------------
      Gh(BR)          0.000000000000     0.000000000000     0.000000000000    78.918337600000
         O            2.452911000000    -0.995525000000     2.199232000000    15.994914619570
         H            3.132083000000    -1.275402000000     2.790759000000     1.007825032230
         H            2.338359000000    -1.739127000000     1.526334000000     1.007825032230
      Gh(O)          -3.040005000000     0.614667000000    -1.483514000000    15.994914619570
      Gh(H)          -2.166655000000     0.355003000000    -1.129877000000     1.007825032230
      Gh(H)          -2.955149000000     0.617711000000    -2.466047000000     1.007825032230
      Gh(O)          -0.201879000000    -0.214965000000    -3.389215000000    15.994914619570
      Gh(H)          -0.892087000000    -0.868485000000    -3.563227000000     1.007825032230
      Gh(H)          -0.029122000000    -0.354479000000    -2.467663000000     1.007825032230
      Gh(O)           2.167253000000     1.963529000000    -1.986450000000    15.994914619570
      Gh(H)           1.432173000000     1.531595000000    -1.573186000000     1.007825032230
      Gh(H)           1.877952000000     2.248149000000    -2.830986000000     1.007825032230
      Gh(O)           1.737886000000     2.376316000000     1.902304000000    15.994914619570
      Gh(H)           1.869496000000     2.030453000000     2.758105000000     1.007825032230
      Gh(H)           1.995270000000     1.750043000000     1.235313000000     1.007825032230
      Gh(O)           1.036004000000    -2.754093000000    -1.296498000000    15.994914619570
      Gh(H)           1.857363000000    -2.562526000000    -1.734994000000     1.007825032230
      Gh(H)           0.655300000000    -2.037283000000    -0.779103000000     1.007825032230

  Charge       = 0
  Multiplicity = 1
  Basis Set: AUG-CC-PVTZ
    Blend: AUG-CC-PVTZ
  Basis Set: (AUG-CC-PVTZ AUX)
    Blend: AUG-CC-PVTZ-JKFIT

    Orbital Energies [Eh]
    ---------------------

    Doubly Occupied:

       1A    -20.569409     2A     -1.343727     3A     -0.711245
       4A     -0.577389     5A     -0.508331

  @DF-RHF Final Energy:   -76.05674777314658

   => Energetics <=

    Nuclear Repulsion Energy =              9.0212136273135393
    One-Electron Energy =                -122.7357162135250803
    Two-Electron Energy =                  37.6577548130649475
    Total Energy =                        -76.0567477731465829
 Dipole X            :        -47.0413465           47.4202772            0.3789307
 Dipole Y            :         20.0728963          -20.7467910           -0.6738947
 Dipole Z            :        -41.4506999           41.4056928           -0.0450071
 Magnitude           :                                                    0.7744341
  Basis Set: (AUG-CC-PVTZ AUX)
    Blend: AUG-CC-PVTZ-RI
	 Reference Energy          =     -76.0567477731465829 [Eh]
	 Singles Energy            =      -0.0000000000000000 [Eh]
	 Same-Spin Energy          =      -0.0686579651510204 [Eh]
	 Opposite-Spin Energy      =      -0.2164100257045864 [Eh]
	 Correlation Energy        =      -0.2850679908556067 [Eh]
	 Total Energy              =     -76.3418157640021917 [Eh]

	 ================> DF-SCS-MP2 Energies <==================
	-----------------------------------------------------------
	 SCS Same-Spin Scale       =       0.3333333333333333 [-]
	 SCS Opposite-Spin Scale   =       1.2000000000000000 [-]
	 SCS Same-Spin Energy      =      -0.0228859883836735 [Eh]
	 SCS Opposite-Spin Energy  =      -0.2596920308455037 [Eh]
	 SCS Correlation Energy    =      -0.2825780192291771 [Eh]
	 SCS Total Energy          =     -76.3393257923757602 [Eh]
	-----------------------------------------------------------

*** Psi4 exiting successfully. Buy a developer a beer!
