                               Psi4 1.8.2 release

  ==> Input File <==

--------------------------------------------------------------------------
MEMORY 60 GB

molecule dimer {
0 1
Gh(Br)     0.000000     0.000000     0.000000
Gh(O)      1.500307     0.811394    -3.090514
Gh(H)      1.680740     0.622734    -2.201421
Gh(H)      1.748017     1.689370    -3.324807
Gh(O)      0.724522    -0.831400     3.164447
Gh(H)      0.313632    -0.838633     2.273180
Gh(H)      1.443347    -0.198288     3.178378
Gh(O)     -0.538708    -3.161155    -1.222705
Gh(H)     -0.911093    -2.966491    -2.155417
Gh(H)     -0.428745    -2.313873    -0.869458
O         -2.786344     0.234985    -1.999484
H         -2.318369     0.483461    -1.218225
H         -2.131614     0.066966    -2.657688

units ang
no_reorient
no_com
symmetry c1
}

set {
basis        aug-cc-pVTZ
scf_type     df
}

energy("mp2")
--------------------------------------------------------------------------

    Molecular point group: c1

    Geometry (in Angstrom), charge = 0, multiplicity = 1:

       Center              X                  Y                   Z               Mass
    ------------   -----------------  -----------------  -----------------  -----------------
      Gh(BR)          0.000000000000     0.000000000000     0.000000000000    78.918337600000
      Gh(O)           1.500307000000     0.811394000000    -3.090514000000    15.994914619570
      Gh(H)           1.680740000000     0.622734000000    -2.201421000000     1.007825032230
      Gh(H)           1.748017000000     1.689370000000    -3.324807000000     1.007825032230
      Gh(O)           0.724522000000    -0.831400000000     3.164447000000    15.994914619570
      Gh(H)           0.313632000000    -0.838633000000     2.273180000000     1.007825032230
      Gh(H)           1.443347000000    -0.198288000000     3.178378000000     1.007825032230
      Gh(O)          -0.538708000000    -3.161155000000    -1.222705000000    15.994914619570
      Gh(H)          -0.911093000000    -2.966491000000    -2.155417000000     1.007825032230
      Gh(H)          -0.428745000000    -2.313873000000    -0.869458000000     1.007825032230
         O           -2.786344000000     0.234985000000    -1.999484000000    15.994914619570
         H           -2.318369000000     0.483461000000    -1.218225000000     1.007825032230
         H           -2.131614000000     0.066966000000    -2.657688000000     1.007825032230

  Charge       = 0
  Multiplicity = 1
  Basis Set: AUG-CC-PVTZ
    Blend: AUG-CC-PVTZ
  Basis Set: (AUG-CC-PVTZ AUX)
    Blend: AUG-CC-PVTZ-JKFIT

    Orbital Energies [Eh]
    ---------------------

    Doubly Occupied:

       1A    -20.563972     2A     -1.359396     3A     -0.728794
       4A     -0.584036     5A     -0.510997

  @DF-RHF Final Energy:   -76.06122338093712

   => Energetics <=

    Nuclear Repulsion Energy =              9.3221275612213788
    One-Electron Energy =                -123.2723074981677627
    Two-Electron Energy =                  37.8889565560092620
    Total Energy =                        -76.0612233809371219
 Dipole X            :         51.2902856          -50.5326655            0.7576201
 Dipole Y            :         -4.5383066            4.5926146            0.0543080
 Dipole Z            :         37.6353397          -37.5522313            0.0831084
 Magnitude           :                                                    0.7640972
  Basis Set: (AUG-CC-PVTZ AUX)
    Blend: AUG-CC-PVTZ-RI
	 Reference Energy          =     -76.0612233809371219 [Eh]
	 Singles Energy            =      -0.0000000000000000 [Eh]
	 Same-Spin Energy          =      -0.0681022300744329 [Eh]
	 Opposite-Spin Energy      =      -0.2146875257780740 [Eh]
	 Correlation Energy        =      -0.2827897558525069 [Eh]
	 Total Energy              =     -76.3440131367896271 [Eh]

	 ================> DF-SCS-MP2 Energies <==================
	-----------------------------------------------------------
	 SCS Same-Spin Scale       =       0.3333333333333333 [-]
	 SCS Opposite-Spin Scale   =       1.2000000000000000 [-]
	 SCS Same-Spin Energy      =      -0.0227007433581443 [Eh]
	 SCS Opposite-Spin Energy  =      -0.2576250309336887 [Eh]
	 SCS Correlation Energy    =      -0.2803257742918330 [Eh]
	 SCS Total Energy          =     -76.3415491552289609 [Eh]
	-----------------------------------------------------------

*** Psi4 exiting successfully. Buy a developer a beer!
