                               Psi4 1.8.2 release

  ==> Input File <==

--------------------------------------------------------------------------
MEMORY 60 GB

molecule dimer {
0 1
Gh(Br)     0.000000     0.000000     0.000000
Gh(O)     -2.693192    -1.679912     0.355723
Gh(H)     -1.875366    -1.176432     0.015423
Gh(H)     -3.226162    -1.909403    -0.424515
Gh(O)     -1.448803     2.589056    -1.473057
Gh(H)     -1.905026     2.601791    -0.617480
Gh(H)     -1.862488     3.210439    -2.073139
Gh(O)     -2.142334     0.188851    -2.736695
Gh(H)     -1.900358     0.972141    -2.236676
Gh(H)     -2.330046     0.458810    -3.593644
Gh(O)      0.593152     0.691607    -3.130397
Gh(H)      0.790973     0.153655    -3.929734
Gh(H)      0.103934     0.137581    -2.474532
O          1.279965    -2.599480    -1.667778
H          0.899924    -2.394763    -2.551512
H          1.123623    -1.790753    -1.235832
Gh(O)      0.507220    -0.594639     3.390560
Gh(H)      1.000701     0.236302     3.548363
Gh(H)      0.075494    -0.431779     2.468449
Gh(O)     -2.141177     1.800887     1.874188
Gh(H)     -1.623828     1.273723     1.198477
Gh(H)     -1.535113     2.232496     2.500517

units ang
no_reorient
no_com
symmetry c1
}

set {
basis        aug-cc-pVTZ
scf_type     df
}

energy("mp2")
--------------------------------------------------------------------------

    Molecular point group: c1

    Geometry (in Angstrom), charge = 0, multiplicity = 1:

       Center              X                  Y                   Z               Mass
    ------------   -----------------  -----------------  -----------------  -----------------
      Gh(BR)          0.000000000000     0.000000000000     0.000000000000    78.918337600000
      Gh(O)          -2.693192000000    -1.679912000000     0.355723000000    15.994914619570
      Gh(H)          -1.875366000000    -1.176432000000     0.015423000000     1.007825032230
      Gh(H)          -3.226162000000    -1.909403000000    -0.424515000000     1.007825032230
      Gh(O)          -1.448803000000     2.589056000000    -1.473057000000    15.994914619570
      Gh(H)          -1.905026000000     2.601791000000    -0.617480000000     1.007825032230
      Gh(H)          -1.862488000000     3.210439000000    -2.073139000000     1.007825032230
      Gh(O)          -2.142334000000     0.188851000000    -2.736695000000    15.994914619570
      Gh(H)          -1.900358000000     0.972141000000    -2.236676000000     1.007825032230
      Gh(H)          -2.330046000000     0.458810000000    -3.593644000000     1.007825032230
      Gh(O)           0.593152000000     0.691607000000    -3.130397000000    15.994914619570
      Gh(H)           0.790973000000     0.153655000000    -3.929734000000     1.007825032230
      Gh(H)           0.103934000000     0.137581000000    -2.474532000000     1.007825032230
         O            1.279965000000    -2.599480000000    -1.667778000000    15.994914619570
         H            0.899924000000    -2.394763000000    -2.551512000000     1.007825032230
         H            1.123623000000    -1.790753000000    -1.235832000000     1.007825032230
      Gh(O)           0.507220000000    -0.594639000000     3.390560000000    15.994914619570
      Gh(H)           1.000701000000     0.236302000000     3.548363000000     1.007825032230
      Gh(H)           0.075494000000    -0.431779000000     2.468449000000     1.007825032230
      Gh(O)          -2.141177000000     1.800887000000     1.874188000000    15.994914619570
      Gh(H)          -1.623828000000     1.273723000000     1.198477000000     1.007825032230
      Gh(H)          -1.535113000000     2.232496000000     2.500517000000     1.007825032230

  Charge       = 0
  Multiplicity = 1
  Basis Set: AUG-CC-PVTZ
    Blend: AUG-CC-PVTZ
  Basis Set: (AUG-CC-PVTZ AUX)
    Blend: AUG-CC-PVTZ-JKFIT

    Orbital Energies [Eh]
    ---------------------

    Doubly Occupied:

       1A    -20.568831     2A     -1.357897     3A     -0.708967
       4A     -0.593840     5A     -0.511768

  @DF-RHF Final Energy:   -76.05838709067923

   => Energetics <=

    Nuclear Repulsion Energy =              9.2172055406642635
    One-Electron Energy =                -123.0685747835254773
    Two-Electron Energy =                  37.7929821521819775
    Total Energy =                        -76.0583870906792328
 Dipole X            :        -23.5248956           23.1742160           -0.3506796
 Dipole Y            :         47.8783555          -47.2079211            0.6704344
 Dipole Z            :         32.0830602          -32.3701922           -0.2871320
 Magnitude           :                                                    0.8092610
  Basis Set: (AUG-CC-PVTZ AUX)
    Blend: AUG-CC-PVTZ-RI
	 Reference Energy          =     -76.0583870906792328 [Eh]
	 Singles Energy            =      -0.0000000000000000 [Eh]
	 Same-Spin Energy          =      -0.0684911159243868 [Eh]
	 Opposite-Spin Energy      =      -0.2161676887605196 [Eh]
	 Correlation Energy        =      -0.2846588046849063 [Eh]
	 Total Energy              =     -76.3430458953641420 [Eh]

	 ================> DF-SCS-MP2 Energies <==================
	-----------------------------------------------------------
	 SCS Same-Spin Scale       =       0.3333333333333333 [-]
	 SCS Opposite-Spin Scale   =       1.2000000000000000 [-]
	 SCS Same-Spin Energy      =      -0.0228303719747956 [Eh]
	 SCS Opposite-Spin Energy  =      -0.2594012265126235 [Eh]
	 SCS Correlation Energy    =      -0.2822315984874191 [Eh]
	 SCS Total Energy          =     -76.3406186891666465 [Eh]
	-----------------------------------------------------------

*** Psi4 exiting successfully. Buy a developer a beer!
