                               Psi4 1.8.2 release

  ==> Input File <==

--------------------------------------------------------------------------
MEMORY 60 GB

molecule dimer {
0 1
Gh(Br)     0.000000     0.000000     0.000000
Gh(O)     -2.482245     0.431698    -2.183327
Gh(H)     -1.655939     0.265964    -1.667076
Gh(H)     -3.230451     0.292324    -1.603838
Gh(O)      0.162468     2.602185    -2.062760
Gh(H)      0.057853     1.916729    -1.447029
Gh(H)      0.378926     2.126170    -2.867373
Gh(O)      2.925195     1.607543     0.753982
Gh(H)      3.427561     1.760867    -0.069839
Gh(H)      2.058998     1.436778     0.427908
O          2.391839    -0.819196    -2.219117
H          1.654438    -0.575889    -1.629627
H          1.934968    -1.167604    -3.010764

units ang
no_reorient
no_com
symmetry c1
}

set {
basis        aug-cc-pVTZ
scf_type     df
}

energy("mp2")
--------------------------------------------------------------------------

    Molecular point group: c1

    Geometry (in Angstrom), charge = 0, multiplicity = 1:

       Center              X                  Y                   Z               Mass
    ------------   -----------------  -----------------  -----------------  -----------------
      Gh(BR)          0.000000000000     0.000000000000     0.000000000000    78.918337600000
      Gh(O)          -2.482245000000     0.431698000000    -2.183327000000    15.994914619570
      Gh(H)          -1.655939000000     0.265964000000    -1.667076000000     1.007825032230
      Gh(H)          -3.230451000000     0.292324000000    -1.603838000000     1.007825032230
      Gh(O)           0.162468000000     2.602185000000    -2.062760000000    15.994914619570
      Gh(H)           0.057853000000     1.916729000000    -1.447029000000     1.007825032230
      Gh(H)           0.378926000000     2.126170000000    -2.867373000000     1.007825032230
      Gh(O)           2.925195000000     1.607543000000     0.753982000000    15.994914619570
      Gh(H)           3.427561000000     1.760867000000    -0.069839000000     1.007825032230
      Gh(H)           2.058998000000     1.436778000000     0.427908000000     1.007825032230
         O            2.391839000000    -0.819196000000    -2.219117000000    15.994914619570
         H            1.654438000000    -0.575889000000    -1.629627000000     1.007825032230
         H            1.934968000000    -1.167604000000    -3.010764000000     1.007825032230

  Charge       = 0
  Multiplicity = 1
  Basis Set: AUG-CC-PVTZ
    Blend: AUG-CC-PVTZ
  Basis Set: (AUG-CC-PVTZ AUX)
    Blend: AUG-CC-PVTZ-JKFIT

    Orbital Energies [Eh]
    ---------------------

    Doubly Occupied:

       1A    -20.571206     2A     -1.344852     3A     -0.704476
       4A     -0.584126     5A     -0.509242

  @DF-RHF Final Energy:   -76.05860165357886

   => Energetics <=

    Nuclear Repulsion Energy =              9.0164320066148331
    One-Electron Energy =                -122.7222605185355206
    Two-Electron Energy =                  37.6472268583418241
    Total Energy =                        -76.0586016535788616
 Dipole X            :        -43.7244786           42.9423595           -0.7821191
 Dipole Y            :         15.6104563          -15.6791729           -0.0687167
 Dipole Z            :         42.1857054          -42.3172551           -0.1315497
 Magnitude           :                                                    0.7960764
  Basis Set: (AUG-CC-PVTZ AUX)
    Blend: AUG-CC-PVTZ-RI
	 Reference Energy          =     -76.0586016535788616 [Eh]
	 Singles Energy            =      -0.0000000000000000 [Eh]
	 Same-Spin Energy          =      -0.0687584498261192 [Eh]
	 Opposite-Spin Energy      =      -0.2169755359850945 [Eh]
	 Correlation Energy        =      -0.2857339858112137 [Eh]
	 Total Energy              =     -76.3443356393900814 [Eh]

	 ================> DF-SCS-MP2 Energies <==================
	-----------------------------------------------------------
	 SCS Same-Spin Scale       =       0.3333333333333333 [-]
	 SCS Opposite-Spin Scale   =       1.2000000000000000 [-]
	 SCS Same-Spin Energy      =      -0.0229194832753731 [Eh]
	 SCS Opposite-Spin Energy  =      -0.2603706431821133 [Eh]
	 SCS Correlation Energy    =      -0.2832901264574864 [Eh]
	 SCS Total Energy          =     -76.3418917800363488 [Eh]
	-----------------------------------------------------------

*** Psi4 exiting successfully. Buy a developer a beer!
