                               Psi4 1.8.2 release

  ==> Input File <==

--------------------------------------------------------------------------
MEMORY 60 GB

molecule dimer {
-1 1
Br         0.000000     0.000000     0.000000
Gh(O)      0.907785    -3.270542     0.005052
Gh(H)      0.638022    -2.382067     0.033667
Gh(H)      1.487598    -3.318185     0.780281
Gh(O)     -0.442867    -1.493360     2.705895
Gh(H)     -0.557517    -2.505349     2.636657
Gh(H)     -0.309218    -1.143022     1.794908
Gh(O)      3.300513    -1.122755    -0.539692
Gh(H)      3.130969    -1.988896    -0.865131
Gh(H)      2.387446    -0.783323    -0.362168
Gh(O)     -1.677447     1.488794     2.663873
Gh(H)     -1.236549     1.357234     3.514456
Gh(H)     -1.130855     0.928758     2.068196
Gh(O)      2.470751    -0.161330     2.335308
Gh(H)      2.923351    -1.018032     2.221032
Gh(H)      1.582633    -0.292052     2.024141

units ang
no_reorient
no_com
symmetry c1
}

set {
basis        aug-cc-pVTZ
scf_type     df
}

energy("mp2")
--------------------------------------------------------------------------

    Molecular point group: c1

    Geometry (in Angstrom), charge = -1, multiplicity = 1:

       Center              X                  Y                   Z               Mass
    ------------   -----------------  -----------------  -----------------  -----------------
         BR           0.000000000000     0.000000000000     0.000000000000    78.918337600000
      Gh(O)           0.907785000000    -3.270542000000     0.005052000000    15.994914619570
      Gh(H)           0.638022000000    -2.382067000000     0.033667000000     1.007825032230
      Gh(H)           1.487598000000    -3.318185000000     0.780281000000     1.007825032230
      Gh(O)          -0.442867000000    -1.493360000000     2.705895000000    15.994914619570
      Gh(H)          -0.557517000000    -2.505349000000     2.636657000000     1.007825032230
      Gh(H)          -0.309218000000    -1.143022000000     1.794908000000     1.007825032230
      Gh(O)           3.300513000000    -1.122755000000    -0.539692000000    15.994914619570
      Gh(H)           3.130969000000    -1.988896000000    -0.865131000000     1.007825032230
      Gh(H)           2.387446000000    -0.783323000000    -0.362168000000     1.007825032230
      Gh(O)          -1.677447000000     1.488794000000     2.663873000000    15.994914619570
      Gh(H)          -1.236549000000     1.357234000000     3.514456000000     1.007825032230
      Gh(H)          -1.130855000000     0.928758000000     2.068196000000     1.007825032230
      Gh(O)           2.470751000000    -0.161330000000     2.335308000000    15.994914619570
      Gh(H)           2.923351000000    -1.018032000000     2.221032000000     1.007825032230
      Gh(H)           1.582633000000    -0.292052000000     2.024141000000     1.007825032230

  Charge       = -1
  Multiplicity = 1
  Basis Set: AUG-CC-PVTZ
    Blend: AUG-CC-PVTZ
  Basis Set: (AUG-CC-PVTZ AUX)
    Blend: AUG-CC-PVTZ-JKFIT

    Orbital Energies [Eh]
    ---------------------

    Doubly Occupied:

       1A   -489.722321     2A    -64.861866     3A    -58.216407
       4A    -58.216404     5A    -58.216403     6A     -9.533315
       7A     -7.140656     8A     -7.140632     9A     -7.140628
      10A     -2.882361    11A     -2.882354    12A     -2.882340
      13A     -2.882337    14A     -2.882324    15A     -0.685994
      16A     -0.139341    17A     -0.139334    18A     -0.139333

  @DF-RHF Final Energy: -2572.53373207722552

   => Energetics <=

    Nuclear Repulsion Energy =              0.0000000000000000
    One-Electron Energy =               -3593.6587656314800370
    Two-Electron Energy =                1021.1250335542547418
    Total Energy =                      -2572.5337320772250678
 Dipole X            :          0.0000631            0.0000000            0.0000631
 Dipole Y            :         -0.0000333            0.0000000           -0.0000333
 Dipole Z            :          0.0001567            0.0000000            0.0001567
 Magnitude           :                                                    0.0001722
  Basis Set: (AUG-CC-PVTZ AUX)
    Blend: AUG-CC-PVTZ-RI
	 Reference Energy          =   -2572.5337320772255225 [Eh]
	 Singles Energy            =      -0.0000000000000000 [Eh]
	 Same-Spin Energy          =      -0.0916648757319979 [Eh]
	 Opposite-Spin Energy      =      -0.2135810467864485 [Eh]
	 Correlation Energy        =      -0.3052459225184464 [Eh]
	 Total Energy              =   -2572.8389779997437472 [Eh]

	 ================> DF-SCS-MP2 Energies <==================
	-----------------------------------------------------------
	 SCS Same-Spin Scale       =       0.3333333333333333 [-]
	 SCS Opposite-Spin Scale   =       1.2000000000000000 [-]
	 SCS Same-Spin Energy      =      -0.0305549585773326 [Eh]
	 SCS Opposite-Spin Energy  =      -0.2562972561437382 [Eh]
	 SCS Correlation Energy    =      -0.2868522147210709 [Eh]
	 SCS Total Energy          =   -2572.8205842919464885 [Eh]
	-----------------------------------------------------------

*** Psi4 exiting successfully. Buy a developer a beer!
