                               Psi4 1.8.2 release

  ==> Input File <==

--------------------------------------------------------------------------
MEMORY 60 GB

molecule dimer {
0 1
Gh(Br)     0.000000     0.000000     0.000000
Gh(O)     -0.630320    -1.812852    -2.835716
Gh(H)      0.099872    -1.746765    -3.480055
Gh(H)     -0.261433    -1.797117    -1.930378
Gh(O)      2.945936    -0.416442    -1.486677
Gh(H)      3.091641     0.065515    -2.290126
Gh(H)      2.192306    -0.076273    -1.026734
Gh(O)      1.081383     0.129347     3.221554
Gh(H)      0.797023     0.138574     2.329944
Gh(H)      1.856045    -0.415427     3.230156
O          0.682430    -2.991189     1.039180
H          0.558201    -2.053686     0.678418
H          1.365896    -3.343831     0.489197
Gh(O)     -2.520613    -2.137780     0.741783
Gh(H)     -2.608792    -1.437443     1.439520
Gh(H)     -1.795357    -1.828209     0.187538

units ang
no_reorient
no_com
symmetry c1
}

set {
basis        aug-cc-pVTZ
scf_type     df
}

energy("mp2")
--------------------------------------------------------------------------

    Molecular point group: c1

    Geometry (in Angstrom), charge = 0, multiplicity = 1:

       Center              X                  Y                   Z               Mass
    ------------   -----------------  -----------------  -----------------  -----------------
      Gh(BR)          0.000000000000     0.000000000000     0.000000000000    78.918337600000
      Gh(O)          -0.630320000000    -1.812852000000    -2.835716000000    15.994914619570
      Gh(H)           0.099872000000    -1.746765000000    -3.480055000000     1.007825032230
      Gh(H)          -0.261433000000    -1.797117000000    -1.930378000000     1.007825032230
      Gh(O)           2.945936000000    -0.416442000000    -1.486677000000    15.994914619570
      Gh(H)           3.091641000000     0.065515000000    -2.290126000000     1.007825032230
      Gh(H)           2.192306000000    -0.076273000000    -1.026734000000     1.007825032230
      Gh(O)           1.081383000000     0.129347000000     3.221554000000    15.994914619570
      Gh(H)           0.797023000000     0.138574000000     2.329944000000     1.007825032230
      Gh(H)           1.856045000000    -0.415427000000     3.230156000000     1.007825032230
         O            0.682430000000    -2.991189000000     1.039180000000    15.994914619570
         H            0.558201000000    -2.053686000000     0.678418000000     1.007825032230
         H            1.365896000000    -3.343831000000     0.489197000000     1.007825032230
      Gh(O)          -2.520613000000    -2.137780000000     0.741783000000    15.994914619570
      Gh(H)          -2.608792000000    -1.437443000000     1.439520000000     1.007825032230
      Gh(H)          -1.795357000000    -1.828209000000     0.187538000000     1.007825032230

  Charge       = 0
  Multiplicity = 1
  Basis Set: AUG-CC-PVTZ
    Blend: AUG-CC-PVTZ
  Basis Set: (AUG-CC-PVTZ AUX)
    Blend: AUG-CC-PVTZ-JKFIT

    Orbital Energies [Eh]
    ---------------------

    Doubly Occupied:

       1A    -20.571231     2A     -1.344619     3A     -0.703881
       4A     -0.582993     5A     -0.509113

  @DF-RHF Final Energy:   -76.05640812072109

   => Energetics <=

    Nuclear Repulsion Energy =              9.0049623245250299
    One-Electron Energy =                -122.6990626756170144
    Two-Electron Energy =                  37.6376922303709023
    Total Energy =                        -76.0564081207210876
 Dipole X            :        -13.5808231           13.9528628            0.3720397
 Dipole Y            :         55.7927265          -55.4200529            0.3726736
 Dipole Z            :        -18.5139039           17.9165973           -0.5973066
 Magnitude           :                                                    0.7962878
  Basis Set: (AUG-CC-PVTZ AUX)
    Blend: AUG-CC-PVTZ-RI
	 Reference Energy          =     -76.0564081207210876 [Eh]
	 Singles Energy            =      -0.0000000000000000 [Eh]
	 Same-Spin Energy          =      -0.0688021631247837 [Eh]
	 Opposite-Spin Energy      =      -0.2172650847867120 [Eh]
	 Correlation Energy        =      -0.2860672479114957 [Eh]
	 Total Energy              =     -76.3424753686325772 [Eh]

	 ================> DF-SCS-MP2 Energies <==================
	-----------------------------------------------------------
	 SCS Same-Spin Scale       =       0.3333333333333333 [-]
	 SCS Opposite-Spin Scale   =       1.2000000000000000 [-]
	 SCS Same-Spin Energy      =      -0.0229340543749279 [Eh]
	 SCS Opposite-Spin Energy  =      -0.2607181017440544 [Eh]
	 SCS Correlation Energy    =      -0.2836521561189823 [Eh]
	 SCS Total Energy          =     -76.3400602768400631 [Eh]
	-----------------------------------------------------------

*** Psi4 exiting successfully. Buy a developer a beer!
