                               Psi4 1.9 release

  ==> Input File <==

--------------------------------------------------------------------------
MEMORY 60 GB

molecule dimer {
-1 1
Br     0.000000     0.000000     0.000000
--
0 1
O      1.548803    -0.710591     3.040000
H      0.898652    -0.539982     2.353961
H      1.060812    -1.118901     3.781649
O      0.137519    -0.423573    -3.463886
H     -0.133520    -0.725311    -2.600673
H     -0.032708    -1.196669    -3.995500
O     -2.010270    -2.265977     1.576016
H     -1.353894    -1.831518     1.044048
H     -2.834302    -1.936376     1.192922
O     -0.016933    -2.910328    -1.674653
H     -0.135970    -2.167692    -1.070498
H      0.453271    -3.621303    -1.199784
O      3.384032    -0.837063    -0.115591
H      3.644167    -1.658433    -0.579572
H      2.425456    -0.765354    -0.030565

units ang
no_reorient
no_com
symmetry c1
}

set {
basis        aug-cc-pVTZ
scf_type     df
}

energy("mp2", bsse_type="cp")
--------------------------------------------------------------------------

                               Psi4 1.9 release
    Molecular point group: c1
  Charge       = 0
  Multiplicity = 1
  Basis Set: AUG-CC-PVTZ
    Blend: AUG-CC-PVTZ
  Basis Set: (AUG-CC-PVTZ AUX)
    Blend: AUG-CC-PVTZ-JKFIT
  @DF-RHF Final Energy:  -380.28781904213037
    Total Energy =                       -380.2878190421303657
 Dipole X            :        -54.9087777           53.5494942           -1.3592834
 Dipole Y            :        136.4705257         -137.4620704           -0.9915447
 Dipole Z            :         11.8889997          -11.7331659            0.1558339
 Magnitude           :                                                    1.6897031
  Basis Set: (AUG-CC-PVTZ AUX)
    Blend: AUG-CC-PVTZ-RI
	 Reference Energy          =    -380.2878190421303657 [Eh]
	 Singles Energy            =      -0.0000000000000000 [Eh]
	 Same-Spin Energy          =      -0.3441779802840590 [Eh]
	 Opposite-Spin Energy      =      -1.0824893513778746 [Eh]
	 Correlation Energy        =      -1.4266673316619336 [Eh]
	 Total Energy              =    -381.7144863737922833 [Eh]
	 SCS Total Energy          =    -381.7015322572118521 [Eh]
                               Psi4 1.9 release
    Molecular point group: c1
  Multiplicity = 1
  Basis Set: AUG-CC-PVTZ
    Blend: AUG-CC-PVTZ
  Basis Set: (AUG-CC-PVTZ AUX)
    Blend: AUG-CC-PVTZ-JKFIT
  @DF-RHF Final Energy: -2572.53372719378422
    Total Energy =                      -2572.5337271937842161
  Basis Set: (AUG-CC-PVTZ AUX)
	 Singles Energy            =      -0.0000000000000000 [Eh]
	 Same-Spin Energy          =      -0.0909904161811586 [Eh]
	 Opposite-Spin Energy      =      -0.2117477876137482 [Eh]
	 Correlation Energy        =      -0.3027382037949067 [Eh]
	 Total Energy              =   -2572.8364653975791043 [Eh]
	 SCS Total Energy          =   -2572.8181546776477262 [Eh]
                               Psi4 1.9 release
    Molecular point group: c1

    Geometry (in Bohr), charge = -1, multiplicity = 1:

       Center              X                  Y                   Z               Mass
    ------------   -----------------  -----------------  -----------------  -----------------
         BR           0.000000000000     0.000000000000     0.000000000000    78.918337600000
         O            2.926813492287    -1.342822377215     5.744767421392    15.994914619570
         H            1.698206162095    -1.020418092677     4.448341600009     1.007825032230
         H            2.004644150599    -2.114416451501     7.146280912611     1.007825032230
         O            0.259873247047    -0.800436964139    -6.545795869808    15.994914619570
         H           -0.252316232271    -1.370639145782    -4.914559711873     1.007825032230
         H           -0.061809162111    -2.261376672825    -7.550400734267     1.007825032230
         O           -3.798859738224    -4.282075936587     2.978238609340    15.994914619570
         H           -2.558488862901    -3.461067413846     1.972964781832     1.007825032230
         H           -5.356054536837    -3.659220315910     2.254295869033     1.007825032230
         O           -0.031998732482    -5.499722855251    -3.164635525176    15.994914619570
         H           -0.256946061279    -4.096344204346    -2.022948037850     1.007825032230
         H            0.856558050612    -6.843270887299    -2.267263169706     1.007825032230
         O            6.394893679785    -1.581819819754    -0.218435332568    15.994914619570
         H            6.886477585431    -3.133984167421    -1.095232349984     1.007825032230
         H            4.583447569348    -1.446309449024    -0.057759479025     1.007825032230

  Charge       = -1
  Multiplicity = 1
  Basis Set: AUG-CC-PVTZ
    Blend: AUG-CC-PVTZ
  Basis Set: (AUG-CC-PVTZ AUX)
    Blend: AUG-CC-PVTZ-JKFIT

    Orbital Energies [Eh]
    ---------------------

    Doubly Occupied:

       1A   -489.790924     2A    -64.931308     3A    -58.285830
       4A    -58.285791     5A    -58.285765     6A    -20.436013
       7A    -20.430703     8A    -20.422848     9A    -20.417464
      10A    -20.413493    11A     -9.603591    12A     -7.211248
      13A     -7.211032    14A     -7.210900    15A     -2.952907
      16A     -2.952853    17A     -2.952677    18A     -2.952403
      19A     -2.952390    20A     -1.220273    21A     -1.218618
      22A     -1.208170    23A     -1.202906    24A     -1.190536
      25A     -0.769669    26A     -0.595549    27A     -0.579585
      28A     -0.573796    29A     -0.570078    30A     -0.563766
      31A     -0.460641    32A     -0.458331    33A     -0.439694
      34A     -0.437881    35A     -0.420666    36A     -0.383871
      37A     -0.376693    38A     -0.366462    39A     -0.362052
      40A     -0.355875    41A     -0.219992    42A     -0.217524
      43A     -0.215477

  @DF-RHF Final Energy: -2952.87833936758489

   => Energetics <=

    Nuclear Repulsion Energy =            440.3390191358770380
    One-Electron Energy =               -5002.2182155729324222
    Two-Electron Energy =                1609.0008570694710670
    Total Energy =                      -2952.8783393675848856
 Dipole X            :        -55.0426794           53.5494942           -1.4931852
 Dipole Y            :        137.4679819         -137.4620704            0.0059115
 Dipole Z            :         11.8431599          -11.7331659            0.1099940
 Magnitude           :                                                    1.4972427
  Basis Set: (AUG-CC-PVTZ AUX)
    Blend: AUG-CC-PVTZ-RI
	 Reference Energy          =   -2952.8783393675848856 [Eh]
	 Singles Energy            =      -0.0000000000000000 [Eh]
	 Same-Spin Energy          =      -0.4442140924491255 [Eh]
	 Opposite-Spin Energy      =      -1.3014222772878088 [Eh]
	 Correlation Energy        =      -1.7456363697369344 [Eh]
	 Total Energy              =   -2954.6239757373218708 [Eh]

	 ================> DF-SCS-MP2 Energies <==================
	-----------------------------------------------------------
	 SCS Same-Spin Scale       =       0.3333333333333333 [-]
	 SCS Opposite-Spin Scale   =       1.2000000000000000 [-]
	 SCS Same-Spin Energy      =      -0.1480713641497085 [Eh]
	 SCS Opposite-Spin Energy  =      -1.5617067327453704 [Eh]
	 SCS Correlation Energy    =      -1.7097780968950789 [Eh]
	 SCS Total Energy          =   -2954.5881174644800922 [Eh]
	-----------------------------------------------------------

*** Psi4 exiting successfully. Buy a developer a beer!
