                               Psi4 1.8.2 release

  ==> Input File <==

--------------------------------------------------------------------------
MEMORY 60 GB

molecule dimer {
0 1
Gh(Br)     0.000000     0.000000     0.000000
O         -3.203691    -0.706166     0.782016
H         -2.295960    -0.464817     0.667408
H         -3.558639    -0.246998     1.530606
Gh(O)     -1.688294    -2.239204    -1.689504
Gh(H)     -1.640223    -2.974459    -1.039912
Gh(H)     -1.367206    -1.475108    -1.153456
Gh(O)      1.718343    -2.981602     0.227705
Gh(H)      1.215621    -3.617408     0.840091
Gh(H)      1.172353    -2.184568     0.147489
Gh(O)     -1.023386     2.101542     2.512944
Gh(H)     -0.754621     1.462034     1.797374
Gh(H)     -0.259077     2.082588     3.154971

units ang
no_reorient
no_com
symmetry c1
}

set {
basis        aug-cc-pVTZ
scf_type     df
}

energy("mp2")
--------------------------------------------------------------------------

    Molecular point group: c1

    Geometry (in Angstrom), charge = 0, multiplicity = 1:

       Center              X                  Y                   Z               Mass
    ------------   -----------------  -----------------  -----------------  -----------------
      Gh(BR)          0.000000000000     0.000000000000     0.000000000000    78.918337600000
         O           -3.203691000000    -0.706166000000     0.782016000000    15.994914619570
         H           -2.295960000000    -0.464817000000     0.667408000000     1.007825032230
         H           -3.558639000000    -0.246998000000     1.530606000000     1.007825032230
      Gh(O)          -1.688294000000    -2.239204000000    -1.689504000000    15.994914619570
      Gh(H)          -1.640223000000    -2.974459000000    -1.039912000000     1.007825032230
      Gh(H)          -1.367206000000    -1.475108000000    -1.153456000000     1.007825032230
      Gh(O)           1.718343000000    -2.981602000000     0.227705000000    15.994914619570
      Gh(H)           1.215621000000    -3.617408000000     0.840091000000     1.007825032230
      Gh(H)           1.172353000000    -2.184568000000     0.147489000000     1.007825032230
      Gh(O)          -1.023386000000     2.101542000000     2.512944000000    15.994914619570
      Gh(H)          -0.754621000000     1.462034000000     1.797374000000     1.007825032230
      Gh(H)          -0.259077000000     2.082588000000     3.154971000000     1.007825032230

  Charge       = 0
  Multiplicity = 1
  Basis Set: AUG-CC-PVTZ
    Blend: AUG-CC-PVTZ
  Basis Set: (AUG-CC-PVTZ AUX)
    Blend: AUG-CC-PVTZ-JKFIT

    Orbital Energies [Eh]
    ---------------------

    Doubly Occupied:

       1A    -20.563151     2A     -1.355599     3A     -0.732966
       4A     -0.577446     5A     -0.509819

  @DF-RHF Final Energy:   -76.06091649146927

   => Energetics <=

    Nuclear Repulsion Energy =              9.2858256768696386
    One-Electron Energy =                -123.2155177290237731
    Two-Electron Energy =                  37.8687755606848597
    Total Energy =                        -76.0609164914692713
 Dipole X            :         59.8727642          -59.4963773            0.3763869
 Dipole Y            :         12.4973651          -12.0208181            0.4765470
 Dipole Z            :        -15.5448834           15.9760130            0.4311296
 Magnitude           :                                                    0.7447395
  Basis Set: (AUG-CC-PVTZ AUX)
    Blend: AUG-CC-PVTZ-RI
	 Reference Energy          =     -76.0609164914692713 [Eh]
	 Singles Energy            =      -0.0000000000000000 [Eh]
	 Same-Spin Energy          =      -0.0681453357994745 [Eh]
	 Opposite-Spin Energy      =      -0.2150567192444824 [Eh]
	 Correlation Energy        =      -0.2832020550439569 [Eh]
	 Total Energy              =     -76.3441185465132293 [Eh]

	 ================> DF-SCS-MP2 Energies <==================
	-----------------------------------------------------------
	 SCS Same-Spin Scale       =       0.3333333333333333 [-]
	 SCS Opposite-Spin Scale   =       1.2000000000000000 [-]
	 SCS Same-Spin Energy      =      -0.0227151119331582 [Eh]
	 SCS Opposite-Spin Energy  =      -0.2580680630933789 [Eh]
	 SCS Correlation Energy    =      -0.2807831750265370 [Eh]
	 SCS Total Energy          =     -76.3416996664958134 [Eh]
	-----------------------------------------------------------

*** Psi4 exiting successfully. Buy a developer a beer!
