                               Psi4 1.8.2 release

  ==> Input File <==

--------------------------------------------------------------------------
MEMORY 60 GB

molecule dimer {
0 1
Gh(Br)     0.000000     0.000000     0.000000
O         -1.940430    -2.565513     0.899073
H         -2.030209    -2.518827     1.877284
H         -1.295089    -1.914109     0.676999
Gh(O)      0.553447     2.582178     2.321146
Gh(H)      0.620745     1.665940     2.488208
Gh(H)      1.397611     2.901012     2.170963
Gh(O)     -1.302614    -1.622954    -2.889180
Gh(H)     -1.645295    -0.838258    -3.392872
Gh(H)     -0.914137    -1.279381    -2.076378
Gh(O)      2.785557    -0.938036    -1.642619
Gh(H)      3.238266    -1.550119    -1.047537
Gh(H)      2.005838    -0.710489    -1.193734
Gh(O)      0.626728     2.977561    -1.391010
Gh(H)     -0.065650     2.917648    -2.116526
Gh(H)      1.310986     2.330535    -1.671214

units ang
no_reorient
no_com
symmetry c1
}

set {
basis        aug-cc-pVTZ
scf_type     df
}

energy("mp2")
--------------------------------------------------------------------------

    Molecular point group: c1

    Geometry (in Angstrom), charge = 0, multiplicity = 1:

       Center              X                  Y                   Z               Mass
    ------------   -----------------  -----------------  -----------------  -----------------
      Gh(BR)          0.000000000000     0.000000000000     0.000000000000    78.918337600000
         O           -1.940430000000    -2.565513000000     0.899073000000    15.994914619570
         H           -2.030209000000    -2.518827000000     1.877284000000     1.007825032230
         H           -1.295089000000    -1.914109000000     0.676999000000     1.007825032230
      Gh(O)           0.553447000000     2.582178000000     2.321146000000    15.994914619570
      Gh(H)           0.620745000000     1.665940000000     2.488208000000     1.007825032230
      Gh(H)           1.397611000000     2.901012000000     2.170963000000     1.007825032230
      Gh(O)          -1.302614000000    -1.622954000000    -2.889180000000    15.994914619570
      Gh(H)          -1.645295000000    -0.838258000000    -3.392872000000     1.007825032230
      Gh(H)          -0.914137000000    -1.279381000000    -2.076378000000     1.007825032230
      Gh(O)           2.785557000000    -0.938036000000    -1.642619000000    15.994914619570
      Gh(H)           3.238266000000    -1.550119000000    -1.047537000000     1.007825032230
      Gh(H)           2.005838000000    -0.710489000000    -1.193734000000     1.007825032230
      Gh(O)           0.626728000000     2.977561000000    -1.391010000000    15.994914619570
      Gh(H)          -0.065650000000     2.917648000000    -2.116526000000     1.007825032230
      Gh(H)           1.310986000000     2.330535000000    -1.671214000000     1.007825032230

  Charge       = 0
  Multiplicity = 1
  Basis Set: AUG-CC-PVTZ
    Blend: AUG-CC-PVTZ
  Basis Set: (AUG-CC-PVTZ AUX)
    Blend: AUG-CC-PVTZ-JKFIT

    Orbital Energies [Eh]
    ---------------------

    Doubly Occupied:

       1A    -20.567837     2A     -1.350212     3A     -0.716046
       4A     -0.582059     5A     -0.509639

  @DF-RHF Final Energy:   -76.05943240300061

   => Energetics <=

    Nuclear Repulsion Energy =              9.1373163744409727
    One-Electron Energy =                -122.9419077440084891
    Two-Electron Energy =                  37.7451589665669118
    Total Energy =                        -76.0594324030006135
 Dipole X            :         35.9916834          -35.6189526            0.3727307
 Dipole Y            :         47.6289063          -47.1619705            0.4669358
 Dipole Z            :        -17.9217202           18.4189092            0.4971890
 Magnitude           :                                                    0.7772735
  Basis Set: (AUG-CC-PVTZ AUX)
    Blend: AUG-CC-PVTZ-RI
	 Reference Energy          =     -76.0594324030006135 [Eh]
	 Singles Energy            =      -0.0000000000000000 [Eh]
	 Same-Spin Energy          =      -0.0684702762682055 [Eh]
	 Opposite-Spin Energy      =      -0.2160900226038857 [Eh]
	 Correlation Energy        =      -0.2845602988720912 [Eh]
	 Total Energy              =     -76.3439927018727076 [Eh]

	 ================> DF-SCS-MP2 Energies <==================
	-----------------------------------------------------------
	 SCS Same-Spin Scale       =       0.3333333333333333 [-]
	 SCS Opposite-Spin Scale   =       1.2000000000000000 [-]
	 SCS Same-Spin Energy      =      -0.0228234254227352 [Eh]
	 SCS Opposite-Spin Energy  =      -0.2593080271246628 [Eh]
	 SCS Correlation Energy    =      -0.2821314525473980 [Eh]
	 SCS Total Energy          =     -76.3415638555480172 [Eh]
	-----------------------------------------------------------

*** Psi4 exiting successfully. Buy a developer a beer!
