                               Psi4 1.8.2 release

  ==> Input File <==

--------------------------------------------------------------------------
MEMORY 60 GB

molecule dimer {
-1 1
Br         0.000000     0.000000     0.000000
O          1.383396     2.880375     1.689837
H          0.998655     2.001846     1.765023
H          1.625502     2.922174     0.742268
O         -2.899952    -1.542526     0.562001
H         -2.681656    -1.715339     1.490147
H         -2.036155    -1.221167     0.231828
O         -1.229115     0.720300     3.121857
H         -1.534913    -0.162096     3.356935
H         -0.998486     0.789810     2.220954
O         -2.495561     2.154699    -0.039728
H         -1.710013     1.651982    -0.136262
H         -3.067662     1.525619     0.422586
O          0.532476    -3.145512     0.853930
H          1.023018    -3.992223     0.651557
H          0.354709    -2.697916    -0.018524

units ang
no_reorient
no_com
symmetry c1
}

set {
basis        aug-cc-pVTZ
scf_type     df
}

energy("mp2")
--------------------------------------------------------------------------

    Molecular point group: c1

    Geometry (in Angstrom), charge = -1, multiplicity = 1:

       Center              X                  Y                   Z               Mass
    ------------   -----------------  -----------------  -----------------  -----------------
         BR           0.000000000000     0.000000000000     0.000000000000    78.918337600000
         O            1.383396000000     2.880375000000     1.689837000000    15.994914619570
         H            0.998655000000     2.001846000000     1.765023000000     1.007825032230
         H            1.625502000000     2.922174000000     0.742268000000     1.007825032230
         O           -2.899952000000    -1.542526000000     0.562001000000    15.994914619570
         H           -2.681656000000    -1.715339000000     1.490147000000     1.007825032230
         H           -2.036155000000    -1.221167000000     0.231828000000     1.007825032230
         O           -1.229115000000     0.720300000000     3.121857000000    15.994914619570
         H           -1.534913000000    -0.162096000000     3.356935000000     1.007825032230
         H           -0.998486000000     0.789810000000     2.220954000000     1.007825032230
         O           -2.495561000000     2.154699000000    -0.039728000000    15.994914619570
         H           -1.710013000000     1.651982000000    -0.136262000000     1.007825032230
         H           -3.067662000000     1.525619000000     0.422586000000     1.007825032230
         O            0.532476000000    -3.145512000000     0.853930000000    15.994914619570
         H            1.023018000000    -3.992223000000     0.651557000000     1.007825032230
         H            0.354709000000    -2.697916000000    -0.018524000000     1.007825032230

  Charge       = -1
  Multiplicity = 1
  Basis Set: AUG-CC-PVTZ
    Blend: AUG-CC-PVTZ
  Basis Set: (AUG-CC-PVTZ AUX)
    Blend: AUG-CC-PVTZ-JKFIT

    Orbital Energies [Eh]
    ---------------------

    Doubly Occupied:

       1A   -489.791092     2A    -64.931625     3A    -58.286138
       4A    -58.286107     5A    -58.286066     6A    -20.449136
       7A    -20.426020     8A    -20.425332     9A    -20.422198
      10A    -20.404356    11A     -9.604056    12A     -7.211750
      13A     -7.211612    14A     -7.211290    15A     -2.953455
      16A     -2.953433    17A     -2.953056    18A     -2.952857
      19A     -2.952776    20A     -1.215942    21A     -1.209364
      22A     -1.206551    23A     -1.204822    24A     -1.199180
      25A     -0.771179    26A     -0.602417    27A     -0.577692
      28A     -0.563498    29A     -0.561207    30A     -0.556123
      31A     -0.455101    32A     -0.450141    33A     -0.447195
      34A     -0.440092    35A     -0.435402    36A     -0.384248
      37A     -0.373562    38A     -0.368627    39A     -0.367780
      40A     -0.352787    41A     -0.221571    42A     -0.218940
      43A     -0.214337

  @DF-RHF Final Energy: -2952.87148854568613

   => Energetics <=

    Nuclear Repulsion Energy =            447.3741770520998671
    One-Electron Energy =               -5016.2711015123250036
    Two-Electron Energy =                1616.0254359145385479
    Total Energy =                      -2952.8714885456865886
 Dipole X            :         87.8388669          -86.3549074            1.4839596
 Dipole Y            :        -16.5202530           14.4401116           -2.0801413
 Dipole Z            :       -115.3063920          113.8176149           -1.4887770
 Magnitude           :                                                    2.9572928
  Basis Set: (AUG-CC-PVTZ AUX)
    Blend: AUG-CC-PVTZ-RI
	 Reference Energy          =   -2952.8714885456861339 [Eh]
	 Singles Energy            =      -0.0000000000000000 [Eh]
	 Same-Spin Energy          =      -0.4447024739890126 [Eh]
	 Opposite-Spin Energy      =      -1.3025386075825278 [Eh]
	 Correlation Energy        =      -1.7472410815715405 [Eh]
	 Total Energy              =   -2954.6187296272578351 [Eh]

	 ================> DF-SCS-MP2 Energies <==================
	-----------------------------------------------------------
	 SCS Same-Spin Scale       =       0.3333333333333333 [-]
	 SCS Opposite-Spin Scale   =       1.2000000000000000 [-]
	 SCS Same-Spin Energy      =      -0.1482341579963375 [Eh]
	 SCS Opposite-Spin Energy  =      -1.5630463290990333 [Eh]
	 SCS Correlation Energy    =      -1.7112804870953708 [Eh]
	 SCS Total Energy          =   -2954.5827690327814707 [Eh]
	-----------------------------------------------------------

*** Psi4 exiting successfully. Buy a developer a beer!
