                               Psi4 1.9 release

  ==> Input File <==

--------------------------------------------------------------------------
MEMORY 60 GB

molecule dimer {
-1 1
Br     0.000000     0.000000     0.000000
--
0 1
O     -3.089947     1.034619     0.842009
H     -3.734811     0.391946     0.529675
H     -2.297161     0.715238     0.405981
O     -2.233158    -2.307199     1.583647
H     -2.798612    -2.457186     0.820221
H     -1.458816    -1.809725     1.296922
O     -0.611219     2.868519     1.544803
H     -0.492191     2.014807     1.191864
H      0.279621     2.996725     1.995565
O     -1.434323     2.291860    -1.824576
H     -0.902332     3.109212    -1.825781
H     -0.845869     1.602856    -1.446966

units ang
no_reorient
no_com
symmetry c1
}

set {
basis        aug-cc-pVTZ
scf_type     df
}

energy("mp2", bsse_type="cp")
--------------------------------------------------------------------------

                               Psi4 1.9 release
    Molecular point group: c1
  Charge       = 0
  Multiplicity = 1
  Basis Set: AUG-CC-PVTZ
    Blend: AUG-CC-PVTZ
  Basis Set: (AUG-CC-PVTZ AUX)
    Blend: AUG-CC-PVTZ-JKFIT
  @DF-RHF Final Energy:  -304.22181978147643
    Total Energy =                       -304.2218197814764835
 Dipole X            :        136.0438406         -134.5472661            1.4965745
 Dipole Y            :        -71.8478216           71.1789250           -0.6688965
 Dipole Z            :        -38.8729141           38.0487757           -0.8241384
 Magnitude           :                                                    1.8347648
  Basis Set: (AUG-CC-PVTZ AUX)
    Blend: AUG-CC-PVTZ-RI
	 Reference Energy          =    -304.2218197814764267 [Eh]
	 Singles Energy            =      -0.0000000000000000 [Eh]
	 Same-Spin Energy          =      -0.2761316017803237 [Eh]
	 Opposite-Spin Energy      =      -0.8681581784926748 [Eh]
	 Correlation Energy        =      -1.1442897802729985 [Eh]
	 Total Energy              =    -305.3661095617493970 [Eh]
	 SCS Total Energy          =    -305.3556534629277621 [Eh]
                               Psi4 1.9 release
    Molecular point group: c1
  Multiplicity = 1
  Basis Set: AUG-CC-PVTZ
    Blend: AUG-CC-PVTZ
  Basis Set: (AUG-CC-PVTZ AUX)
    Blend: AUG-CC-PVTZ-JKFIT
  @DF-RHF Final Energy: -2572.53372076737014
    Total Energy =                      -2572.5337207673696867
  Basis Set: (AUG-CC-PVTZ AUX)
	 Singles Energy            =      -0.0000000000000000 [Eh]
	 Same-Spin Energy          =      -0.0907017993700567 [Eh]
	 Opposite-Spin Energy      =      -0.2111436132131239 [Eh]
	 Correlation Energy        =      -0.3018454125831806 [Eh]
	 Total Energy              =   -2572.8355661799532754 [Eh]
	 SCS Total Energy          =   -2572.8173270363490701 [Eh]
                               Psi4 1.9 release
    Molecular point group: c1

    Geometry (in Bohr), charge = -1, multiplicity = 1:

       Center              X                  Y                   Z               Mass
    ------------   -----------------  -----------------  -----------------  -----------------
         BR           0.000000000000     0.000000000000     0.000000000000    78.918337600000
         O           -5.839153572180     1.955146554195     1.591166405171    15.994914619570
         H           -7.057769920347     0.740670595969     1.000940685502     1.007825032230
         H           -4.341005156083     1.351603934520     0.767192902139     1.007825032230
         O           -4.220057014875    -4.359974226930     2.992659109403    15.994914619570
         H           -5.288610211420    -4.643408579309     1.549993052349     1.007825032230
         H           -2.756762707436    -3.419884612394     2.450827386081     1.007825032230
         O           -1.155036512676     5.420715295672     2.919254587786    15.994914619570
         H           -0.930106191415     3.807433425655     2.252296538793     1.007825032230
         H            0.528407108927     5.662989523313     3.771071315549     1.007825032230
         O           -2.710477645445     4.330987717892    -3.447948935083    15.994914619570
         H           -1.705160354237     5.875559145987    -3.450226055065     1.007825032230
         H           -1.598460748015     3.028958858547    -2.734369452849     1.007825032230

  Charge       = -1
  Multiplicity = 1
  Basis Set: AUG-CC-PVTZ
    Blend: AUG-CC-PVTZ
  Basis Set: (AUG-CC-PVTZ AUX)
    Blend: AUG-CC-PVTZ-JKFIT

    Orbital Energies [Eh]
    ---------------------

    Doubly Occupied:

       1A   -489.785462     2A    -64.925957     3A    -58.280449
       4A    -58.280443     5A    -58.280414     6A    -20.424858
       7A    -20.407735     8A    -20.403841     9A    -20.398687
      10A     -9.598384    11A     -7.205976    12A     -7.205854
      13A     -7.205778    14A     -2.947578    15A     -2.947559
      16A     -2.947450    17A     -2.947320    18A     -2.947308
      19A     -1.208614    20A     -1.192201    21A     -1.186916
      22A     -1.180537    23A     -0.765119    24A     -0.583381
      25A     -0.552411    26A     -0.546976    27A     -0.536602
      28A     -0.441259    29A     -0.435245    30A     -0.425792
      31A     -0.422382    32A     -0.371525    33A     -0.355369
      34A     -0.346226    35A     -0.338802    36A     -0.213799
      37A     -0.211713    38A     -0.210386

  @DF-RHF Final Energy: -2876.80413267416634

   => Energetics <=

    Nuclear Repulsion Energy =            343.7127158675291980
    One-Electron Energy =               -4703.7010754978946352
    Two-Electron Energy =                1483.1842269561991543
    Total Energy =                      -2876.8041326741658850
 Dipole X            :        136.7688279         -134.5472661            2.2215618
 Dipole Y            :        -72.3359641           71.1789250           -1.1570390
 Dipole Z            :        -38.9969767           38.0487757           -0.9482010
 Magnitude           :                                                    2.6782758
  Basis Set: (AUG-CC-PVTZ AUX)
    Blend: AUG-CC-PVTZ-RI
	 Reference Energy          =   -2876.8041326741663397 [Eh]
	 Singles Energy            =      -0.0000000000000000 [Eh]
	 Same-Spin Energy          =      -0.3749838657192935 [Eh]
	 Opposite-Spin Energy      =      -1.0853892906551612 [Eh]
	 Correlation Energy        =      -1.4603731563744549 [Eh]
	 Total Energy              =   -2878.2645058305406565 [Eh]

	 ================> DF-SCS-MP2 Energies <==================
	-----------------------------------------------------------
	 SCS Same-Spin Scale       =       0.3333333333333333 [-]
	 SCS Opposite-Spin Scale   =       1.2000000000000000 [-]
	 SCS Same-Spin Energy      =      -0.1249946219064312 [Eh]
	 SCS Opposite-Spin Energy  =      -1.3024671487861934 [Eh]
	 SCS Correlation Energy    =      -1.4274617706926245 [Eh]
	 SCS Total Energy          =   -2878.2315944448591836 [Eh]
	-----------------------------------------------------------

*** Psi4 exiting successfully. Buy a developer a beer!
