                               Psi4 1.9 release

  ==> Input File <==

--------------------------------------------------------------------------
MEMORY 60 GB

molecule dimer {
-1 1
Br     0.000000     0.000000     0.000000
--
0 1
O      2.468166    -1.725257    -1.468911
H      2.008711    -1.796399    -2.336402
H      1.933235    -1.232159    -0.838800
O     -1.184606    -3.402731     0.278725
H     -0.353106    -3.499588     0.783401
H     -1.108456    -2.501841    -0.036643
O     -1.124259    -1.651488    -2.915811
H     -0.354710    -2.056374    -3.284914
H     -0.779463    -1.098095    -2.188563
O     -2.680953     1.703746    -1.441367
H     -2.245764     1.022923    -0.880588
H     -2.101163     1.772878    -2.243374

units ang
no_reorient
no_com
symmetry c1
}

set {
basis        aug-cc-pVTZ
scf_type     df
}

energy("mp2", bsse_type="cp")
--------------------------------------------------------------------------

                               Psi4 1.9 release
    Molecular point group: c1
  Charge       = 0
  Multiplicity = 1
  Basis Set: AUG-CC-PVTZ
    Blend: AUG-CC-PVTZ
  Basis Set: (AUG-CC-PVTZ AUX)
    Blend: AUG-CC-PVTZ-JKFIT
  @DF-RHF Final Energy:  -304.22523495991959
    Total Energy =                       -304.2252349599195895
 Dipole X            :         45.0826261          -43.7923847            1.2902414
 Dipole Y            :         94.9142247          -94.4759033            0.4383214
 Dipole Z            :        104.6806486         -104.6998886           -0.0192400
 Magnitude           :                                                    1.3627981
  Basis Set: (AUG-CC-PVTZ AUX)
    Blend: AUG-CC-PVTZ-RI
	 Reference Energy          =    -304.2252349599195895 [Eh]
	 Singles Energy            =      -0.0000000000000000 [Eh]
	 Same-Spin Energy          =      -0.2756738508867693 [Eh]
	 Opposite-Spin Energy      =      -0.8676259274721994 [Eh]
	 Correlation Energy        =      -1.1432997783589687 [Eh]
	 Total Energy              =    -305.3685347382785835 [Eh]
	 SCS Total Energy          =    -305.3582773565151456 [Eh]
                               Psi4 1.9 release
    Molecular point group: c1
  Multiplicity = 1
  Basis Set: AUG-CC-PVTZ
    Blend: AUG-CC-PVTZ
  Basis Set: (AUG-CC-PVTZ AUX)
    Blend: AUG-CC-PVTZ-JKFIT
  @DF-RHF Final Energy: -2572.53371451487783
    Total Energy =                      -2572.5337145148778291
  Basis Set: (AUG-CC-PVTZ AUX)
	 Singles Energy            =      -0.0000000000000000 [Eh]
	 Same-Spin Energy          =      -0.0899448852609073 [Eh]
	 Opposite-Spin Energy      =      -0.2091180953628664 [Eh]
	 Correlation Energy        =      -0.2990629806237737 [Eh]
	 Total Energy              =   -2572.8327774955014320 [Eh]
	 SCS Total Energy          =   -2572.8146378577334872 [Eh]
                               Psi4 1.9 release
    Molecular point group: c1

    Geometry (in Bohr), charge = -1, multiplicity = 1:

       Center              X                  Y                   Z               Mass
    ------------   -----------------  -----------------  -----------------  -----------------
         BR           0.000000000000     0.000000000000     0.000000000000    78.918337600000
         O            4.664157772167    -3.260263226029    -2.775839492672    15.994914619570
         H            3.795913655195    -3.394702122046    -4.415159898972     1.007825032230
         H            3.653284686149    -2.328443053018    -1.585102274034     1.007825032230
         O           -2.238580906574    -6.430229668605     0.526713914318    15.994914619570
         H           -0.667273633256    -6.613262871939     1.480413336410     1.007825032230
         H           -2.094678262120    -4.727794299442    -0.069245234415     1.007825032230
         O           -2.124541604081    -3.120860019480    -5.510084223597    15.994914619570
         H           -0.670304753961    -3.885983671512    -6.207587805682     1.007825032230
         H           -1.472971594928    -2.075098809735    -4.135784678310     1.007825032230
         O           -5.066266925225     3.219613327344    -2.723788876273    15.994914619570
         H           -4.243878902413     1.933044317432    -1.664070149365     1.007825032230
         H           -3.970622614945     3.350253873849    -4.239362456973     1.007825032230

  Charge       = -1
  Multiplicity = 1
  Basis Set: AUG-CC-PVTZ
    Blend: AUG-CC-PVTZ
  Basis Set: (AUG-CC-PVTZ AUX)
    Blend: AUG-CC-PVTZ-JKFIT

    Orbital Energies [Eh]
    ---------------------

    Doubly Occupied:

       1A   -489.788216     2A    -64.928550     3A    -58.283061
       4A    -58.283032     5A    -58.283017     6A    -20.433092
       7A    -20.426340     8A    -20.424214     9A    -20.423824
      10A     -9.600871    11A     -7.208464    12A     -7.208351
      13A     -7.208160    14A     -2.950148    15A     -2.950113
      16A     -2.949910    17A     -2.949746    18A     -2.949706
      19A     -1.220706    20A     -1.205993    21A     -1.203830
      22A     -1.192804    23A     -0.763945    24A     -0.585236
      25A     -0.583512    26A     -0.562065    27A     -0.556897
      28A     -0.457530    29A     -0.448811    30A     -0.438780
      31A     -0.435970    32A     -0.380093    33A     -0.370484
      34A     -0.365990    35A     -0.363477    36A     -0.215567
      37A     -0.214205    38A     -0.210392

  @DF-RHF Final Energy: -2876.81587985136412

   => Energetics <=

    Nuclear Repulsion Energy =            328.4586432574611763
    One-Electron Energy =               -4672.4988348256883910
    Two-Electron Energy =                1467.2243117168627577
    Total Energy =                      -2876.8158798513641159
 Dipole X            :         45.2326330          -43.7923847            1.4402483
 Dipole Y            :         95.4862262          -94.4759033            1.0103229
 Dipole Z            :        105.3640310         -104.6998886            0.6641424
 Magnitude           :                                                    1.8804661
  Basis Set: (AUG-CC-PVTZ AUX)
    Blend: AUG-CC-PVTZ-RI
	 Reference Energy          =   -2876.8158798513641159 [Eh]
	 Singles Energy            =      -0.0000000000000000 [Eh]
	 Same-Spin Energy          =      -0.3722436115935006 [Eh]
	 Opposite-Spin Energy      =      -1.0811184382658210 [Eh]
	 Correlation Energy        =      -1.4533620498593216 [Eh]
	 Total Energy              =   -2878.2692419012232676 [Eh]

	 ================> DF-SCS-MP2 Energies <==================
	-----------------------------------------------------------
	 SCS Same-Spin Scale       =       0.3333333333333333 [-]
	 SCS Opposite-Spin Scale   =       1.2000000000000000 [-]
	 SCS Same-Spin Energy      =      -0.1240812038645002 [Eh]
	 SCS Opposite-Spin Energy  =      -1.2973421259189852 [Eh]
	 SCS Correlation Energy    =      -1.4214233297834855 [Eh]
	 SCS Total Energy          =   -2878.2373031811475812 [Eh]
	-----------------------------------------------------------

*** Psi4 exiting successfully. Buy a developer a beer!
