                               Psi4 1.8.2 release

  ==> Input File <==

--------------------------------------------------------------------------
MEMORY 60 GB

molecule dimer {
-1 1
Br         0.000000     0.000000     0.000000
O          0.341150     0.776241    -3.513535
H          0.559687     1.745389    -3.643795
H          0.259971     0.595020    -2.572308
O         -3.228866     0.199860     1.064817
H         -2.554272    -0.465074     0.898206
H         -4.003385    -0.263674     1.419464
O         -1.501421     2.694653    -1.037470
H         -1.857259     2.772058    -1.919008
H         -1.054329     1.848031    -0.932673
O          2.688093     2.201399    -0.380651
H          2.548789     3.054275    -0.789423
H          1.816747     1.792628    -0.342110

units ang
no_reorient
no_com
symmetry c1
}

set {
basis        aug-cc-pVTZ
scf_type     df
}

energy("mp2")
--------------------------------------------------------------------------

    Molecular point group: c1

    Geometry (in Angstrom), charge = -1, multiplicity = 1:

       Center              X                  Y                   Z               Mass
    ------------   -----------------  -----------------  -----------------  -----------------
         BR           0.000000000000     0.000000000000     0.000000000000    78.918337600000
         O            0.341150000000     0.776241000000    -3.513535000000    15.994914619570
         H            0.559687000000     1.745389000000    -3.643795000000     1.007825032230
         H            0.259971000000     0.595020000000    -2.572308000000     1.007825032230
         O           -3.228866000000     0.199860000000     1.064817000000    15.994914619570
         H           -2.554272000000    -0.465074000000     0.898206000000     1.007825032230
         H           -4.003385000000    -0.263674000000     1.419464000000     1.007825032230
         O           -1.501421000000     2.694653000000    -1.037470000000    15.994914619570
         H           -1.857259000000     2.772058000000    -1.919008000000     1.007825032230
         H           -1.054329000000     1.848031000000    -0.932673000000     1.007825032230
         O            2.688093000000     2.201399000000    -0.380651000000    15.994914619570
         H            2.548789000000     3.054275000000    -0.789423000000     1.007825032230
         H            1.816747000000     1.792628000000    -0.342110000000     1.007825032230

  Charge       = -1
  Multiplicity = 1
  Basis Set: AUG-CC-PVTZ
    Blend: AUG-CC-PVTZ
  Basis Set: (AUG-CC-PVTZ AUX)
    Blend: AUG-CC-PVTZ-JKFIT

    Orbital Energies [Eh]
    ---------------------

    Doubly Occupied:

       1A   -489.771116     2A    -64.911439     3A    -58.265979
       4A    -58.265933     5A    -58.265880     6A    -20.429393
       7A    -20.426688     8A    -20.418413     9A    -20.402746
      10A     -9.583736    11A     -7.191522    12A     -7.191149
      13A     -7.190927    14A     -2.933242    15A     -2.933145
      16A     -2.932846    17A     -2.932396    18A     -2.932359
      19A     -1.207164    20A     -1.205031    21A     -1.200560
      22A     -1.190852    23A     -0.747843    24A     -0.577429
      25A     -0.575348    26A     -0.571082    27A     -0.569879
      28A     -0.440278    29A     -0.437822    30A     -0.436929
      31A     -0.418395    32A     -0.370171    33A     -0.368755
      34A     -0.363586    35A     -0.350257    36A     -0.201711
      37A     -0.195891    38A     -0.192992

  @DF-RHF Final Energy: -2876.80525577048229

   => Energetics <=

    Nuclear Repulsion Energy =            328.4807825703510389
    One-Electron Energy =               -4673.3702997089394557
    Two-Electron Energy =                1468.0842613681063540
    Total Energy =                      -2876.8052557704822902
 Dipole X            :         33.3373966          -33.8117414           -0.4743448
 Dipole Y            :       -110.7591338          109.7097075           -1.0494263
 Dipole Z            :         73.7870030          -73.3522877            0.4347154
 Magnitude           :                                                    1.2309655
  Basis Set: (AUG-CC-PVTZ AUX)
    Blend: AUG-CC-PVTZ-RI
	 Reference Energy          =   -2876.8052557704822902 [Eh]
	 Singles Energy            =      -0.0000000000000000 [Eh]
	 Same-Spin Energy          =      -0.3725857830203689 [Eh]
	 Opposite-Spin Energy      =      -1.0812761380229468 [Eh]
	 Correlation Energy        =      -1.4538619210433157 [Eh]
	 Total Energy              =   -2878.2591176915257165 [Eh]

	 ================> DF-SCS-MP2 Energies <==================
	-----------------------------------------------------------
	 SCS Same-Spin Scale       =       0.3333333333333333 [-]
	 SCS Opposite-Spin Scale   =       1.2000000000000000 [-]
	 SCS Same-Spin Energy      =      -0.1241952610067896 [Eh]
	 SCS Opposite-Spin Energy  =      -1.2975313656275360 [Eh]
	 SCS Correlation Energy    =      -1.4217266266343256 [Eh]
	 SCS Total Energy          =   -2878.2269823971164442 [Eh]
	-----------------------------------------------------------

*** Psi4 exiting successfully. Buy a developer a beer!
