                               Psi4 1.8.2 release

  ==> Input File <==

--------------------------------------------------------------------------
MEMORY 60 GB

molecule dimer {
0 1
Gh(Br)     0.000000     0.000000     0.000000
Gh(O)     -0.046525    -2.172810     2.388371
Gh(H)      0.192961    -2.058591     3.276470
Gh(H)      0.227483    -1.447125     1.853069
Gh(O)     -3.001582    -1.688367    -0.659378
Gh(H)     -3.051597    -2.464025    -0.091192
Gh(H)     -2.107316    -1.279153    -0.589440
Gh(O)      1.202238     1.886794     2.696986
Gh(H)      0.703236     1.368206     2.070104
Gh(H)      0.555514     2.123391     3.374762
Gh(O)      0.642071     3.088985    -0.348066
Gh(H)      0.818347     3.560490     0.475379
Gh(H)      0.241245     2.278483    -0.088040
O         -1.743083     0.570150     2.511522
H         -1.402890     0.297354     1.627315
H         -2.233465    -0.240456     2.843953

units ang
no_reorient
no_com
symmetry c1
}

set {
basis        aug-cc-pVTZ
scf_type     df
}

energy("mp2")
--------------------------------------------------------------------------

    Molecular point group: c1

    Geometry (in Angstrom), charge = 0, multiplicity = 1:

       Center              X                  Y                   Z               Mass
    ------------   -----------------  -----------------  -----------------  -----------------
      Gh(BR)          0.000000000000     0.000000000000     0.000000000000    78.918337600000
      Gh(O)          -0.046525000000    -2.172810000000     2.388371000000    15.994914619570
      Gh(H)           0.192961000000    -2.058591000000     3.276470000000     1.007825032230
      Gh(H)           0.227483000000    -1.447125000000     1.853069000000     1.007825032230
      Gh(O)          -3.001582000000    -1.688367000000    -0.659378000000    15.994914619570
      Gh(H)          -3.051597000000    -2.464025000000    -0.091192000000     1.007825032230
      Gh(H)          -2.107316000000    -1.279153000000    -0.589440000000     1.007825032230
      Gh(O)           1.202238000000     1.886794000000     2.696986000000    15.994914619570
      Gh(H)           0.703236000000     1.368206000000     2.070104000000     1.007825032230
      Gh(H)           0.555514000000     2.123391000000     3.374762000000     1.007825032230
      Gh(O)           0.642071000000     3.088985000000    -0.348066000000    15.994914619570
      Gh(H)           0.818347000000     3.560490000000     0.475379000000     1.007825032230
      Gh(H)           0.241245000000     2.278483000000    -0.088040000000     1.007825032230
         O           -1.743083000000     0.570150000000     2.511522000000    15.994914619570
         H           -1.402890000000     0.297354000000     1.627315000000     1.007825032230
         H           -2.233465000000    -0.240456000000     2.843953000000     1.007825032230

  Charge       = 0
  Multiplicity = 1
  Basis Set: AUG-CC-PVTZ
    Blend: AUG-CC-PVTZ
  Basis Set: (AUG-CC-PVTZ AUX)
    Blend: AUG-CC-PVTZ-JKFIT

    Orbital Energies [Eh]
    ---------------------

    Doubly Occupied:

       1A    -20.573782     2A     -1.335291     3A     -0.696697
       4A     -0.578540     5A     -0.507534

  @DF-RHF Final Energy:   -76.05554114056115

   => Energetics <=

    Nuclear Repulsion Energy =              8.8479078941726375
    One-Electron Energy =                -122.4232070060473632
    Two-Electron Energy =                  37.5197579713135809
    Total Energy =                        -76.0555411405611466
 Dipole X            :         33.1273034          -33.2233109           -0.0960075
 Dipole Y            :         -9.4287767            8.7269404           -0.7018362
 Dipole Z            :        -46.7791388           46.4181819           -0.3609569
 Magnitude           :                                                    0.7950355
  Basis Set: (AUG-CC-PVTZ AUX)
    Blend: AUG-CC-PVTZ-RI
	 Reference Energy          =     -76.0555411405611466 [Eh]
	 Singles Energy            =      -0.0000000000000000 [Eh]
	 Same-Spin Energy          =      -0.0690902387410397 [Eh]
	 Opposite-Spin Energy      =      -0.2181428437356146 [Eh]
	 Correlation Energy        =      -0.2872330824766542 [Eh]
	 Total Energy              =     -76.3427742230378072 [Eh]

	 ================> DF-SCS-MP2 Energies <==================
	-----------------------------------------------------------
	 SCS Same-Spin Scale       =       0.3333333333333333 [-]
	 SCS Opposite-Spin Scale   =       1.2000000000000000 [-]
	 SCS Same-Spin Energy      =      -0.0230300795803466 [Eh]
	 SCS Opposite-Spin Energy  =      -0.2617714124827375 [Eh]
	 SCS Correlation Energy    =      -0.2848014920630840 [Eh]
	 SCS Total Energy          =     -76.3403426326242283 [Eh]
	-----------------------------------------------------------

*** Psi4 exiting successfully. Buy a developer a beer!
