                               Psi4 1.8.2 release

  ==> Input File <==

--------------------------------------------------------------------------
MEMORY 60 GB

molecule dimer {
-1 1
Br         0.000000     0.000000     0.000000
Gh(O)     -0.379237     2.882694    -2.014268
Gh(H)      0.562370     3.245775    -1.893921
Gh(H)     -0.429436     2.146345    -1.405238
Gh(O)      0.265547    -2.152641    -2.556446
Gh(H)      0.109230    -1.512354    -1.853273
Gh(H)     -0.395724    -2.804868    -2.310221
Gh(O)      2.476012     1.824756     1.189733
Gh(H)      1.692344     1.651069     0.621015
Gh(H)      2.748789     2.618981     0.811553
Gh(O)      2.562109    -2.156767    -0.903197
Gh(H)      2.064666    -2.905687    -1.220072
Gh(H)      1.839878    -1.556832    -0.648916

units ang
no_reorient
no_com
symmetry c1
}

set {
basis        aug-cc-pVTZ
scf_type     df
}

energy("mp2")
--------------------------------------------------------------------------

    Molecular point group: c1

    Geometry (in Angstrom), charge = -1, multiplicity = 1:

       Center              X                  Y                   Z               Mass
    ------------   -----------------  -----------------  -----------------  -----------------
         BR           0.000000000000     0.000000000000     0.000000000000    78.918337600000
      Gh(O)          -0.379237000000     2.882694000000    -2.014268000000    15.994914619570
      Gh(H)           0.562370000000     3.245775000000    -1.893921000000     1.007825032230
      Gh(H)          -0.429436000000     2.146345000000    -1.405238000000     1.007825032230
      Gh(O)           0.265547000000    -2.152641000000    -2.556446000000    15.994914619570
      Gh(H)           0.109230000000    -1.512354000000    -1.853273000000     1.007825032230
      Gh(H)          -0.395724000000    -2.804868000000    -2.310221000000     1.007825032230
      Gh(O)           2.476012000000     1.824756000000     1.189733000000    15.994914619570
      Gh(H)           1.692344000000     1.651069000000     0.621015000000     1.007825032230
      Gh(H)           2.748789000000     2.618981000000     0.811553000000     1.007825032230
      Gh(O)           2.562109000000    -2.156767000000    -0.903197000000    15.994914619570
      Gh(H)           2.064666000000    -2.905687000000    -1.220072000000     1.007825032230
      Gh(H)           1.839878000000    -1.556832000000    -0.648916000000     1.007825032230

  Charge       = -1
  Multiplicity = 1
  Basis Set: AUG-CC-PVTZ
    Blend: AUG-CC-PVTZ
  Basis Set: (AUG-CC-PVTZ AUX)
    Blend: AUG-CC-PVTZ-JKFIT

    Orbital Energies [Eh]
    ---------------------

    Doubly Occupied:

       1A   -489.721958     2A    -64.861602     3A    -58.216130
       4A    -58.216129     5A    -58.216127     6A     -9.533224
       7A     -7.140566     8A     -7.140556     9A     -7.140535
      10A     -2.882270    11A     -2.882258    12A     -2.882256
      13A     -2.882246    14A     -2.882224    15A     -0.685993
      16A     -0.139338    17A     -0.139336    18A     -0.139331

  @DF-RHF Final Energy: -2572.53371979799795

   => Energetics <=

    Nuclear Repulsion Energy =              0.0000000000000000
    One-Electron Energy =               -3593.6632815968787327
    Two-Electron Energy =                1021.1295617988805589
    Total Energy =                      -2572.5337197979979464
 Dipole X            :          0.0002334            0.0000000            0.0002334
 Dipole Y            :          0.0002889            0.0000000            0.0002889
 Dipole Z            :         -0.0002593            0.0000000           -0.0002593
 Magnitude           :                                                    0.0004530
  Basis Set: (AUG-CC-PVTZ AUX)
    Blend: AUG-CC-PVTZ-RI
	 Reference Energy          =   -2572.5337197979979464 [Eh]
	 Singles Energy            =      -0.0000000000000000 [Eh]
	 Same-Spin Energy          =      -0.0906084823672119 [Eh]
	 Opposite-Spin Energy      =      -0.2108199054005936 [Eh]
	 Correlation Energy        =      -0.3014283877678055 [Eh]
	 Total Energy              =   -2572.8351481857657745 [Eh]

	 ================> DF-SCS-MP2 Energies <==================
	-----------------------------------------------------------
	 SCS Same-Spin Scale       =       0.3333333333333333 [-]
	 SCS Opposite-Spin Scale   =       1.2000000000000000 [-]
	 SCS Same-Spin Energy      =      -0.0302028274557373 [Eh]
	 SCS Opposite-Spin Energy  =      -0.2529838864807123 [Eh]
	 SCS Correlation Energy    =      -0.2831867139364497 [Eh]
	 SCS Total Energy          =   -2572.8169065119345760 [Eh]
	-----------------------------------------------------------

*** Psi4 exiting successfully. Buy a developer a beer!
