                               Psi4 1.8.2 release

  ==> Input File <==

--------------------------------------------------------------------------
MEMORY 60 GB

molecule dimer {
-1 1
Br         0.000000     0.000000     0.000000
Gh(O)     -1.911432     2.433986     1.070897
Gh(H)     -1.555279     3.089706     1.640643
Gh(H)     -1.224968     1.718194     1.109894
Gh(O)     -1.401665     2.429875    -1.811153
Gh(H)     -1.959056     2.676358    -1.041095
Gh(H)     -0.686385     1.866479    -1.500724
Gh(O)     -1.794280    -2.241072     2.073482
Gh(H)     -1.722283    -2.617890     2.966158
Gh(H)     -1.034366    -1.621705     2.007902
Gh(O)      2.505713    -0.505921     1.723979
Gh(H)      1.700403    -0.507406     1.113190
Gh(H)      2.107247    -0.320223     2.595222
Gh(O)      2.946339    -0.264625    -1.581763
Gh(H)      3.334716     0.559035    -1.244785
Gh(H)      2.261634    -0.356773    -0.924585

units ang
no_reorient
no_com
symmetry c1
}

set {
basis        aug-cc-pVTZ
scf_type     df
}

energy("mp2")
--------------------------------------------------------------------------

    Molecular point group: c1

    Geometry (in Angstrom), charge = -1, multiplicity = 1:

       Center              X                  Y                   Z               Mass
    ------------   -----------------  -----------------  -----------------  -----------------
         BR           0.000000000000     0.000000000000     0.000000000000    78.918337600000
      Gh(O)          -1.911432000000     2.433986000000     1.070897000000    15.994914619570
      Gh(H)          -1.555279000000     3.089706000000     1.640643000000     1.007825032230
      Gh(H)          -1.224968000000     1.718194000000     1.109894000000     1.007825032230
      Gh(O)          -1.401665000000     2.429875000000    -1.811153000000    15.994914619570
      Gh(H)          -1.959056000000     2.676358000000    -1.041095000000     1.007825032230
      Gh(H)          -0.686385000000     1.866479000000    -1.500724000000     1.007825032230
      Gh(O)          -1.794280000000    -2.241072000000     2.073482000000    15.994914619570
      Gh(H)          -1.722283000000    -2.617890000000     2.966158000000     1.007825032230
      Gh(H)          -1.034366000000    -1.621705000000     2.007902000000     1.007825032230
      Gh(O)           2.505713000000    -0.505921000000     1.723979000000    15.994914619570
      Gh(H)           1.700403000000    -0.507406000000     1.113190000000     1.007825032230
      Gh(H)           2.107247000000    -0.320223000000     2.595222000000     1.007825032230
      Gh(O)           2.946339000000    -0.264625000000    -1.581763000000    15.994914619570
      Gh(H)           3.334716000000     0.559035000000    -1.244785000000     1.007825032230
      Gh(H)           2.261634000000    -0.356773000000    -0.924585000000     1.007825032230

  Charge       = -1
  Multiplicity = 1
  Basis Set: AUG-CC-PVTZ
    Blend: AUG-CC-PVTZ
  Basis Set: (AUG-CC-PVTZ AUX)
    Blend: AUG-CC-PVTZ-JKFIT

    Orbital Energies [Eh]
    ---------------------

    Doubly Occupied:

       1A   -489.722225     2A    -64.861813     3A    -58.216349
       4A    -58.216348     5A    -58.216345     6A     -9.533299
       7A     -7.140643     8A     -7.140625     9A     -7.140605
      10A     -2.882345    11A     -2.882330    12A     -2.882326
      13A     -2.882314    14A     -2.882299    15A     -0.685989
      16A     -0.139337    17A     -0.139333    18A     -0.139326

  @DF-RHF Final Energy: -2572.53373245410739

   => Energetics <=

    Nuclear Repulsion Energy =              0.0000000000000000
    One-Electron Energy =               -3593.6597609123045913
    Two-Electron Energy =                1021.1260284581974247
    Total Energy =                      -2572.5337324541069393
 Dipole X            :          0.0000923            0.0000000            0.0000923
 Dipole Y            :         -0.0000474            0.0000000           -0.0000474
 Dipole Z            :          0.0000706            0.0000000            0.0000706
 Magnitude           :                                                    0.0001255
  Basis Set: (AUG-CC-PVTZ AUX)
    Blend: AUG-CC-PVTZ-RI
	 Reference Energy          =   -2572.5337324541073940 [Eh]
	 Singles Energy            =      -0.0000000000000000 [Eh]
	 Same-Spin Energy          =      -0.0914899611186393 [Eh]
	 Opposite-Spin Energy      =      -0.2132218625100948 [Eh]
	 Correlation Energy        =      -0.3047118236287341 [Eh]
	 Total Energy              =   -2572.8384442777360164 [Eh]

	 ================> DF-SCS-MP2 Energies <==================
	-----------------------------------------------------------
	 SCS Same-Spin Scale       =       0.3333333333333333 [-]
	 SCS Opposite-Spin Scale   =       1.2000000000000000 [-]
	 SCS Same-Spin Energy      =      -0.0304966537062131 [Eh]
	 SCS Opposite-Spin Energy  =      -0.2558662350121138 [Eh]
	 SCS Correlation Energy    =      -0.2863628887183268 [Eh]
	 SCS Total Energy          =   -2572.8200953428258799 [Eh]
	-----------------------------------------------------------

*** Psi4 exiting successfully. Buy a developer a beer!
