                               Psi4 1.9 release

  ==> Input File <==

--------------------------------------------------------------------------
MEMORY 60 GB

molecule dimer {
-1 1
Br     0.000000     0.000000     0.000000
--
0 1
O      0.621247    -0.253886     3.242490
H      0.234566     0.055975     2.396675
H      0.415263     0.421387     3.885040
O     -0.516566     3.494598     0.217594
H     -0.532078     2.526620     0.174775
H     -1.057899     3.829521    -0.470581
O     -2.996306     0.834889     0.610223
H     -2.026873     0.813467     0.442268
H     -3.320349    -0.026119     0.263152
O      2.165559     2.220841    -1.401461
H      1.379243     2.086322    -1.915582
H      1.950098     2.837132    -0.711281
O     -0.802070     1.843563    -2.594464
H     -1.311892     2.734430    -2.481891
H     -0.751670     1.215067    -1.902978

units ang
no_reorient
no_com
symmetry c1
}

set {
basis        aug-cc-pVTZ
scf_type     df
}

energy("mp2", bsse_type="cp")
--------------------------------------------------------------------------

                               Psi4 1.9 release
    Molecular point group: c1
  Charge       = 0
  Multiplicity = 1
  Basis Set: AUG-CC-PVTZ
    Blend: AUG-CC-PVTZ
  Basis Set: (AUG-CC-PVTZ AUX)
    Blend: AUG-CC-PVTZ-JKFIT
  @DF-RHF Final Energy:  -380.27817788597946
    Total Energy =                       -380.2781778859794599
 Dipole X            :         31.0866140          -32.5914999           -1.5048859
 Dipole Y            :       -154.0197815          154.2278094            0.2080279
 Dipole Z            :         -0.8217586            0.5190189           -0.3027396
 Magnitude           :                                                    1.5490669
  Basis Set: (AUG-CC-PVTZ AUX)
    Blend: AUG-CC-PVTZ-RI
	 Reference Energy          =    -380.2781778859794599 [Eh]
	 Singles Energy            =      -0.0000000000000000 [Eh]
	 Same-Spin Energy          =      -0.3455159581629276 [Eh]
	 Opposite-Spin Energy      =      -1.0847342148777694 [Eh]
	 Correlation Energy        =      -1.4302501730406971 [Eh]
	 Total Energy              =    -381.7084280590201502 [Eh]
	 SCS Total Energy          =    -381.6950309298870820 [Eh]
                               Psi4 1.9 release
    Molecular point group: c1
  Multiplicity = 1
  Basis Set: AUG-CC-PVTZ
    Blend: AUG-CC-PVTZ
  Basis Set: (AUG-CC-PVTZ AUX)
    Blend: AUG-CC-PVTZ-JKFIT
  @DF-RHF Final Energy: -2572.53372860720310
    Total Energy =                      -2572.5337286072031020
  Basis Set: (AUG-CC-PVTZ AUX)
	 Singles Energy            =      -0.0000000000000000 [Eh]
	 Same-Spin Energy          =      -0.0913097053619943 [Eh]
	 Opposite-Spin Energy      =      -0.2126119495316758 [Eh]
	 Correlation Energy        =      -0.3039216548936701 [Eh]
	 Total Energy              =   -2572.8376502620967585 [Eh]
	 SCS Total Energy          =   -2572.8192995150952811 [Eh]
                               Psi4 1.9 release
    Molecular point group: c1

    Geometry (in Bohr), charge = -1, multiplicity = 1:

       Center              X                  Y                   Z               Mass
    ------------   -----------------  -----------------  -----------------  -----------------
         BR           0.000000000000     0.000000000000     0.000000000000    78.918337600000
         O            1.173986686262    -0.479775007088     6.127418064536    15.994914619570
         H            0.443265498344     0.105777419873     4.529059361732     1.007825032230
         H            0.784733340036     0.796306022828     7.341661586449     1.007825032230
         O           -0.976168265723     6.603833138573     0.411193066543    15.994914619570
         H           -1.005481697381     4.774619823104     0.330276883577     1.007825032230
         H           -1.999139378396     7.236745881689    -0.889269209844     1.007825032230
         O           -5.662197728066     1.577711555157     1.153154345455    15.994914619570
         H           -3.830234861085     1.537229842098     0.835765394054     1.007825032230
         H           -6.274550250938    -0.049357756671     0.497285209366     1.007825032230
         O            4.092313418520     4.196781258188    -2.648377465510    15.994914619570
         H            2.606391530455     3.942577189517    -3.619925350857     1.007825032230
         H            3.685151137803     5.361402461772    -1.344126288242     1.007825032230
         O           -1.515692633446     3.483829165027    -4.902826402360    15.994914619570
         H           -2.479116586179     5.167323809236    -4.690094263239     1.007825032230
         H           -1.420450436723     2.296143854082    -3.596107242771     1.007825032230

  Charge       = -1
  Multiplicity = 1
  Basis Set: AUG-CC-PVTZ
    Blend: AUG-CC-PVTZ
  Basis Set: (AUG-CC-PVTZ AUX)
    Blend: AUG-CC-PVTZ-JKFIT

    Orbital Energies [Eh]
    ---------------------

    Doubly Occupied:

       1A   -489.787110     2A    -64.927718     3A    -58.282235
       4A    -58.282192     5A    -58.282116     6A    -20.438173
       7A    -20.437974     8A    -20.416614     9A    -20.414873
      10A    -20.407403    11A     -9.600218    12A     -7.207984
      13A     -7.207821    14A     -7.207299    15A     -2.949780
      16A     -2.949768    17A     -2.949121    18A     -2.948900
      19A     -2.948734    20A     -1.230456    21A     -1.211407
      22A     -1.200660    23A     -1.199072    24A     -1.190054
      25A     -0.770377    26A     -0.612917    27A     -0.603264
      28A     -0.574399    29A     -0.566733    30A     -0.555356
      31A     -0.462230    32A     -0.437202    33A     -0.435179
      34A     -0.434915    35A     -0.426901    36A     -0.386537
      37A     -0.378974    38A     -0.361149    39A     -0.358456
      40A     -0.357808    41A     -0.218867    42A     -0.217146
      43A     -0.207672

  @DF-RHF Final Energy: -2952.85895045306688

   => Energetics <=

    Nuclear Repulsion Energy =            457.8430532356994718
    One-Electron Energy =               -5037.3164594691488674
    Two-Electron Energy =                1626.6144557803818316
    Total Energy =                      -2952.8589504530673366
 Dipole X            :         31.7934381          -32.5914999           -0.7980617
 Dipole Y            :       -154.8800373          154.2278094           -0.6522278
 Dipole Z            :         -0.9121570            0.5190189           -0.3931380
 Magnitude           :                                                    1.1031143
  Basis Set: (AUG-CC-PVTZ AUX)
    Blend: AUG-CC-PVTZ-RI
	 Reference Energy          =   -2952.8589504530668819 [Eh]
	 Singles Energy            =      -0.0000000000000000 [Eh]
	 Same-Spin Energy          =      -0.4473281785129524 [Eh]
	 Opposite-Spin Energy      =      -1.3057720913705302 [Eh]
	 Correlation Energy        =      -1.7531002698834826 [Eh]
	 Total Energy              =   -2954.6120507229502437 [Eh]

	 ================> DF-SCS-MP2 Energies <==================
	-----------------------------------------------------------
	 SCS Same-Spin Scale       =       0.3333333333333333 [-]
	 SCS Opposite-Spin Scale   =       1.2000000000000000 [-]
	 SCS Same-Spin Energy      =      -0.1491093928376508 [Eh]
	 SCS Opposite-Spin Energy  =      -1.5669265096446361 [Eh]
	 SCS Correlation Energy    =      -1.7160359024822869 [Eh]
	 SCS Total Energy          =   -2954.5749863555492993 [Eh]
	-----------------------------------------------------------

*** Psi4 exiting successfully. Buy a developer a beer!
