                               Psi4 1.9 release

  ==> Input File <==

--------------------------------------------------------------------------
MEMORY 60 GB

molecule dimer {
-1 1
Br     0.000000     0.000000     0.000000
--
0 1
O     -1.002720     1.993124     2.321313
H     -0.351528     2.133751     3.042936
H     -0.543410     1.349055     1.802299
O      0.307659    -1.113457     3.179549
H      0.146511    -1.014538     2.251034
H      0.916176    -0.384364     3.369983
O      0.134938     2.890842    -2.146499
H      0.910478     2.837152    -2.697170
H      0.278111     2.304641    -1.426932
O      2.679835     2.140169     0.858685
H      2.130372     1.676874     0.222200
H      2.422386     3.080482     0.748396
O      2.910957    -1.444106     1.064877
H      2.876759    -2.399112     0.943677
H      1.992337    -1.112588     0.882055
O     -2.729613     2.306210     0.073831
H     -2.217593     2.158831     0.876539
H     -2.952467     1.398441    -0.249696

units ang
no_reorient
no_com
symmetry c1
}

set {
basis        aug-cc-pVTZ
scf_type     df
}

energy("mp2", bsse_type="cp")
--------------------------------------------------------------------------

                               Psi4 1.9 release
    Molecular point group: c1
  Charge       = 0
  Multiplicity = 1
  Basis Set: AUG-CC-PVTZ
    Blend: AUG-CC-PVTZ
  Basis Set: (AUG-CC-PVTZ AUX)
    Blend: AUG-CC-PVTZ-JKFIT
  @DF-RHF Final Energy:  -456.34365380893894
    Total Energy =                       -456.3436538089389387
 Dipole X            :        -44.5453141           45.3847587            0.8394446
 Dipole Y            :       -126.0699528          125.1204316           -0.9495212
 Dipole Z            :        -99.7310889           99.3606073           -0.3704816
 Magnitude           :                                                    1.3204220
  Basis Set: (AUG-CC-PVTZ AUX)
    Blend: AUG-CC-PVTZ-RI
	 Reference Energy          =    -456.3436538089389387 [Eh]
	 Singles Energy            =      -0.0000000000000000 [Eh]
	 Same-Spin Energy          =      -0.4151591325527428 [Eh]
	 Opposite-Spin Energy      =      -1.3024533266076594 [Eh]
	 Correlation Energy        =      -1.7176124591604023 [Eh]
	 Total Energy              =    -458.0612662680993594 [Eh]
	 SCS Total Energy          =    -458.0449841783857323 [Eh]
                               Psi4 1.9 release
    Molecular point group: c1
  Multiplicity = 1
  Basis Set: AUG-CC-PVTZ
    Blend: AUG-CC-PVTZ
  Basis Set: (AUG-CC-PVTZ AUX)
    Blend: AUG-CC-PVTZ-JKFIT
  @DF-RHF Final Energy: -2572.53373367722952
    Total Energy =                      -2572.5337336772290655
  Basis Set: (AUG-CC-PVTZ AUX)
	 Singles Energy            =      -0.0000000000000000 [Eh]
	 Same-Spin Energy          =      -0.0914940352874823 [Eh]
	 Opposite-Spin Energy      =      -0.2129909524813762 [Eh]
	 Correlation Energy        =      -0.3044849877688585 [Eh]
	 Total Energy              =   -2572.8382186649982941 [Eh]
	 SCS Total Energy          =   -2572.8198208319695368 [Eh]
                               Psi4 1.9 release
    Molecular point group: c1

    Geometry (in Bohr), charge = -1, multiplicity = 1:

       Center              X                  Y                   Z               Mass
    ------------   -----------------  -----------------  -----------------  -----------------
         BR           0.000000000000     0.000000000000     0.000000000000    78.918337600000
         O           -1.894866180519     3.766458494077     4.386645821465    15.994914619570
         H           -0.664291645430     4.032205009922     5.750315657296     1.007825032230
         H           -1.026896073835     2.549344478180     3.405851506187     1.007825032230
         O            0.581391250032    -2.104128782474     6.008476812473    15.994914619570
         H            0.276865664367    -1.917198963870     4.253837759094     1.007825032230
         H            1.731321722717    -0.726342692485     6.368344917449     1.007825032230
         O            0.254995863917     5.462899651971    -4.056295238569    15.994914619570
         H            1.720554063255     5.361440256295    -5.096912613801     1.007825032230
         H            0.525553622477     4.355140307501    -2.696510679652     1.007825032230
         O            5.064154211416     4.044333272195     1.622679478039    15.994914619570
         H            4.025819625344     3.168832606901     0.419897145077     1.007825032230
         H            4.577646110143     5.821267314403     1.414263473388     1.007825032230
         O            5.500911492984    -2.728964836130     2.012325887299    15.994914619570
         H            5.436286638946    -4.533664624299     1.783291080894     1.007825032230
         H            3.764971279616    -2.102486610471     1.666842377591     1.007825032230
         O           -5.158220998489     4.358105287792     0.139520369569    15.994914619570
         H           -4.190643427732     4.079599341148     1.656418648283     1.007825032230
         H           -5.579354024452     2.642670492611    -0.471857054622     1.007825032230

  Charge       = -1
  Multiplicity = 1
  Basis Set: AUG-CC-PVTZ
    Blend: AUG-CC-PVTZ
  Basis Set: (AUG-CC-PVTZ AUX)
    Blend: AUG-CC-PVTZ-JKFIT

    Orbital Energies [Eh]
    ---------------------

    Doubly Occupied:

       1A   -489.802289     2A    -64.942821     3A    -58.297329
       4A    -58.297300     5A    -58.297271     6A    -20.443125
       7A    -20.437751     8A    -20.433024     9A    -20.425711
      10A    -20.424569    11A    -20.408928    12A     -9.615210
      13A     -7.222845    14A     -7.222691    15A     -7.222583
      16A     -2.964468    17A     -2.964443    18A     -2.964283
      19A     -2.964092    20A     -2.964055    21A     -1.229658
      22A     -1.227926    23A     -1.222337    24A     -1.216198
      25A     -1.200390    26A     -1.185694    27A     -0.783503
      28A     -0.597880    29A     -0.589278    30A     -0.584747
      31A     -0.577176    32A     -0.568340    33A     -0.552424
      34A     -0.473580    35A     -0.462061    36A     -0.454259
      37A     -0.453321    38A     -0.439376    39A     -0.422368
      40A     -0.390088    41A     -0.384382    42A     -0.381147
      43A     -0.375970    44A     -0.361577    45A     -0.352022
      46A     -0.231929    47A     -0.229383    48A     -0.228215

  @DF-RHF Final Energy: -3028.94043045591843

   => Energetics <=

    Nuclear Repulsion Energy =            569.1062662001631907
    One-Electron Energy =               -5365.1133538764834157
    Two-Electron Energy =                1767.0666572204017939
    Total Energy =                      -3028.9404304559184311
 Dipole X            :        -44.9963424           45.3847587            0.3884162
 Dipole Y            :       -126.4698423          125.1204316           -1.3494107
 Dipole Z            :       -100.4400434           99.3606073           -1.0794362
 Magnitude           :                                                    1.7711462
  Basis Set: (AUG-CC-PVTZ AUX)
    Blend: AUG-CC-PVTZ-RI
	 Reference Energy          =   -3028.9404304559184311 [Eh]
	 Singles Energy            =      -0.0000000000000000 [Eh]
	 Same-Spin Energy          =      -0.5166345056874175 [Eh]
	 Opposite-Spin Energy      =      -1.5228648177210700 [Eh]
	 Correlation Energy        =      -2.0394993234084877 [Eh]
	 Total Energy              =   -3030.9799297793269943 [Eh]

	 ================> DF-SCS-MP2 Energies <==================
	-----------------------------------------------------------
	 SCS Same-Spin Scale       =       0.3333333333333333 [-]
	 SCS Opposite-Spin Scale   =       1.2000000000000000 [-]
	 SCS Same-Spin Energy      =      -0.1722115018958058 [Eh]
	 SCS Opposite-Spin Energy  =      -1.8274377812652838 [Eh]
	 SCS Correlation Energy    =      -1.9996492831610897 [Eh]
	 SCS Total Energy          =   -3030.9400797390794651 [Eh]
	-----------------------------------------------------------

*** Psi4 exiting successfully. Buy a developer a beer!
