                               Psi4 1.8.2 release

  ==> Input File <==

--------------------------------------------------------------------------
MEMORY 60 GB

molecule dimer {
-1 1
Br         0.000000     0.000000     0.000000
O          1.901186     1.766278     1.976425
H          2.014537     1.299148     2.815032
H          1.226952     1.162183     1.576218
O          1.090075     3.227324    -1.160627
H          2.009569     3.131599    -1.409539
H          0.759246     2.452516    -0.697298
O          1.036749    -1.103900     3.095540
H          0.435450    -1.042285     2.289662
H          1.911055    -1.239199     2.756827
O         -2.629643     2.018819     0.922667
H         -1.841866     1.463958     1.121590
H         -2.314172     2.927331     0.932451
O         -2.583292    -1.610021    -1.363785
H         -2.276380    -1.035941    -0.678244
H         -1.849291    -1.880891    -1.897783

units ang
no_reorient
no_com
symmetry c1
}

set {
basis        aug-cc-pVTZ
scf_type     df
}

energy("mp2")
--------------------------------------------------------------------------

    Molecular point group: c1

    Geometry (in Angstrom), charge = -1, multiplicity = 1:

       Center              X                  Y                   Z               Mass
    ------------   -----------------  -----------------  -----------------  -----------------
         BR           0.000000000000     0.000000000000     0.000000000000    78.918337600000
         O            1.901186000000     1.766278000000     1.976425000000    15.994914619570
         H            2.014537000000     1.299148000000     2.815032000000     1.007825032230
         H            1.226952000000     1.162183000000     1.576218000000     1.007825032230
         O            1.090075000000     3.227324000000    -1.160627000000    15.994914619570
         H            2.009569000000     3.131599000000    -1.409539000000     1.007825032230
         H            0.759246000000     2.452516000000    -0.697298000000     1.007825032230
         O            1.036749000000    -1.103900000000     3.095540000000    15.994914619570
         H            0.435450000000    -1.042285000000     2.289662000000     1.007825032230
         H            1.911055000000    -1.239199000000     2.756827000000     1.007825032230
         O           -2.629643000000     2.018819000000     0.922667000000    15.994914619570
         H           -1.841866000000     1.463958000000     1.121590000000     1.007825032230
         H           -2.314172000000     2.927331000000     0.932451000000     1.007825032230
         O           -2.583292000000    -1.610021000000    -1.363785000000    15.994914619570
         H           -2.276380000000    -1.035941000000    -0.678244000000     1.007825032230
         H           -1.849291000000    -1.880891000000    -1.897783000000     1.007825032230

  Charge       = -1
  Multiplicity = 1
  Basis Set: AUG-CC-PVTZ
    Blend: AUG-CC-PVTZ
  Basis Set: (AUG-CC-PVTZ AUX)
    Blend: AUG-CC-PVTZ-JKFIT

    Orbital Energies [Eh]
    ---------------------

    Doubly Occupied:

       1A   -489.798362     2A    -64.938892     3A    -58.293401
       4A    -58.293368     5A    -58.293331     6A    -20.440845
       7A    -20.426960     8A    -20.421753     9A    -20.417902
      10A    -20.414903    11A     -9.611319    12A     -7.218934
      13A     -7.218824    14A     -7.218653    15A     -2.960592
      16A     -2.960568    17A     -2.960352    18A     -2.960193
      19A     -2.960148    20A     -1.219497    21A     -1.209905
      22A     -1.206763    23A     -1.205252    24A     -1.197706
      25A     -0.778403    26A     -0.590918    27A     -0.588261
      28A     -0.585788    29A     -0.572322    30A     -0.546225
      31A     -0.459653    32A     -0.451142    33A     -0.443242
      34A     -0.437590    35A     -0.432830    36A     -0.382689
      37A     -0.370123    38A     -0.368181    39A     -0.365194
      40A     -0.360996    41A     -0.226447    42A     -0.225938
      43A     -0.222982

  @DF-RHF Final Energy: -2952.88063620992853

   => Energetics <=

    Nuclear Repulsion Energy =            438.6702707700465567
    One-Electron Energy =               -4998.5871172188544733
    Two-Electron Energy =                1607.0362102388789936
    Total Energy =                      -2952.8806362099285252
 Dipole X            :         19.3828665          -17.7715514            1.6113151
 Dipole Y            :        -79.8914222           78.6625315           -1.2288907
 Dipole Z            :        -65.9074345           65.3291096           -0.5783249
 Magnitude           :                                                    2.1073605
  Basis Set: (AUG-CC-PVTZ AUX)
    Blend: AUG-CC-PVTZ-RI
	 Reference Energy          =   -2952.8806362099285252 [Eh]
	 Singles Energy            =      -0.0000000000000000 [Eh]
	 Same-Spin Energy          =      -0.4444437048292935 [Eh]
	 Opposite-Spin Energy      =      -1.3008675415808475 [Eh]
	 Correlation Energy        =      -1.7453112464101410 [Eh]
	 Total Energy              =   -2954.6259474563385083 [Eh]

	 ================> DF-SCS-MP2 Energies <==================
	-----------------------------------------------------------
	 SCS Same-Spin Scale       =       0.3333333333333333 [-]
	 SCS Opposite-Spin Scale   =       1.2000000000000000 [-]
	 SCS Same-Spin Energy      =      -0.1481479016097645 [Eh]
	 SCS Opposite-Spin Energy  =      -1.5610410498970169 [Eh]
	 SCS Correlation Energy    =      -1.7091889515067813 [Eh]
	 SCS Total Energy          =   -2954.5898251614353285 [Eh]
	-----------------------------------------------------------

*** Psi4 exiting successfully. Buy a developer a beer!
