                               Psi4 1.8.2 release

  ==> Input File <==

--------------------------------------------------------------------------
MEMORY 60 GB

molecule dimer {
-1 1
Br         0.000000     0.000000     0.000000
O         -2.719380    -0.917874     1.513340
H         -2.094607    -0.347929     1.035762
H         -3.561100    -0.822273     1.115577
O         -2.060809     2.593717    -0.859092
H         -1.688050     3.070376    -1.592003
H         -1.437597     1.870275    -0.673543
O         -0.594218    -3.396631     0.803846
H         -0.374269    -2.975147     1.697640
H         -0.649522    -2.561829     0.293830

units ang
no_reorient
no_com
symmetry c1
}

set {
basis        aug-cc-pVTZ
scf_type     df
}

energy("mp2")
--------------------------------------------------------------------------

    Molecular point group: c1

    Geometry (in Angstrom), charge = -1, multiplicity = 1:

       Center              X                  Y                   Z               Mass
    ------------   -----------------  -----------------  -----------------  -----------------
         BR           0.000000000000     0.000000000000     0.000000000000    78.918337600000
         O           -2.719380000000    -0.917874000000     1.513340000000    15.994914619570
         H           -2.094607000000    -0.347929000000     1.035762000000     1.007825032230
         H           -3.561100000000    -0.822273000000     1.115577000000     1.007825032230
         O           -2.060809000000     2.593717000000    -0.859092000000    15.994914619570
         H           -1.688050000000     3.070376000000    -1.592003000000     1.007825032230
         H           -1.437597000000     1.870275000000    -0.673543000000     1.007825032230
         O           -0.594218000000    -3.396631000000     0.803846000000    15.994914619570
         H           -0.374269000000    -2.975147000000     1.697640000000     1.007825032230
         H           -0.649522000000    -2.561829000000     0.293830000000     1.007825032230

  Charge       = -1
  Multiplicity = 1
  Basis Set: AUG-CC-PVTZ
    Blend: AUG-CC-PVTZ
  Basis Set: (AUG-CC-PVTZ AUX)
    Blend: AUG-CC-PVTZ-JKFIT

    Orbital Energies [Eh]
    ---------------------

    Doubly Occupied:

       1A   -489.770200     2A    -64.910560     3A    -58.265058
       4A    -58.265041     5A    -58.265028     6A    -20.416993
       7A    -20.410025     8A    -20.402322     9A     -9.582948
      10A     -7.190529    11A     -7.190401    12A     -7.190272
      13A     -2.932174    14A     -2.932130    15A     -2.932025
      16A     -2.931839    17A     -2.931829    18A     -1.203626
      19A     -1.195295    20A     -1.175650    21A     -0.746107
      22A     -0.571038    23A     -0.569222    24A     -0.520011
      25A     -0.439167    26A     -0.434744    27A     -0.423587
      28A     -0.363433    29A     -0.356489    30A     -0.342476
      31A     -0.197836    32A     -0.195867    33A     -0.191841

  @DF-RHF Final Energy: -2800.74453521993428

   => Energetics <=

    Nuclear Repulsion Energy =            232.4284606576397039
    One-Electron Energy =               -4375.4544622910980252
    Two-Electron Energy =                1342.2814664135241856
    Total Energy =                      -2800.7445352199347326
 Dipole X            :        100.9844883          -99.7782972            1.2061911
 Dipole Y            :         30.4942048          -29.3527965            1.1414082
 Dipole Z            :        -26.3826582           25.5906995           -0.7919587
 Magnitude           :                                                    1.8398120
  Basis Set: (AUG-CC-PVTZ AUX)
    Blend: AUG-CC-PVTZ-RI
	 Reference Energy          =   -2800.7445352199342778 [Eh]
	 Singles Energy            =      -0.0000000000000000 [Eh]
	 Same-Spin Energy          =      -0.3021605803387614 [Eh]
	 Opposite-Spin Energy      =      -0.8626224717080581 [Eh]
	 Correlation Energy        =      -1.1647830520468194 [Eh]
	 Total Energy              =   -2801.9093182719811921 [Eh]

	 ================> DF-SCS-MP2 Energies <==================
	-----------------------------------------------------------
	 SCS Same-Spin Scale       =       0.3333333333333333 [-]
	 SCS Opposite-Spin Scale   =       1.2000000000000000 [-]
	 SCS Same-Spin Energy      =      -0.1007201934462538 [Eh]
	 SCS Opposite-Spin Energy  =      -1.0351469660496697 [Eh]
	 SCS Correlation Energy    =      -1.1358671594959235 [Eh]
	 SCS Total Energy          =   -2801.8804023794300520 [Eh]
	-----------------------------------------------------------

*** Psi4 exiting successfully. Buy a developer a beer!
