                               Psi4 1.8.2 release

  ==> Input File <==

--------------------------------------------------------------------------
MEMORY 60 GB

molecule dimer {
0 1
Gh(Br)     0.000000     0.000000     0.000000
Gh(O)      1.521234     1.209788    -2.685367
Gh(H)      2.096141     0.409973    -2.642532
Gh(H)      1.413599     1.432485    -3.599181
Gh(O)      2.137029    -0.858665     2.437340
Gh(H)      1.531524    -0.762129     1.688950
Gh(H)      1.596637    -0.978037     3.206662
Gh(O)      1.238938     1.972390     2.398987
Gh(H)      0.860966     1.485662     1.615154
Gh(H)      1.150578     1.320561     3.162309
O          0.117012    -3.331974     0.636691
H          0.665240    -3.509200     1.434153
H          0.025395    -2.338891     0.576819
Gh(O)     -1.361959    -0.368772     3.303538
Gh(H)     -0.708171    -0.442974     3.989043
Gh(H)     -0.893664    -0.189371     2.459854
Gh(O)     -1.248477     2.143362    -2.447598
Gh(H)     -0.346353     1.847909    -2.331410
Gh(H)     -1.185038     2.892626    -1.867573

units ang
no_reorient
no_com
symmetry c1
}

set {
basis        aug-cc-pVTZ
scf_type     df
}

energy("mp2")
--------------------------------------------------------------------------

    Molecular point group: c1

    Geometry (in Angstrom), charge = 0, multiplicity = 1:

       Center              X                  Y                   Z               Mass
    ------------   -----------------  -----------------  -----------------  -----------------
      Gh(BR)          0.000000000000     0.000000000000     0.000000000000    78.918337600000
      Gh(O)           1.521234000000     1.209788000000    -2.685367000000    15.994914619570
      Gh(H)           2.096141000000     0.409973000000    -2.642532000000     1.007825032230
      Gh(H)           1.413599000000     1.432485000000    -3.599181000000     1.007825032230
      Gh(O)           2.137029000000    -0.858665000000     2.437340000000    15.994914619570
      Gh(H)           1.531524000000    -0.762129000000     1.688950000000     1.007825032230
      Gh(H)           1.596637000000    -0.978037000000     3.206662000000     1.007825032230
      Gh(O)           1.238938000000     1.972390000000     2.398987000000    15.994914619570
      Gh(H)           0.860966000000     1.485662000000     1.615154000000     1.007825032230
      Gh(H)           1.150578000000     1.320561000000     3.162309000000     1.007825032230
         O            0.117012000000    -3.331974000000     0.636691000000    15.994914619570
         H            0.665240000000    -3.509200000000     1.434153000000     1.007825032230
         H            0.025395000000    -2.338891000000     0.576819000000     1.007825032230
      Gh(O)          -1.361959000000    -0.368772000000     3.303538000000    15.994914619570
      Gh(H)          -0.708171000000    -0.442974000000     3.989043000000     1.007825032230
      Gh(H)          -0.893664000000    -0.189371000000     2.459854000000     1.007825032230
      Gh(O)          -1.248477000000     2.143362000000    -2.447598000000    15.994914619570
      Gh(H)          -0.346353000000     1.847909000000    -2.331410000000     1.007825032230
      Gh(H)          -1.185038000000     2.892626000000    -1.867573000000     1.007825032230

  Charge       = 0
  Multiplicity = 1
  Basis Set: AUG-CC-PVTZ
    Blend: AUG-CC-PVTZ
  Basis Set: (AUG-CC-PVTZ AUX)
    Blend: AUG-CC-PVTZ-JKFIT

    Orbital Energies [Eh]
    ---------------------

    Doubly Occupied:

       1A    -20.572244     2A     -1.335505     3A     -0.702435
       4A     -0.575096     5A     -0.507107

  @DF-RHF Final Energy:   -76.05613758134434

   => Energetics <=

    Nuclear Repulsion Energy =              8.8740199793944257
    One-Electron Energy =                -122.4755373092341131
    Two-Electron Energy =                  37.5453797484953284
    Total Energy =                        -76.0561375813443590
 Dipole X            :         -2.7742749            3.0740761            0.2998012
 Dipole Y            :         61.9559165          -61.4234369            0.5324796
 Dipole Z            :        -12.9415353           13.4255593            0.4840239
 Magnitude           :                                                    0.7795476
  Basis Set: (AUG-CC-PVTZ AUX)
    Blend: AUG-CC-PVTZ-RI
	 Reference Energy          =     -76.0561375813443448 [Eh]
	 Singles Energy            =      -0.0000000000000000 [Eh]
	 Same-Spin Energy          =      -0.0689555854085684 [Eh]
	 Opposite-Spin Energy      =      -0.2176087801560308 [Eh]
	 Correlation Energy        =      -0.2865643655645992 [Eh]
	 Total Energy              =     -76.3427019469089458 [Eh]

	 ================> DF-SCS-MP2 Energies <==================
	-----------------------------------------------------------
	 SCS Same-Spin Scale       =       0.3333333333333333 [-]
	 SCS Opposite-Spin Scale   =       1.2000000000000000 [-]
	 SCS Same-Spin Energy      =      -0.0229851951361895 [Eh]
	 SCS Opposite-Spin Energy  =      -0.2611305361872370 [Eh]
	 SCS Correlation Energy    =      -0.2841157313234264 [Eh]
	 SCS Total Energy          =     -76.3402533126677696 [Eh]
	-----------------------------------------------------------

*** Psi4 exiting successfully. Buy a developer a beer!
