                               Psi4 1.8.2 release

  ==> Input File <==

--------------------------------------------------------------------------
MEMORY 60 GB

molecule dimer {
0 1
Gh(Br)     0.000000     0.000000     0.000000
Gh(O)     -1.556110    -2.946603    -0.307399
Gh(H)     -1.448311    -3.834352    -0.530023
Gh(H)     -0.696136    -2.475940    -0.482361
Gh(O)     -0.086996     0.125946     3.353392
Gh(H)     -0.789442     0.773124     3.412034
Gh(H)      0.173565     0.233040     2.501182
Gh(O)      1.506198     2.404300     1.895924
Gh(H)      1.138172     1.617521     1.469830
Gh(H)      2.068506     2.028144     2.516707
O          3.466933     0.167256    -0.603178
H          2.462198     0.362718    -0.327444
H          3.349089    -0.691950    -1.088854
Gh(O)      1.507524     0.971719    -2.962000
Gh(H)      1.482423     1.837733    -3.370919
Gh(H)      1.113174     1.149479    -2.095101
Gh(O)     -3.321768     0.154397     0.868399
Gh(H)     -2.339922     0.333567     0.860598
Gh(H)     -3.394288    -0.551032     0.257363

units ang
no_reorient
no_com
symmetry c1
}

set {
basis        aug-cc-pVTZ
scf_type     df
}

energy("mp2")
--------------------------------------------------------------------------

    Molecular point group: c1

    Geometry (in Angstrom), charge = 0, multiplicity = 1:

       Center              X                  Y                   Z               Mass
    ------------   -----------------  -----------------  -----------------  -----------------
      Gh(BR)          0.000000000000     0.000000000000     0.000000000000    78.918337600000
      Gh(O)          -1.556110000000    -2.946603000000    -0.307399000000    15.994914619570
      Gh(H)          -1.448311000000    -3.834352000000    -0.530023000000     1.007825032230
      Gh(H)          -0.696136000000    -2.475940000000    -0.482361000000     1.007825032230
      Gh(O)          -0.086996000000     0.125946000000     3.353392000000    15.994914619570
      Gh(H)          -0.789442000000     0.773124000000     3.412034000000     1.007825032230
      Gh(H)           0.173565000000     0.233040000000     2.501182000000     1.007825032230
      Gh(O)           1.506198000000     2.404300000000     1.895924000000    15.994914619570
      Gh(H)           1.138172000000     1.617521000000     1.469830000000     1.007825032230
      Gh(H)           2.068506000000     2.028144000000     2.516707000000     1.007825032230
         O            3.466933000000     0.167256000000    -0.603178000000    15.994914619570
         H            2.462198000000     0.362718000000    -0.327444000000     1.007825032230
         H            3.349089000000    -0.691950000000    -1.088854000000     1.007825032230
      Gh(O)           1.507524000000     0.971719000000    -2.962000000000    15.994914619570
      Gh(H)           1.482423000000     1.837733000000    -3.370919000000     1.007825032230
      Gh(H)           1.113174000000     1.149479000000    -2.095101000000     1.007825032230
      Gh(O)          -3.321768000000     0.154397000000     0.868399000000    15.994914619570
      Gh(H)          -2.339922000000     0.333567000000     0.860598000000     1.007825032230
      Gh(H)          -3.394288000000    -0.551032000000     0.257363000000     1.007825032230

  Charge       = 0
  Multiplicity = 1
  Basis Set: AUG-CC-PVTZ
    Blend: AUG-CC-PVTZ
  Basis Set: (AUG-CC-PVTZ AUX)
    Blend: AUG-CC-PVTZ-JKFIT

    Orbital Energies [Eh]
    ---------------------

    Doubly Occupied:

       1A    -20.580734     2A     -1.324211     3A     -0.674160
       4A     -0.579329     5A     -0.506700

  @DF-RHF Final Energy:   -76.04625132410281

   => Energetics <=

    Nuclear Repulsion Energy =              8.5887260751608903
    One-Electron Energy =                -121.9396829863305527
    Two-Electron Energy =                  37.3047055870668558
    Total Energy =                        -76.0462513241027978
 Dipole X            :        -64.0939565           63.3941718           -0.6997848
 Dipole Y            :         -2.3330155            1.9063860           -0.4266296
 Dipole Z            :         11.6568172          -11.7951451           -0.1383280
 Magnitude           :                                                    0.8311715
  Basis Set: (AUG-CC-PVTZ AUX)
    Blend: AUG-CC-PVTZ-RI
	 Reference Energy          =     -76.0462513241028120 [Eh]
	 Singles Energy            =      -0.0000000000000000 [Eh]
	 Same-Spin Energy          =      -0.0697200622022221 [Eh]
	 Opposite-Spin Energy      =      -0.2200075762256160 [Eh]
	 Correlation Energy        =      -0.2897276384278381 [Eh]
	 Total Energy              =     -76.3359789625306462 [Eh]

	 ================> DF-SCS-MP2 Energies <==================
	-----------------------------------------------------------
	 SCS Same-Spin Scale       =       0.3333333333333333 [-]
	 SCS Opposite-Spin Scale   =       1.2000000000000000 [-]
	 SCS Same-Spin Energy      =      -0.0232400207340740 [Eh]
	 SCS Opposite-Spin Energy  =      -0.2640090914707393 [Eh]
	 SCS Correlation Energy    =      -0.2872491122048133 [Eh]
	 SCS Total Energy          =     -76.3335004363076308 [Eh]
	-----------------------------------------------------------

*** Psi4 exiting successfully. Buy a developer a beer!
