                               Psi4 1.8.2 release

  ==> Input File <==

--------------------------------------------------------------------------
MEMORY 60 GB

molecule dimer {
-1 1
Br         0.000000     0.000000     0.000000
Gh(O)      2.964962     1.491294    -0.232552
Gh(H)      3.167346     2.329112     0.134912
Gh(H)      2.039397     1.199057     0.005168
Gh(O)      2.467355    -1.133067     2.039740
Gh(H)      1.833343    -1.067852     1.347526
Gh(H)      2.278611    -1.962652     2.509428
Gh(O)      1.685230    -2.489969    -1.505692
Gh(H)      1.129809    -1.865417    -1.040823
Gh(H)      2.217802    -1.919562    -2.100617
Gh(O)     -1.693532    -0.769404     2.754182
Gh(H)     -2.198821    -0.054616     3.172365
Gh(H)     -1.091690    -0.339489     2.159721

units ang
no_reorient
no_com
symmetry c1
}

set {
basis        aug-cc-pVTZ
scf_type     df
}

energy("mp2")
--------------------------------------------------------------------------

    Molecular point group: c1

    Geometry (in Angstrom), charge = -1, multiplicity = 1:

       Center              X                  Y                   Z               Mass
    ------------   -----------------  -----------------  -----------------  -----------------
         BR           0.000000000000     0.000000000000     0.000000000000    78.918337600000
      Gh(O)           2.964962000000     1.491294000000    -0.232552000000    15.994914619570
      Gh(H)           3.167346000000     2.329112000000     0.134912000000     1.007825032230
      Gh(H)           2.039397000000     1.199057000000     0.005168000000     1.007825032230
      Gh(O)           2.467355000000    -1.133067000000     2.039740000000    15.994914619570
      Gh(H)           1.833343000000    -1.067852000000     1.347526000000     1.007825032230
      Gh(H)           2.278611000000    -1.962652000000     2.509428000000     1.007825032230
      Gh(O)           1.685230000000    -2.489969000000    -1.505692000000    15.994914619570
      Gh(H)           1.129809000000    -1.865417000000    -1.040823000000     1.007825032230
      Gh(H)           2.217802000000    -1.919562000000    -2.100617000000     1.007825032230
      Gh(O)          -1.693532000000    -0.769404000000     2.754182000000    15.994914619570
      Gh(H)          -2.198821000000    -0.054616000000     3.172365000000     1.007825032230
      Gh(H)          -1.091690000000    -0.339489000000     2.159721000000     1.007825032230

  Charge       = -1
  Multiplicity = 1
  Basis Set: AUG-CC-PVTZ
    Blend: AUG-CC-PVTZ
  Basis Set: (AUG-CC-PVTZ AUX)
    Blend: AUG-CC-PVTZ-JKFIT

    Orbital Energies [Eh]
    ---------------------

    Doubly Occupied:

       1A   -489.722047     2A    -64.861671     3A    -58.216202
       4A    -58.216201     5A    -58.216199     6A     -9.533248
       7A     -7.140584     8A     -7.140577     9A     -7.140566
      10A     -2.882295    11A     -2.882288    12A     -2.882274
      13A     -2.882259    14A     -2.882257    15A     -0.685994
      16A     -0.139338    17A     -0.139335    18A     -0.139334

  @DF-RHF Final Energy: -2572.53372298721024

   => Energetics <=

    Nuclear Repulsion Energy =              0.0000000000000000
    One-Electron Energy =               -3593.6621105549156709
    Two-Electron Energy =                1021.1283875677053175
    Total Energy =                      -2572.5337229872102398
 Dipole X            :          0.0002776            0.0000000            0.0002776
 Dipole Y            :         -0.0001890            0.0000000           -0.0001890
 Dipole Z            :          0.0002532            0.0000000            0.0002532
 Magnitude           :                                                    0.0004206
  Basis Set: (AUG-CC-PVTZ AUX)
    Blend: AUG-CC-PVTZ-RI
	 Reference Energy          =   -2572.5337229872102398 [Eh]
	 Singles Energy            =      -0.0000000000000000 [Eh]
	 Same-Spin Energy          =      -0.0908798658557208 [Eh]
	 Opposite-Spin Energy      =      -0.2114990533572099 [Eh]
	 Correlation Energy        =      -0.3023789192129307 [Eh]
	 Total Energy              =   -2572.8361019064232096 [Eh]

	 ================> DF-SCS-MP2 Energies <==================
	-----------------------------------------------------------
	 SCS Same-Spin Scale       =       0.3333333333333333 [-]
	 SCS Opposite-Spin Scale   =       1.2000000000000000 [-]
	 SCS Same-Spin Energy      =      -0.0302932886185736 [Eh]
	 SCS Opposite-Spin Energy  =      -0.2537988640286519 [Eh]
	 SCS Correlation Energy    =      -0.2840921526472255 [Eh]
	 SCS Total Energy          =   -2572.8178151398574300 [Eh]
	-----------------------------------------------------------

*** Psi4 exiting successfully. Buy a developer a beer!
