                               Psi4 1.8.2 release

  ==> Input File <==

--------------------------------------------------------------------------
MEMORY 60 GB

molecule dimer {
0 1
Gh(Br)     0.000000     0.000000     0.000000
Gh(O)      2.943776    -1.291586    -0.717929
Gh(H)      3.240026    -1.464467     0.202400
Gh(H)      1.978967    -1.068027    -0.600416
Gh(O)     -0.095928    -0.517762     3.548290
Gh(H)     -0.814866    -1.197163     3.491646
Gh(H)     -0.072377    -0.113912     2.693842
Gh(O)      0.527750    -0.312189    -3.389362
Gh(H)      0.441500     0.034753    -2.536104
Gh(H)      1.092442     0.303107    -3.915709
Gh(O)     -1.833587     2.369462     2.018259
Gh(H)     -2.428429     3.194020     1.901604
Gh(H)     -1.874762     2.017001     1.165854
Gh(O)     -0.596122    -3.194149    -0.160636
Gh(H)     -1.524899    -3.188801     0.101012
Gh(H)     -0.342956    -2.240154    -0.160816
O          2.451296     2.621292    -0.011617
H          1.651985     2.047015    -0.019684
H          3.130850     2.123247    -0.509532

units ang
no_reorient
no_com
symmetry c1
}

set {
basis        aug-cc-pVTZ
scf_type     df
}

energy("mp2")
--------------------------------------------------------------------------

    Molecular point group: c1

    Geometry (in Angstrom), charge = 0, multiplicity = 1:

       Center              X                  Y                   Z               Mass
    ------------   -----------------  -----------------  -----------------  -----------------
      Gh(BR)          0.000000000000     0.000000000000     0.000000000000    78.918337600000
      Gh(O)           2.943776000000    -1.291586000000    -0.717929000000    15.994914619570
      Gh(H)           3.240026000000    -1.464467000000     0.202400000000     1.007825032230
      Gh(H)           1.978967000000    -1.068027000000    -0.600416000000     1.007825032230
      Gh(O)          -0.095928000000    -0.517762000000     3.548290000000    15.994914619570
      Gh(H)          -0.814866000000    -1.197163000000     3.491646000000     1.007825032230
      Gh(H)          -0.072377000000    -0.113912000000     2.693842000000     1.007825032230
      Gh(O)           0.527750000000    -0.312189000000    -3.389362000000    15.994914619570
      Gh(H)           0.441500000000     0.034753000000    -2.536104000000     1.007825032230
      Gh(H)           1.092442000000     0.303107000000    -3.915709000000     1.007825032230
      Gh(O)          -1.833587000000     2.369462000000     2.018259000000    15.994914619570
      Gh(H)          -2.428429000000     3.194020000000     1.901604000000     1.007825032230
      Gh(H)          -1.874762000000     2.017001000000     1.165854000000     1.007825032230
      Gh(O)          -0.596122000000    -3.194149000000    -0.160636000000    15.994914619570
      Gh(H)          -1.524899000000    -3.188801000000     0.101012000000     1.007825032230
      Gh(H)          -0.342956000000    -2.240154000000    -0.160816000000     1.007825032230
         O            2.451296000000     2.621292000000    -0.011617000000    15.994914619570
         H            1.651985000000     2.047015000000    -0.019684000000     1.007825032230
         H            3.130850000000     2.123247000000    -0.509532000000     1.007825032230

  Charge       = 0
  Multiplicity = 1
  Basis Set: AUG-CC-PVTZ
    Blend: AUG-CC-PVTZ
  Basis Set: (AUG-CC-PVTZ AUX)
    Blend: AUG-CC-PVTZ-JKFIT

    Orbital Energies [Eh]
    ---------------------

    Doubly Occupied:

       1A    -20.571046     2A     -1.340911     3A     -0.706053
       4A     -0.578862     5A     -0.508174

  @DF-RHF Final Energy:   -76.05797159772251

   => Energetics <=

    Nuclear Repulsion Energy =              8.9661716992233647
    One-Electron Energy =                -122.6381915805237099
    Two-Electron Energy =                  37.6140482835778229
    Total Energy =                        -76.0579715977225135
 Dipole X            :        -46.1745259           46.0964730           -0.0780529
 Dipole Y            :        -48.2132864           47.5088449           -0.7044416
 Dipole Z            :          0.8430276           -1.1756969           -0.3326693
 Magnitude           :                                                    0.7829426
  Basis Set: (AUG-CC-PVTZ AUX)
    Blend: AUG-CC-PVTZ-RI
	 Reference Energy          =     -76.0579715977225135 [Eh]
	 Singles Energy            =      -0.0000000000000000 [Eh]
	 Same-Spin Energy          =      -0.0687868437458494 [Eh]
	 Opposite-Spin Energy      =      -0.2169588538384869 [Eh]
	 Correlation Energy        =      -0.2857456975843363 [Eh]
	 Total Energy              =     -76.3437172953068455 [Eh]

	 ================> DF-SCS-MP2 Energies <==================
	-----------------------------------------------------------
	 SCS Same-Spin Scale       =       0.3333333333333333 [-]
	 SCS Opposite-Spin Scale   =       1.2000000000000000 [-]
	 SCS Same-Spin Energy      =      -0.0229289479152831 [Eh]
	 SCS Opposite-Spin Energy  =      -0.2603506246061842 [Eh]
	 SCS Correlation Energy    =      -0.2832795725214674 [Eh]
	 SCS Total Energy          =     -76.3412511702439787 [Eh]
	-----------------------------------------------------------

*** Psi4 exiting successfully. Buy a developer a beer!
