                               Psi4 1.8.2 release

  ==> Input File <==

--------------------------------------------------------------------------
MEMORY 60 GB

molecule dimer {
-1 1
Br         0.000000     0.000000     0.000000
Gh(O)     -2.548049    -2.354520     0.519339
Gh(H)     -2.666770    -2.821685    -0.323927
Gh(H)     -1.695142    -1.848878     0.456973
Gh(O)     -1.457981     0.902302     2.719317
Gh(H)     -1.294948     0.555730     1.798206
Gh(H)     -0.692664     1.324571     3.139780
Gh(O)     -3.298663     0.026340    -1.099442
Gh(H)     -2.351904     0.032069    -0.730133
Gh(H)     -3.819150     0.744102    -0.672524
Gh(O)      3.011971     1.575496    -0.920955
Gh(H)      2.415873     2.197453    -0.478182
Gh(H)      3.797578     1.977003    -0.551870
Gh(O)      0.351201    -2.642806    -2.030331
Gh(H)      0.280321    -2.081072    -1.262730
Gh(H)      0.561185    -3.499150    -1.619153

units ang
no_reorient
no_com
symmetry c1
}

set {
basis        aug-cc-pVTZ
scf_type     df
}

energy("mp2")
--------------------------------------------------------------------------

    Molecular point group: c1

    Geometry (in Angstrom), charge = -1, multiplicity = 1:

       Center              X                  Y                   Z               Mass
    ------------   -----------------  -----------------  -----------------  -----------------
         BR           0.000000000000     0.000000000000     0.000000000000    78.918337600000
      Gh(O)          -2.548049000000    -2.354520000000     0.519339000000    15.994914619570
      Gh(H)          -2.666770000000    -2.821685000000    -0.323927000000     1.007825032230
      Gh(H)          -1.695142000000    -1.848878000000     0.456973000000     1.007825032230
      Gh(O)          -1.457981000000     0.902302000000     2.719317000000    15.994914619570
      Gh(H)          -1.294948000000     0.555730000000     1.798206000000     1.007825032230
      Gh(H)          -0.692664000000     1.324571000000     3.139780000000     1.007825032230
      Gh(O)          -3.298663000000     0.026340000000    -1.099442000000    15.994914619570
      Gh(H)          -2.351904000000     0.032069000000    -0.730133000000     1.007825032230
      Gh(H)          -3.819150000000     0.744102000000    -0.672524000000     1.007825032230
      Gh(O)           3.011971000000     1.575496000000    -0.920955000000    15.994914619570
      Gh(H)           2.415873000000     2.197453000000    -0.478182000000     1.007825032230
      Gh(H)           3.797578000000     1.977003000000    -0.551870000000     1.007825032230
      Gh(O)           0.351201000000    -2.642806000000    -2.030331000000    15.994914619570
      Gh(H)           0.280321000000    -2.081072000000    -1.262730000000     1.007825032230
      Gh(H)           0.561185000000    -3.499150000000    -1.619153000000     1.007825032230

  Charge       = -1
  Multiplicity = 1
  Basis Set: AUG-CC-PVTZ
    Blend: AUG-CC-PVTZ
  Basis Set: (AUG-CC-PVTZ AUX)
    Blend: AUG-CC-PVTZ-JKFIT

    Orbital Energies [Eh]
    ---------------------

    Doubly Occupied:

       1A   -489.722056     2A    -64.861686     3A    -58.216217
       4A    -58.216215     5A    -58.216215     6A     -9.533255
       7A     -7.140598     8A     -7.140582     9A     -7.140572
      10A     -2.882298    11A     -2.882293    12A     -2.882284
      13A     -2.882274    14A     -2.882254    15A     -0.685992
      16A     -0.139337    17A     -0.139334    18A     -0.139331

  @DF-RHF Final Energy: -2572.53372500427577

   => Energetics <=

    Nuclear Repulsion Energy =              0.0000000000000000
    One-Electron Energy =               -3593.6618651523199333
    Two-Electron Energy =                1021.1281401480442810
    Total Energy =                      -2572.5337250042757660
 Dipole X            :         -0.0001807            0.0000000           -0.0001807
 Dipole Y            :         -0.0001018            0.0000000           -0.0001018
 Dipole Z            :         -0.0001227            0.0000000           -0.0001227
 Magnitude           :                                                    0.0002410
  Basis Set: (AUG-CC-PVTZ AUX)
    Blend: AUG-CC-PVTZ-RI
	 Reference Energy          =   -2572.5337250042757660 [Eh]
	 Singles Energy            =      -0.0000000000000000 [Eh]
	 Same-Spin Energy          =      -0.0909350427843717 [Eh]
	 Opposite-Spin Energy      =      -0.2116750225337420 [Eh]
	 Correlation Energy        =      -0.3026100653181137 [Eh]
	 Total Energy              =   -2572.8363350695940426 [Eh]

	 ================> DF-SCS-MP2 Energies <==================
	-----------------------------------------------------------
	 SCS Same-Spin Scale       =       0.3333333333333333 [-]
	 SCS Opposite-Spin Scale   =       1.2000000000000000 [-]
	 SCS Same-Spin Energy      =      -0.0303116809281239 [Eh]
	 SCS Opposite-Spin Energy  =      -0.2540100270404904 [Eh]
	 SCS Correlation Energy    =      -0.2843217079686143 [Eh]
	 SCS Total Energy          =   -2572.8180467122442678 [Eh]
	-----------------------------------------------------------

*** Psi4 exiting successfully. Buy a developer a beer!
