                               Psi4 1.9 release

  ==> Input File <==

--------------------------------------------------------------------------
MEMORY 60 GB

molecule dimer {
-1 1
Br     0.000000     0.000000     0.000000
--
0 1
O     -1.696690     2.934160     0.134506
H     -1.321713     2.170825    -0.262468
H     -2.582990     2.990468    -0.140736
O      2.205792     1.542061    -1.989152
H      1.378254     1.355469    -1.592385
H      1.896691     1.977670    -2.832326
O      2.682266     1.638353     1.709860
H      1.939337     1.329311     1.132545
H      2.900490     2.498860     1.415817

units ang
no_reorient
no_com
symmetry c1
}

set {
basis        aug-cc-pVTZ
scf_type     df
}

energy("mp2", bsse_type="cp")
--------------------------------------------------------------------------

                               Psi4 1.9 release
    Molecular point group: c1
  Charge       = 0
  Multiplicity = 1
  Basis Set: AUG-CC-PVTZ
    Blend: AUG-CC-PVTZ
  Basis Set: (AUG-CC-PVTZ AUX)
    Blend: AUG-CC-PVTZ-JKFIT
  @DF-RHF Final Energy:  -228.17452141122416
    Total Energy =                       -228.1745214112241626
 Dipole X            :        -57.6251958           56.2023693           -1.4228265
 Dipole Y            :       -115.6428810          115.7253067            0.0824257
 Dipole Z            :          5.1543337           -6.4965780           -1.3422443
 Magnitude           :                                                    1.9577663
  Basis Set: (AUG-CC-PVTZ AUX)
    Blend: AUG-CC-PVTZ-RI
	 Reference Energy          =    -228.1745214112241626 [Eh]
	 Singles Energy            =      -0.0000000000000000 [Eh]
	 Same-Spin Energy          =      -0.2053397254352750 [Eh]
	 Opposite-Spin Energy      =      -0.6468244078596579 [Eh]
	 Correlation Energy        =      -0.8521641332949328 [Eh]
	 Total Energy              =    -229.0266855445190970 [Eh]
	 SCS Total Energy          =    -229.0191572758008363 [Eh]
                               Psi4 1.9 release
    Molecular point group: c1
  Multiplicity = 1
  Basis Set: AUG-CC-PVTZ
    Blend: AUG-CC-PVTZ
  Basis Set: (AUG-CC-PVTZ AUX)
    Blend: AUG-CC-PVTZ-JKFIT
  @DF-RHF Final Energy: -2572.53370596148670
    Total Energy =                      -2572.5337059614867030
  Basis Set: (AUG-CC-PVTZ AUX)
	 Singles Energy            =      -0.0000000000000000 [Eh]
	 Same-Spin Energy          =      -0.0894240631983988 [Eh]
	 Opposite-Spin Energy      =      -0.2078207718866234 [Eh]
	 Correlation Energy        =      -0.2972448350850222 [Eh]
	 Total Energy              =   -2572.8309507965718694 [Eh]
	 SCS Total Energy          =   -2572.8128989088168055 [Eh]
                               Psi4 1.9 release
    Molecular point group: c1

    Geometry (in Bohr), charge = -1, multiplicity = 1:

       Center              X                  Y                   Z               Mass
    ------------   -----------------  -----------------  -----------------  -----------------
         BR           0.000000000000     0.000000000000     0.000000000000    78.918337600000
         O           -3.206279419803     5.544758808273     0.254179502231    15.994914619570
         H           -2.497675586457     4.102264716297    -0.495992636697     1.007825032230
         H           -4.881143684796     5.651165506946    -0.265952495992     1.007825032230
         O            4.168342769726     2.914072958750    -3.758952501907    15.994914619570
         H            2.604522591317     2.561465181548    -3.009171536287     1.007825032230
         H            3.584226534621     3.737254666534    -5.352320438013     1.007825032230
         O            5.068748135627     3.096038466822     3.231167112875    15.994914619570
         H            3.664815794967     2.512033725558     2.140199874757     1.007825032230
         H            5.481131729629     4.722161025862     2.675506373767     1.007825032230

  Charge       = -1
  Multiplicity = 1
  Basis Set: AUG-CC-PVTZ
    Blend: AUG-CC-PVTZ
  Basis Set: (AUG-CC-PVTZ AUX)
    Blend: AUG-CC-PVTZ-JKFIT

    Orbital Energies [Eh]
    ---------------------

    Doubly Occupied:

       1A   -489.760406     2A    -64.900642     3A    -58.255168
       4A    -58.255140     5A    -58.255090     6A    -20.420093
       7A    -20.413966     8A    -20.403045     9A     -9.572921
      10A     -7.180553    11A     -7.180396    12A     -7.180118
      13A     -2.922296    14A     -2.922283    15A     -2.921908
      16A     -2.921729    17A     -2.921647    18A     -1.217828
      19A     -1.203781    20A     -1.188731    21A     -0.734280
      22A     -0.591252    23A     -0.557224    24A     -0.554918
      25A     -0.445827    26A     -0.440025    27A     -0.422332
      28A     -0.366634    29A     -0.363215    30A     -0.348448
      31A     -0.187534    32A     -0.184990    33A     -0.181514

  @DF-RHF Final Energy: -2800.74065069689323

   => Energetics <=

    Nuclear Repulsion Energy =            229.7010372082515062
    One-Electron Energy =               -4370.1315014149968192
    Two-Electron Energy =                1339.6898135098524563
    Total Energy =                      -2800.7406506968927715
 Dipole X            :        -57.8428934           56.2023693           -1.6405242
 Dipole Y            :       -116.3620852          115.7253067           -0.6367785
 Dipole Z            :          5.3523250           -6.4965780           -1.1442529
 Magnitude           :                                                    2.0990763
  Basis Set: (AUG-CC-PVTZ AUX)
    Blend: AUG-CC-PVTZ-RI
	 Reference Energy          =   -2800.7406506968932263 [Eh]
	 Singles Energy            =      -0.0000000000000000 [Eh]
	 Same-Spin Energy          =      -0.3004029211989148 [Eh]
	 Opposite-Spin Energy      =      -0.8593502540463218 [Eh]
	 Correlation Energy        =      -1.1597531752452366 [Eh]
	 Total Energy              =   -2801.9004038721386678 [Eh]

	 ================> DF-SCS-MP2 Energies <==================
	-----------------------------------------------------------
	 SCS Same-Spin Scale       =       0.3333333333333333 [-]
	 SCS Opposite-Spin Scale   =       1.2000000000000000 [-]
	 SCS Same-Spin Energy      =      -0.1001343070663049 [Eh]
	 SCS Opposite-Spin Energy  =      -1.0312203048555861 [Eh]
	 SCS Correlation Energy    =      -1.1313546119218911 [Eh]
	 SCS Total Energy          =   -2801.8720053088150053 [Eh]
	-----------------------------------------------------------

*** Psi4 exiting successfully. Buy a developer a beer!
