                               Psi4 1.8.2 release

  ==> Input File <==

--------------------------------------------------------------------------
MEMORY 60 GB

molecule dimer {
0 1
Gh(Br)     0.000000     0.000000     0.000000
Gh(O)     -1.259613    -1.972372    -2.351696
Gh(H)     -0.860891    -1.435419    -1.661193
Gh(H)     -2.112677    -2.309575    -2.092339
Gh(O)     -2.845407     1.529579    -0.341206
Gh(H)     -3.404442     0.725851    -0.231895
Gh(H)     -1.918137     1.227655    -0.418924
O          1.203798     0.989340    -2.982723
H          1.383848     1.404532    -2.151666
H          0.917733     0.079877    -2.748949
Gh(O)     -1.942333    -2.300435     1.090951
Gh(H)     -1.277267    -1.678503     0.760063
Gh(H)     -1.677310    -3.142909     0.788314
Gh(O)      2.995159    -1.396829    -0.963849
Gh(H)      2.160999    -1.154144    -0.534338
Gh(H)      3.403321    -0.551585    -1.226511

units ang
no_reorient
no_com
symmetry c1
}

set {
basis        aug-cc-pVTZ
scf_type     df
}

energy("mp2")
--------------------------------------------------------------------------

    Molecular point group: c1

    Geometry (in Angstrom), charge = 0, multiplicity = 1:

       Center              X                  Y                   Z               Mass
    ------------   -----------------  -----------------  -----------------  -----------------
      Gh(BR)          0.000000000000     0.000000000000     0.000000000000    78.918337600000
      Gh(O)          -1.259613000000    -1.972372000000    -2.351696000000    15.994914619570
      Gh(H)          -0.860891000000    -1.435419000000    -1.661193000000     1.007825032230
      Gh(H)          -2.112677000000    -2.309575000000    -2.092339000000     1.007825032230
      Gh(O)          -2.845407000000     1.529579000000    -0.341206000000    15.994914619570
      Gh(H)          -3.404442000000     0.725851000000    -0.231895000000     1.007825032230
      Gh(H)          -1.918137000000     1.227655000000    -0.418924000000     1.007825032230
         O            1.203798000000     0.989340000000    -2.982723000000    15.994914619570
         H            1.383848000000     1.404532000000    -2.151666000000     1.007825032230
         H            0.917733000000     0.079877000000    -2.748949000000     1.007825032230
      Gh(O)          -1.942333000000    -2.300435000000     1.090951000000    15.994914619570
      Gh(H)          -1.277267000000    -1.678503000000     0.760063000000     1.007825032230
      Gh(H)          -1.677310000000    -3.142909000000     0.788314000000     1.007825032230
      Gh(O)           2.995159000000    -1.396829000000    -0.963849000000    15.994914619570
      Gh(H)           2.160999000000    -1.154144000000    -0.534338000000     1.007825032230
      Gh(H)           3.403321000000    -0.551585000000    -1.226511000000     1.007825032230

  Charge       = 0
  Multiplicity = 1
  Basis Set: AUG-CC-PVTZ
    Blend: AUG-CC-PVTZ
  Basis Set: (AUG-CC-PVTZ AUX)
    Blend: AUG-CC-PVTZ-JKFIT

    Orbital Energies [Eh]
    ---------------------

    Doubly Occupied:

       1A    -20.568193     2A     -1.350309     3A     -0.714474
       4A     -0.583249     5A     -0.509778

  @DF-RHF Final Energy:   -76.05955258308538

   => Energetics <=

    Nuclear Repulsion Energy =              9.1331082281389673
    One-Electron Energy =                -122.9333142538156380
    Two-Electron Energy =                  37.7406534425912952
    Total Energy =                        -76.0595525830853774
 Dipole X            :        -22.6167260           22.5481460           -0.0685800
 Dipole Y            :        -18.0843495           17.7617796           -0.3225699
 Dipole Z            :         55.0613543          -54.3530568            0.7082975
 Magnitude           :                                                    0.7813065
  Basis Set: (AUG-CC-PVTZ AUX)
    Blend: AUG-CC-PVTZ-RI
	 Reference Energy          =     -76.0595525830853774 [Eh]
	 Singles Energy            =      -0.0000000000000000 [Eh]
	 Same-Spin Energy          =      -0.0684915496287060 [Eh]
	 Opposite-Spin Energy      =      -0.2159798071623379 [Eh]
	 Correlation Energy        =      -0.2844713567910439 [Eh]
	 Total Energy              =     -76.3440239398764220 [Eh]

	 ================> DF-SCS-MP2 Energies <==================
	-----------------------------------------------------------
	 SCS Same-Spin Scale       =       0.3333333333333333 [-]
	 SCS Opposite-Spin Scale   =       1.2000000000000000 [-]
	 SCS Same-Spin Energy      =      -0.0228305165429020 [Eh]
	 SCS Opposite-Spin Energy  =      -0.2591757685948054 [Eh]
	 SCS Correlation Energy    =      -0.2820062851377074 [Eh]
	 SCS Total Energy          =     -76.3415588682230890 [Eh]
	-----------------------------------------------------------

*** Psi4 exiting successfully. Buy a developer a beer!
