                               Psi4 1.9 release

  ==> Input File <==

--------------------------------------------------------------------------
MEMORY 60 GB

molecule dimer {
-1 1
Br     0.000000     0.000000     0.000000
--
0 1
O      0.907598    -3.034016    -0.451314
H      0.892890    -2.061947    -0.424380
H      1.171918    -3.349880     0.408425
O      2.003620    -0.060569     2.713891
H      1.339719     0.557371     2.425223
H      2.579032     0.542567     3.258704
O      1.853817     0.385000    -2.659522
H      2.431046    -0.410080    -2.411062
H      1.417523     0.543139    -1.862559
O      0.164337     3.154937    -0.854991
H      0.250547     2.315141    -0.320131
H      1.066341     3.225957    -1.078370

units ang
no_reorient
no_com
symmetry c1
}

set {
basis        aug-cc-pVTZ
scf_type     df
}

energy("mp2", bsse_type="cp")
--------------------------------------------------------------------------

                               Psi4 1.9 release
    Molecular point group: c1
  Charge       = 0
  Multiplicity = 1
  Basis Set: AUG-CC-PVTZ
    Blend: AUG-CC-PVTZ
  Basis Set: (AUG-CC-PVTZ AUX)
    Blend: AUG-CC-PVTZ-JKFIT
  @DF-RHF Final Energy:  -304.22596243679538
    Total Energy =                       -304.2259624367953279
 Dipole X            :        -94.7436690           95.5898912            0.8462222
 Dipole Y            :         -8.9657100            9.3070599            0.3413499
 Dipole Z            :         20.5642916          -18.9343717            1.6299199
 Magnitude           :                                                    1.8679536
  Basis Set: (AUG-CC-PVTZ AUX)
    Blend: AUG-CC-PVTZ-RI
	 Reference Energy          =    -304.2259624367953847 [Eh]
	 Singles Energy            =      -0.0000000000000000 [Eh]
	 Same-Spin Energy          =      -0.2752415978086536 [Eh]
	 Opposite-Spin Energy      =      -0.8665348631827425 [Eh]
	 Correlation Energy        =      -1.1417764609913963 [Eh]
	 Total Energy              =    -305.3677388977868077 [Eh]
	 SCS Total Energy          =    -305.3575514718842214 [Eh]
                               Psi4 1.9 release
    Molecular point group: c1
  Multiplicity = 1
  Basis Set: AUG-CC-PVTZ
    Blend: AUG-CC-PVTZ
  Basis Set: (AUG-CC-PVTZ AUX)
    Blend: AUG-CC-PVTZ-JKFIT
  @DF-RHF Final Energy: -2572.53371949441089
    Total Energy =                      -2572.5337194944104340
  Basis Set: (AUG-CC-PVTZ AUX)
	 Singles Energy            =      -0.0000000000000000 [Eh]
	 Same-Spin Energy          =      -0.0904444151867620 [Eh]
	 Opposite-Spin Energy      =      -0.2105613220591063 [Eh]
	 Correlation Energy        =      -0.3010057372458682 [Eh]
	 Total Energy              =   -2572.8347252316566482 [Eh]
	 SCS Total Energy          =   -2572.8165412192774966 [Eh]
                               Psi4 1.9 release
    Molecular point group: c1

    Geometry (in Bohr), charge = -1, multiplicity = 1:

       Center              X                  Y                   Z               Mass
    ------------   -----------------  -----------------  -----------------  -----------------
         BR           0.000000000000     0.000000000000     0.000000000000    78.918337600000
         O            1.715111652013    -5.733459300257    -0.852859856585    15.994914619570
         H            1.687317560160    -3.896515115209    -0.801961973122     1.007825032230
         H            2.214604061494    -6.330355753149     0.771811392790     1.007825032230
         O            3.786293059490    -0.114458821693     5.128510724345    15.994914619570
         H            2.531701995072     1.053278540273     4.583007263161     1.007825032230
         H            4.873664148792     1.025303034711     6.158058083934     1.007825032230
         O            3.503206416718     0.727544558301    -5.025768204630    15.994914619570
         H            4.594011138390    -0.774938889528    -4.556246851499     1.007825032230
         H            2.678730246537     1.026383958055    -3.519726402507     1.007825032230
         O            0.310551922279     5.961966873074    -1.615698829731    15.994914619570
         H            0.473465211555     4.374982431819    -0.604959914269     1.007825032230
         H            2.015092446347     6.096175222504    -2.037823961910     1.007825032230

  Charge       = -1
  Multiplicity = 1
  Basis Set: AUG-CC-PVTZ
    Blend: AUG-CC-PVTZ
  Basis Set: (AUG-CC-PVTZ AUX)
    Blend: AUG-CC-PVTZ-JKFIT

    Orbital Energies [Eh]
    ---------------------

    Doubly Occupied:

       1A   -489.774040     2A    -64.914658     3A    -58.269152
       4A    -58.269139     5A    -58.269073     6A    -20.445990
       7A    -20.411835     8A    -20.410235     9A    -20.402282
      10A     -9.587216    11A     -7.194944    12A     -7.194767
      13A     -7.194401    14A     -2.936648    15A     -2.936631
      16A     -2.936169    17A     -2.935990    18A     -2.935883
      19A     -1.223056    20A     -1.200371    21A     -1.197046
      22A     -1.188660    23A     -0.755422    24A     -0.574711
      25A     -0.563695    26A     -0.552659    27A     -0.541678
      28A     -0.465416    29A     -0.447783    30A     -0.438803
      31A     -0.422418    32A     -0.385393    33A     -0.357577
      34A     -0.355821    35A     -0.350194    36A     -0.204274
      37A     -0.201737    38A     -0.197284

  @DF-RHF Final Energy: -2876.79429957315779

   => Energetics <=

    Nuclear Repulsion Energy =            336.5802501415410006
    One-Electron Energy =               -4689.4629947714847731
    Two-Electron Energy =                1476.0884450567857584
    Total Energy =                      -2876.7942995731582414
 Dipole X            :        -95.3844661           95.5898912            0.2054251
 Dipole Y            :         -9.1579256            9.3070599            0.1491343
 Dipole Z            :         20.7197397          -18.9343717            1.7853680
 Magnitude           :                                                    1.8033245
  Basis Set: (AUG-CC-PVTZ AUX)
    Blend: AUG-CC-PVTZ-RI
	 Reference Energy          =   -2876.7942995731577867 [Eh]
	 Singles Energy            =      -0.0000000000000000 [Eh]
	 Same-Spin Energy          =      -0.3748477606661911 [Eh]
	 Opposite-Spin Energy      =      -1.0845910584773202 [Eh]
	 Correlation Energy        =      -1.4594388191435113 [Eh]
	 Total Energy              =   -2878.2537383923013294 [Eh]

	 ================> DF-SCS-MP2 Energies <==================
	-----------------------------------------------------------
	 SCS Same-Spin Scale       =       0.3333333333333333 [-]
	 SCS Opposite-Spin Scale   =       1.2000000000000000 [-]
	 SCS Same-Spin Energy      =      -0.1249492535553970 [Eh]
	 SCS Opposite-Spin Energy  =      -1.3015092701727842 [Eh]
	 SCS Correlation Energy    =      -1.4264585237281813 [Eh]
	 SCS Total Energy          =   -2878.2207580968861294 [Eh]
	-----------------------------------------------------------

*** Psi4 exiting successfully. Buy a developer a beer!
