                               Psi4 1.9 release

  ==> Input File <==

--------------------------------------------------------------------------
MEMORY 60 GB

molecule dimer {
-1 1
Br     0.000000     0.000000     0.000000
--
0 1
O      0.781449    -0.807907    -3.361660
H      1.592848    -1.345644    -3.304069
H      0.648406    -0.568569    -2.400584
O      2.510193    -1.908503     0.397343
H      1.800244    -1.321266     0.041421
H      2.224768    -2.811754     0.197244
O      1.731416    -0.150931     2.710083
H      2.460238     0.314986     2.378625
H      1.139946    -0.218518     1.919575
O      2.207844     2.294641     0.275850
H      1.617671     1.545812     0.305669
H      2.353701     2.388285    -0.692227

units ang
no_reorient
no_com
symmetry c1
}

set {
basis        aug-cc-pVTZ
scf_type     df
}

energy("mp2", bsse_type="cp")
--------------------------------------------------------------------------

                               Psi4 1.9 release
    Molecular point group: c1
  Charge       = 0
  Multiplicity = 1
  Basis Set: AUG-CC-PVTZ
    Blend: AUG-CC-PVTZ
  Basis Set: (AUG-CC-PVTZ AUX)
    Blend: AUG-CC-PVTZ-JKFIT
  @DF-RHF Final Energy:  -304.22065082834081
    Total Energy =                       -304.2206508283408084
 Dipole X            :       -135.7379387          135.4650891           -0.2728496
 Dipole Y            :         11.8589598          -12.4689194           -0.6099596
 Dipole Z            :          1.5788836           -2.6105017           -1.0316181
 Magnitude           :                                                    1.2291190
  Basis Set: (AUG-CC-PVTZ AUX)
    Blend: AUG-CC-PVTZ-RI
	 Reference Energy          =    -304.2206508283408084 [Eh]
	 Singles Energy            =      -0.0000000000000000 [Eh]
	 Same-Spin Energy          =      -0.2764713621368918 [Eh]
	 Opposite-Spin Energy      =      -0.8696052763416510 [Eh]
	 Correlation Energy        =      -1.1460766384785428 [Eh]
	 Total Energy              =    -305.3667274668193272 [Eh]
	 SCS Total Energy          =    -305.3563342806630772 [Eh]
                               Psi4 1.9 release
    Molecular point group: c1
  Multiplicity = 1
  Basis Set: AUG-CC-PVTZ
    Blend: AUG-CC-PVTZ
  Basis Set: (AUG-CC-PVTZ AUX)
    Blend: AUG-CC-PVTZ-JKFIT
  @DF-RHF Final Energy: -2572.53372762011440
    Total Energy =                      -2572.5337276201144050
  Basis Set: (AUG-CC-PVTZ AUX)
	 Singles Energy            =      -0.0000000000000000 [Eh]
	 Same-Spin Energy          =      -0.0913745017798877 [Eh]
	 Opposite-Spin Energy      =      -0.2129151865701937 [Eh]
	 Correlation Energy        =      -0.3042896883500814 [Eh]
	 Total Energy              =   -2572.8380173084642593 [Eh]
	 SCS Total Energy          =   -2572.8196840112586870 [Eh]
                               Psi4 1.9 release
    Molecular point group: c1

    Geometry (in Bohr), charge = -1, multiplicity = 1:

       Center              X                  Y                   Z               Mass
    ------------   -----------------  -----------------  -----------------  -----------------
         BR           0.000000000000     0.000000000000     0.000000000000    78.918337600000
         O            1.476724591013    -1.526722964840    -6.352616726907    15.994914619570
         H            3.010046479483    -2.542898622366    -6.243785509615     1.007825032230
         H            1.225309758104    -1.074439693425    -4.536446301156     1.007825032230
         O            4.743577292041    -3.606547979615     0.750869447868    15.994914619570
         H            3.401968118999    -2.496830878879     0.078274345843     1.007825032230
         H            4.204202212683    -5.313444992161     0.372737139890     1.007825032230
         O            3.271902049236    -0.285218253841     5.121314647259    15.994914619570
         H            4.649176023444     0.595237273353     4.494949805167     1.007825032230
         H            2.154185737811    -0.412939173483     3.627471027276     1.007825032230
         O            4.172220487735     4.336243046247     0.521280951708    15.994914619570
         H            3.056955151095     2.921161321446     0.577630695043     1.007825032230
         H            4.447850271216     4.513204559539    -1.308119446647     1.007825032230

  Charge       = -1
  Multiplicity = 1
  Basis Set: AUG-CC-PVTZ
    Blend: AUG-CC-PVTZ
  Basis Set: (AUG-CC-PVTZ AUX)
    Blend: AUG-CC-PVTZ-JKFIT

    Orbital Energies [Eh]
    ---------------------

    Doubly Occupied:

       1A   -489.795519     2A    -64.936251     3A    -58.290735
       4A    -58.290694     5A    -58.290681     6A    -20.437614
       7A    -20.414614     8A    -20.412484     9A    -20.385912
      10A     -9.608872    11A     -7.216489    12A     -7.216423
      13A     -7.216198    14A     -2.958139    15A     -2.958106
      16A     -2.957885    17A     -2.957751    18A     -2.957688
      19A     -1.208073    20A     -1.199469    21A     -1.192227
      22A     -1.179873    23A     -0.780747    24A     -0.562410
      25A     -0.561132    26A     -0.557462    27A     -0.541153
      28A     -0.457091    29A     -0.443993    30A     -0.432753
      31A     -0.420600    32A     -0.376473    33A     -0.362073
      34A     -0.360019    35A     -0.330186    36A     -0.224406
      37A     -0.223772    38A     -0.220388

  @DF-RHF Final Energy: -2876.80503941377992

   => Energetics <=

    Nuclear Repulsion Energy =            348.5390604871745381
    One-Electron Energy =               -4712.8154802749868395
    Two-Electron Energy =                1487.4713803740323783
    Total Energy =                      -2876.8050394137799231
 Dipole X            :       -136.8361423          135.4650891           -1.3710532
 Dipole Y            :         12.0199567          -12.4689194           -0.4489627
 Dipole Z            :          1.6018482           -2.6105017           -1.0086535
 Magnitude           :                                                    1.7603228
  Basis Set: (AUG-CC-PVTZ AUX)
    Blend: AUG-CC-PVTZ-RI
	 Reference Energy          =   -2876.8050394137799231 [Eh]
	 Singles Energy            =      -0.0000000000000000 [Eh]
	 Same-Spin Energy          =      -0.3781848933249563 [Eh]
	 Opposite-Spin Energy      =      -1.0900012068267653 [Eh]
	 Correlation Energy        =      -1.4681861001517216 [Eh]
	 Total Energy              =   -2878.2732255139317203 [Eh]

	 ================> DF-SCS-MP2 Energies <==================
	-----------------------------------------------------------
	 SCS Same-Spin Scale       =       0.3333333333333333 [-]
	 SCS Opposite-Spin Scale   =       1.2000000000000000 [-]
	 SCS Same-Spin Energy      =      -0.1260616311083188 [Eh]
	 SCS Opposite-Spin Energy  =      -1.3080014481921183 [Eh]
	 SCS Correlation Energy    =      -1.4340630793004370 [Eh]
	 SCS Total Energy          =   -2878.2391024930802814 [Eh]
	-----------------------------------------------------------

*** Psi4 exiting successfully. Buy a developer a beer!
