                               Psi4 1.8.2 release

  ==> Input File <==

--------------------------------------------------------------------------
MEMORY 60 GB

molecule dimer {
0 1
Gh(Br)     0.000000     0.000000     0.000000
O         -0.389734    -0.598419    -3.176388
H         -0.465508     0.292966    -3.519841
H          0.113003    -0.512129    -2.347686
Gh(O)      1.397414     3.038515     0.513452
Gh(H)      0.940691     3.150955     1.319867
Gh(H)      1.055355     2.289705     0.200989
Gh(O)      1.276458    -2.240841     2.084055
Gh(H)      2.053789    -2.628877     1.781351
Gh(H)      0.942450    -1.517205     1.560668
Gh(O)      2.870105    -1.015920    -1.248286
Gh(H)      3.514743    -0.967933    -0.518971
Gh(H)      2.050698    -0.852438    -0.717526
Gh(O)     -1.016719     3.064452    -1.085676
Gh(H)     -1.384642     2.386952    -1.618609
Gh(H)     -0.007287     3.049352    -1.229396

units ang
no_reorient
no_com
symmetry c1
}

set {
basis        aug-cc-pVTZ
scf_type     df
}

energy("mp2")
--------------------------------------------------------------------------

    Molecular point group: c1

    Geometry (in Angstrom), charge = 0, multiplicity = 1:

       Center              X                  Y                   Z               Mass
    ------------   -----------------  -----------------  -----------------  -----------------
      Gh(BR)          0.000000000000     0.000000000000     0.000000000000    78.918337600000
         O           -0.389734000000    -0.598419000000    -3.176388000000    15.994914619570
         H           -0.465508000000     0.292966000000    -3.519841000000     1.007825032230
         H            0.113003000000    -0.512129000000    -2.347686000000     1.007825032230
      Gh(O)           1.397414000000     3.038515000000     0.513452000000    15.994914619570
      Gh(H)           0.940691000000     3.150955000000     1.319867000000     1.007825032230
      Gh(H)           1.055355000000     2.289705000000     0.200989000000     1.007825032230
      Gh(O)           1.276458000000    -2.240841000000     2.084055000000    15.994914619570
      Gh(H)           2.053789000000    -2.628877000000     1.781351000000     1.007825032230
      Gh(H)           0.942450000000    -1.517205000000     1.560668000000     1.007825032230
      Gh(O)           2.870105000000    -1.015920000000    -1.248286000000    15.994914619570
      Gh(H)           3.514743000000    -0.967933000000    -0.518971000000     1.007825032230
      Gh(H)           2.050698000000    -0.852438000000    -0.717526000000     1.007825032230
      Gh(O)          -1.016719000000     3.064452000000    -1.085676000000    15.994914619570
      Gh(H)          -1.384642000000     2.386952000000    -1.618609000000     1.007825032230
      Gh(H)          -0.007287000000     3.049352000000    -1.229396000000     1.007825032230

  Charge       = 0
  Multiplicity = 1
  Basis Set: AUG-CC-PVTZ
    Blend: AUG-CC-PVTZ
  Basis Set: (AUG-CC-PVTZ AUX)
    Blend: AUG-CC-PVTZ-JKFIT

    Orbital Energies [Eh]
    ---------------------

    Doubly Occupied:

       1A    -20.568226     2A     -1.348707     3A     -0.714638
       4A     -0.581727     5A     -0.509425

  @DF-RHF Final Energy:   -76.05991254760868

   => Energetics <=

    Nuclear Repulsion Energy =              9.1129129870222041
    One-Electron Energy =                -122.9002027999245144
    Two-Electron Energy =                  37.7273772652936259
    Total Energy =                        -76.0599125476086897
 Dipole X            :          6.8407563           -6.5580621            0.2826942
 Dipole Y            :         10.1107175           -9.4609422            0.6497753
 Dipole Z            :         59.4282161          -59.1080462            0.3201699
 Magnitude           :                                                    0.7775814
  Basis Set: (AUG-CC-PVTZ AUX)
    Blend: AUG-CC-PVTZ-RI
	 Reference Energy          =     -76.0599125476086755 [Eh]
	 Singles Energy            =      -0.0000000000000000 [Eh]
	 Same-Spin Energy          =      -0.0685245927843512 [Eh]
	 Opposite-Spin Energy      =      -0.2161401678579518 [Eh]
	 Correlation Energy        =      -0.2846647606423030 [Eh]
	 Total Energy              =     -76.3445773082509760 [Eh]

	 ================> DF-SCS-MP2 Energies <==================
	-----------------------------------------------------------
	 SCS Same-Spin Scale       =       0.3333333333333333 [-]
	 SCS Opposite-Spin Scale   =       1.2000000000000000 [-]
	 SCS Same-Spin Energy      =      -0.0228415309281171 [Eh]
	 SCS Opposite-Spin Energy  =      -0.2593682014295422 [Eh]
	 SCS Correlation Energy    =      -0.2822097323576592 [Eh]
	 SCS Total Energy          =     -76.3421222799663326 [Eh]
	-----------------------------------------------------------

*** Psi4 exiting successfully. Buy a developer a beer!
