                               Psi4 1.8.2 release

  ==> Input File <==

--------------------------------------------------------------------------
MEMORY 60 GB

molecule dimer {
0 1
Gh(Br)     0.000000     0.000000     0.000000
Gh(O)     -0.589641     1.981122    -2.700950
Gh(H)     -0.352083     1.498565    -1.927478
Gh(H)      0.291278     2.138304    -3.079812
Gh(O)     -0.614349     3.140419     0.660389
Gh(H)     -1.466447     3.242082     0.197508
Gh(H)     -0.129896     2.300579     0.382244
Gh(O)      1.920213    -0.518193     2.687699
Gh(H)      2.197835     0.425939     2.874306
Gh(H)      1.083802    -0.483503     2.156645
Gh(O)     -1.496158    -2.247040     1.826228
Gh(H)     -1.236232    -1.353537     1.456673
Gh(H)     -0.761899    -2.827253     1.477870
O         -0.445692     1.514137     3.176920
H         -0.182736     0.818354     3.872867
H         -0.524766     1.099695     2.328947
Gh(O)     -3.061657     0.895335    -0.093977
Gh(H)     -2.099177     0.663244     0.089351
Gh(H)     -3.264239     0.403587    -0.926203

units ang
no_reorient
no_com
symmetry c1
}

set {
basis        aug-cc-pVTZ
scf_type     df
}

energy("mp2")
--------------------------------------------------------------------------

    Molecular point group: c1

    Geometry (in Angstrom), charge = 0, multiplicity = 1:

       Center              X                  Y                   Z               Mass
    ------------   -----------------  -----------------  -----------------  -----------------
      Gh(BR)          0.000000000000     0.000000000000     0.000000000000    78.918337600000
      Gh(O)          -0.589641000000     1.981122000000    -2.700950000000    15.994914619570
      Gh(H)          -0.352083000000     1.498565000000    -1.927478000000     1.007825032230
      Gh(H)           0.291278000000     2.138304000000    -3.079812000000     1.007825032230
      Gh(O)          -0.614349000000     3.140419000000     0.660389000000    15.994914619570
      Gh(H)          -1.466447000000     3.242082000000     0.197508000000     1.007825032230
      Gh(H)          -0.129896000000     2.300579000000     0.382244000000     1.007825032230
      Gh(O)           1.920213000000    -0.518193000000     2.687699000000    15.994914619570
      Gh(H)           2.197835000000     0.425939000000     2.874306000000     1.007825032230
      Gh(H)           1.083802000000    -0.483503000000     2.156645000000     1.007825032230
      Gh(O)          -1.496158000000    -2.247040000000     1.826228000000    15.994914619570
      Gh(H)          -1.236232000000    -1.353537000000     1.456673000000     1.007825032230
      Gh(H)          -0.761899000000    -2.827253000000     1.477870000000     1.007825032230
         O           -0.445692000000     1.514137000000     3.176920000000    15.994914619570
         H           -0.182736000000     0.818354000000     3.872867000000     1.007825032230
         H           -0.524766000000     1.099695000000     2.328947000000     1.007825032230
      Gh(O)          -3.061657000000     0.895335000000    -0.093977000000    15.994914619570
      Gh(H)          -2.099177000000     0.663244000000     0.089351000000     1.007825032230
      Gh(H)          -3.264239000000     0.403587000000    -0.926203000000     1.007825032230

  Charge       = 0
  Multiplicity = 1
  Basis Set: AUG-CC-PVTZ
    Blend: AUG-CC-PVTZ
  Basis Set: (AUG-CC-PVTZ AUX)
    Blend: AUG-CC-PVTZ-JKFIT

    Orbital Energies [Eh]
    ---------------------

    Doubly Occupied:

       1A    -20.568870     2A     -1.338456     3A     -0.713235
       4A     -0.569933     5A     -0.506775

  @DF-RHF Final Energy:   -76.05510439037016

   => Energetics <=

    Nuclear Repulsion Energy =              8.9551520225344259
    One-Electron Energy =                -122.6259701034287275
    Two-Electron Energy =                  37.6157136905241458
    Total Energy =                        -76.0551043903701611
 Dipole X            :          8.1948665           -8.0748715            0.1199949
 Dipole Y            :        -27.2515521           26.5150213           -0.7365309
 Dipole Z            :        -59.8591724           59.7477997           -0.1113726
 Magnitude           :                                                    0.7545067
  Basis Set: (AUG-CC-PVTZ AUX)
    Blend: AUG-CC-PVTZ-RI
	 Reference Energy          =     -76.0551043903701611 [Eh]
	 Singles Energy            =      -0.0000000000000000 [Eh]
	 Same-Spin Energy          =      -0.0687752319986045 [Eh]
	 Opposite-Spin Energy      =      -0.2172807108787833 [Eh]
	 Correlation Energy        =      -0.2860559428773878 [Eh]
	 Total Energy              =     -76.3411603332475437 [Eh]

	 ================> DF-SCS-MP2 Energies <==================
	-----------------------------------------------------------
	 SCS Same-Spin Scale       =       0.3333333333333333 [-]
	 SCS Opposite-Spin Scale   =       1.2000000000000000 [-]
	 SCS Same-Spin Energy      =      -0.0229250773328682 [Eh]
	 SCS Opposite-Spin Energy  =      -0.2607368530545400 [Eh]
	 SCS Correlation Energy    =      -0.2836619303874082 [Eh]
	 SCS Total Energy          =     -76.3387663207575713 [Eh]
	-----------------------------------------------------------

*** Psi4 exiting successfully. Buy a developer a beer!
