                               Psi4 1.8.2 release

  ==> Input File <==

--------------------------------------------------------------------------
MEMORY 60 GB

molecule dimer {
-1 1
Br         0.000000     0.000000     0.000000
O         -2.018814     1.297243     2.271203
H         -1.624924     1.929481     2.858206
H         -1.319651     1.058009     1.655548
O          2.992256     0.142962     1.185442
H          2.076229    -0.027513     0.900949
H          3.011154     0.890364     1.822388
O          1.638357    -0.919045    -3.055647
H          2.042760    -0.288329    -3.647520
H          1.415696    -0.537243    -2.199502

units ang
no_reorient
no_com
symmetry c1
}

set {
basis        aug-cc-pVTZ
scf_type     df
}

energy("mp2")
--------------------------------------------------------------------------

    Molecular point group: c1

    Geometry (in Angstrom), charge = -1, multiplicity = 1:

       Center              X                  Y                   Z               Mass
    ------------   -----------------  -----------------  -----------------  -----------------
         BR           0.000000000000     0.000000000000     0.000000000000    78.918337600000
         O           -2.018814000000     1.297243000000     2.271203000000    15.994914619570
         H           -1.624924000000     1.929481000000     2.858206000000     1.007825032230
         H           -1.319651000000     1.058009000000     1.655548000000     1.007825032230
         O            2.992256000000     0.142962000000     1.185442000000    15.994914619570
         H            2.076229000000    -0.027513000000     0.900949000000     1.007825032230
         H            3.011154000000     0.890364000000     1.822388000000     1.007825032230
         O            1.638357000000    -0.919045000000    -3.055647000000    15.994914619570
         H            2.042760000000    -0.288329000000    -3.647520000000     1.007825032230
         H            1.415696000000    -0.537243000000    -2.199502000000     1.007825032230

  Charge       = -1
  Multiplicity = 1
  Basis Set: AUG-CC-PVTZ
    Blend: AUG-CC-PVTZ
  Basis Set: (AUG-CC-PVTZ AUX)
    Blend: AUG-CC-PVTZ-JKFIT

    Orbital Energies [Eh]
    ---------------------

    Doubly Occupied:

       1A   -489.768973     2A    -64.909401     3A    -58.263896
       4A    -58.263881     5A    -58.263868     6A    -20.417915
       7A    -20.409993     8A    -20.403032     9A     -9.581826
      10A     -7.189452    11A     -7.189315    12A     -7.189119
      13A     -2.931109    14A     -2.931064    15A     -2.930868
      16A     -2.930699    17A     -2.930670    18A     -1.202629
      19A     -1.201218    20A     -1.178974    21A     -0.746636
      22A     -0.587270    23A     -0.567638    24A     -0.556730
      25A     -0.435059    26A     -0.426995    27A     -0.415601
      28A     -0.364196    29A     -0.357939    30A     -0.347308
      31A     -0.199191    32A     -0.194587    33A     -0.190317

  @DF-RHF Final Energy: -2800.74546724054608

   => Energetics <=

    Nuclear Repulsion Energy =            226.8676427582175279
    One-Electron Energy =               -4364.2714794788562358
    Two-Electron Energy =                1336.6583694800926878
    Total Energy =                      -2800.7454672405456222
 Dipole X            :        -50.2195655           50.0695334           -0.1500321
 Dipole Y            :        -12.4908039           13.5947823            1.1039784
 Dipole Z            :         -8.5397753            8.6890609            0.1492856
 Magnitude           :                                                    1.1240837
  Basis Set: (AUG-CC-PVTZ AUX)
    Blend: AUG-CC-PVTZ-RI
	 Reference Energy          =   -2800.7454672405460769 [Eh]
	 Singles Energy            =      -0.0000000000000000 [Eh]
	 Same-Spin Energy          =      -0.3020715540165301 [Eh]
	 Opposite-Spin Energy      =      -0.8620063560654898 [Eh]
	 Correlation Energy        =      -1.1640779100820198 [Eh]
	 Total Energy              =   -2801.9095451506282188 [Eh]

	 ================> DF-SCS-MP2 Energies <==================
	-----------------------------------------------------------
	 SCS Same-Spin Scale       =       0.3333333333333333 [-]
	 SCS Opposite-Spin Scale   =       1.2000000000000000 [-]
	 SCS Same-Spin Energy      =      -0.1006905180055100 [Eh]
	 SCS Opposite-Spin Energy  =      -1.0344076272785878 [Eh]
	 SCS Correlation Energy    =      -1.1350981452840978 [Eh]
	 SCS Total Energy          =   -2801.8805653858303231 [Eh]
	-----------------------------------------------------------

*** Psi4 exiting successfully. Buy a developer a beer!
