                               Psi4 1.8.2 release

  ==> Input File <==

--------------------------------------------------------------------------
MEMORY 60 GB

molecule dimer {
-1 1
Br         0.000000     0.000000     0.000000
O         -0.511209    -1.596324     2.879646
H         -0.433710    -0.997467     2.138130
H         -0.918528    -1.038916     3.548105
O         -3.187448     0.590894    -0.105155
H         -3.397130     0.517404     0.858241
H         -3.018042     1.507967    -0.247243
O          2.646787    -1.460966    -0.998380
H          2.179136    -1.281805    -1.828390
H          1.885375    -1.346297    -0.386432
O          0.065671     2.343883     2.229430
H         -0.131811     1.750637     1.521156
H          1.015092     2.147601     2.388385
O          2.637791     0.698439     2.316515
H          3.403190     0.095791     2.263071
H          2.040586     0.587135     1.585898

units ang
no_reorient
no_com
symmetry c1
}

set {
basis        aug-cc-pVTZ
scf_type     df
}

energy("mp2")
--------------------------------------------------------------------------

    Molecular point group: c1

    Geometry (in Angstrom), charge = -1, multiplicity = 1:

       Center              X                  Y                   Z               Mass
    ------------   -----------------  -----------------  -----------------  -----------------
         BR           0.000000000000     0.000000000000     0.000000000000    78.918337600000
         O           -0.511209000000    -1.596324000000     2.879646000000    15.994914619570
         H           -0.433710000000    -0.997467000000     2.138130000000     1.007825032230
         H           -0.918528000000    -1.038916000000     3.548105000000     1.007825032230
         O           -3.187448000000     0.590894000000    -0.105155000000    15.994914619570
         H           -3.397130000000     0.517404000000     0.858241000000     1.007825032230
         H           -3.018042000000     1.507967000000    -0.247243000000     1.007825032230
         O            2.646787000000    -1.460966000000    -0.998380000000    15.994914619570
         H            2.179136000000    -1.281805000000    -1.828390000000     1.007825032230
         H            1.885375000000    -1.346297000000    -0.386432000000     1.007825032230
         O            0.065671000000     2.343883000000     2.229430000000    15.994914619570
         H           -0.131811000000     1.750637000000     1.521156000000     1.007825032230
         H            1.015092000000     2.147601000000     2.388385000000     1.007825032230
         O            2.637791000000     0.698439000000     2.316515000000    15.994914619570
         H            3.403190000000     0.095791000000     2.263071000000     1.007825032230
         H            2.040586000000     0.587135000000     1.585898000000     1.007825032230

  Charge       = -1
  Multiplicity = 1
  Basis Set: AUG-CC-PVTZ
    Blend: AUG-CC-PVTZ
  Basis Set: (AUG-CC-PVTZ AUX)
    Blend: AUG-CC-PVTZ-JKFIT

    Orbital Energies [Eh]
    ---------------------

    Doubly Occupied:

       1A   -489.779945     2A    -64.920611     3A    -58.275087
       4A    -58.275087     5A    -58.275035     6A    -20.440960
       7A    -20.432781     8A    -20.412538     9A    -20.412307
      10A    -20.403563    11A     -9.593163    12A     -7.200849
      13A     -7.200693    14A     -7.200418    15A     -2.942513
      16A     -2.942496    17A     -2.942125    18A     -2.941988
      19A     -2.941900    20A     -1.223067    21A     -1.218043
      22A     -1.201970    23A     -1.193013    24A     -1.192681
      25A     -0.762606    26A     -0.604568    27A     -0.588098
      28A     -0.561001    29A     -0.550207    30A     -0.540946
      31A     -0.455997    32A     -0.449987    33A     -0.446079
      34A     -0.440663    35A     -0.431037    36A     -0.385255
      37A     -0.380887    38A     -0.358767    39A     -0.356590
      40A     -0.351327    41A     -0.210869    42A     -0.208274
      43A     -0.202816

  @DF-RHF Final Energy: -2952.86483634709748

   => Energetics <=

    Nuclear Repulsion Energy =            451.8351683427621879
    One-Electron Energy =               -5025.7023819521928090
    Two-Electron Energy =                1621.0023772623335390
    Total Energy =                      -2952.8648363470974800
 Dipole X            :        -30.7522853           29.9273923           -0.8248930
 Dipole Y            :        -11.9700954           12.3766819            0.4065865
 Dipole Z            :       -119.1618470          117.9517329           -1.2101141
 Magnitude           :                                                    1.5199135
  Basis Set: (AUG-CC-PVTZ AUX)
    Blend: AUG-CC-PVTZ-RI
	 Reference Energy          =   -2952.8648363470974800 [Eh]
	 Singles Energy            =      -0.0000000000000000 [Eh]
	 Same-Spin Energy          =      -0.4462261065693378 [Eh]
	 Opposite-Spin Energy      =      -1.3037084007390207 [Eh]
	 Correlation Energy        =      -1.7499345073083585 [Eh]
	 Total Energy              =   -2954.6147708544058332 [Eh]

	 ================> DF-SCS-MP2 Energies <==================
	-----------------------------------------------------------
	 SCS Same-Spin Scale       =       0.3333333333333333 [-]
	 SCS Opposite-Spin Scale   =       1.2000000000000000 [-]
	 SCS Same-Spin Energy      =      -0.1487420355231126 [Eh]
	 SCS Opposite-Spin Energy  =      -1.5644500808868249 [Eh]
	 SCS Correlation Energy    =      -1.7131921164099375 [Eh]
	 SCS Total Energy          =   -2954.5780284635075077 [Eh]
	-----------------------------------------------------------

*** Psi4 exiting successfully. Buy a developer a beer!
