                               Psi4 1.8.2 release

  ==> Input File <==

--------------------------------------------------------------------------
MEMORY 60 GB

molecule dimer {
-1 1
Br         0.000000     0.000000     0.000000
Gh(O)     -0.134210     2.411128    -2.072805
Gh(H)      0.609473     1.830673    -2.287997
Gh(H)     -0.403434     2.300933    -1.141755
Gh(O)     -1.310303    -2.052809     2.019950
Gh(H)     -0.550126    -2.646822     1.949115
Gh(H)     -1.196439    -1.381497     1.375027
Gh(O)     -3.132579     0.001629    -1.095278
Gh(H)     -2.256450    -0.233826    -0.636847
Gh(H)     -2.985203    -0.177030    -2.038425

units ang
no_reorient
no_com
symmetry c1
}

set {
basis        aug-cc-pVTZ
scf_type     df
}

energy("mp2")
--------------------------------------------------------------------------

    Molecular point group: c1

    Geometry (in Angstrom), charge = -1, multiplicity = 1:

       Center              X                  Y                   Z               Mass
    ------------   -----------------  -----------------  -----------------  -----------------
         BR           0.000000000000     0.000000000000     0.000000000000    78.918337600000
      Gh(O)          -0.134210000000     2.411128000000    -2.072805000000    15.994914619570
      Gh(H)           0.609473000000     1.830673000000    -2.287997000000     1.007825032230
      Gh(H)          -0.403434000000     2.300933000000    -1.141755000000     1.007825032230
      Gh(O)          -1.310303000000    -2.052809000000     2.019950000000    15.994914619570
      Gh(H)          -0.550126000000    -2.646822000000     1.949115000000     1.007825032230
      Gh(H)          -1.196439000000    -1.381497000000     1.375027000000     1.007825032230
      Gh(O)          -3.132579000000     0.001629000000    -1.095278000000    15.994914619570
      Gh(H)          -2.256450000000    -0.233826000000    -0.636847000000     1.007825032230
      Gh(H)          -2.985203000000    -0.177030000000    -2.038425000000     1.007825032230

  Charge       = -1
  Multiplicity = 1
  Basis Set: AUG-CC-PVTZ
    Blend: AUG-CC-PVTZ
  Basis Set: (AUG-CC-PVTZ AUX)
    Blend: AUG-CC-PVTZ-JKFIT

    Orbital Energies [Eh]
    ---------------------

    Doubly Occupied:

       1A   -489.721549     2A    -64.861313     3A    -58.215828
       4A    -58.215826     5A    -58.215825     6A     -9.533131
       7A     -7.140485     8A     -7.140463     9A     -7.140451
      10A     -2.882168    11A     -2.882166    12A     -2.882159
      13A     -2.882151    14A     -2.882126    15A     -0.685993
      16A     -0.139339    17A     -0.139336    18A     -0.139331

  @DF-RHF Final Energy: -2572.53370830551466

   => Energetics <=

    Nuclear Repulsion Energy =              0.0000000000000000
    One-Electron Energy =               -3593.6681336318752074
    Two-Electron Energy =                1021.1344253263602013
    Total Energy =                      -2572.5337083055151197
 Dipole X            :         -0.0002421            0.0000000           -0.0002421
 Dipole Y            :          0.0000862            0.0000000            0.0000862
 Dipole Z            :          0.0001412            0.0000000            0.0001412
 Magnitude           :                                                    0.0002932
  Basis Set: (AUG-CC-PVTZ AUX)
    Blend: AUG-CC-PVTZ-RI
	 Reference Energy          =   -2572.5337083055146650 [Eh]
	 Singles Energy            =      -0.0000000000000000 [Eh]
	 Same-Spin Energy          =      -0.0896586593735016 [Eh]
	 Opposite-Spin Energy      =      -0.2086150495904765 [Eh]
	 Correlation Energy        =      -0.2982737089639781 [Eh]
	 Total Energy              =   -2572.8319820144788537 [Eh]

	 ================> DF-SCS-MP2 Energies <==================
	-----------------------------------------------------------
	 SCS Same-Spin Scale       =       0.3333333333333333 [-]
	 SCS Opposite-Spin Scale   =       1.2000000000000000 [-]
	 SCS Same-Spin Energy      =      -0.0298862197911672 [Eh]
	 SCS Opposite-Spin Energy  =      -0.2503380595085718 [Eh]
	 SCS Correlation Energy    =      -0.2802242792997390 [Eh]
	 SCS Total Energy          =   -2572.8139325848142107 [Eh]
	-----------------------------------------------------------

*** Psi4 exiting successfully. Buy a developer a beer!
