                               Psi4 1.8.2 release

  ==> Input File <==

--------------------------------------------------------------------------
MEMORY 60 GB

molecule dimer {
-1 1
Br         0.000000     0.000000     0.000000
O          1.945893     0.262012    -2.944461
H          2.825168     0.000048    -2.764125
H          1.492154     0.128599    -2.083365
O          1.918090    -2.759463     0.110152
H          2.249433    -3.068366     0.986392
H          1.495298    -1.822514     0.139316
O         -0.118445     3.259334     0.447045
H          0.218183     2.360201     0.174258
H         -0.788624     3.412072    -0.216775
O         -1.467014     0.339355    -3.263026
H         -2.372942     0.465663    -2.906747
H         -0.878477     0.065588    -2.558990
O         -3.316037    -0.369815     0.274592
H         -2.663704    -1.042109     0.576311
H         -3.997139    -0.433657     0.965591
O          3.111664     0.648515     1.096188
H          2.163031     0.405322     0.957248
H          3.130519     1.210000     1.863659
O         -1.031067    -3.136478    -0.817819
H         -0.145501    -2.816616    -0.879827
H         -1.232430    -3.165983     0.108864
O          0.920696    -0.819222     3.154004
H          1.852436    -0.484491     3.317884
H          0.572531    -0.433290     2.303889

units ang
no_reorient
no_com
symmetry c1
}

set {
basis        aug-cc-pVTZ
scf_type     df
}

energy("mp2")
--------------------------------------------------------------------------

    Molecular point group: c1

    Geometry (in Angstrom), charge = -1, multiplicity = 1:

       Center              X                  Y                   Z               Mass
    ------------   -----------------  -----------------  -----------------  -----------------
         BR           0.000000000000     0.000000000000     0.000000000000    78.918337600000
         O            1.945893000000     0.262012000000    -2.944461000000    15.994914619570
         H            2.825168000000     0.000048000000    -2.764125000000     1.007825032230
         H            1.492154000000     0.128599000000    -2.083365000000     1.007825032230
         O            1.918090000000    -2.759463000000     0.110152000000    15.994914619570
         H            2.249433000000    -3.068366000000     0.986392000000     1.007825032230
         H            1.495298000000    -1.822514000000     0.139316000000     1.007825032230
         O           -0.118445000000     3.259334000000     0.447045000000    15.994914619570
         H            0.218183000000     2.360201000000     0.174258000000     1.007825032230
         H           -0.788624000000     3.412072000000    -0.216775000000     1.007825032230
         O           -1.467014000000     0.339355000000    -3.263026000000    15.994914619570
         H           -2.372942000000     0.465663000000    -2.906747000000     1.007825032230
         H           -0.878477000000     0.065588000000    -2.558990000000     1.007825032230
         O           -3.316037000000    -0.369815000000     0.274592000000    15.994914619570
         H           -2.663704000000    -1.042109000000     0.576311000000     1.007825032230
         H           -3.997139000000    -0.433657000000     0.965591000000     1.007825032230
         O            3.111664000000     0.648515000000     1.096188000000    15.994914619570
         H            2.163031000000     0.405322000000     0.957248000000     1.007825032230
         H            3.130519000000     1.210000000000     1.863659000000     1.007825032230
         O           -1.031067000000    -3.136478000000    -0.817819000000    15.994914619570
         H           -0.145501000000    -2.816616000000    -0.879827000000     1.007825032230
         H           -1.232430000000    -3.165983000000     0.108864000000     1.007825032230
         O            0.920696000000    -0.819222000000     3.154004000000    15.994914619570
         H            1.852436000000    -0.484491000000     3.317884000000     1.007825032230
         H            0.572531000000    -0.433290000000     2.303889000000     1.007825032230

  Charge       = -1
  Multiplicity = 1
  Basis Set: AUG-CC-PVTZ
    Blend: AUG-CC-PVTZ
  Basis Set: (AUG-CC-PVTZ AUX)
    Blend: AUG-CC-PVTZ-JKFIT

    Orbital Energies [Eh]
    ---------------------

    Doubly Occupied:

       1A   -489.825524     2A    -64.966296     3A    -58.320781
       4A    -58.320750     5A    -58.320723     6A    -20.459230
       7A    -20.450867     8A    -20.447009     9A    -20.442192
      10A    -20.428928    11A    -20.428793    12A    -20.428709
      13A    -20.422524    14A     -9.638790    15A     -7.246495
      16A     -7.246251    17A     -7.246156    18A     -2.988086
      19A     -2.988014    20A     -2.987875    21A     -2.987579
      22A     -2.987567    23A     -1.232989    24A     -1.229798
      25A     -1.225521    26A     -1.218243    27A     -1.212637
      28A     -1.207867    29A     -1.201189    30A     -1.200812
      31A     -0.811942    32A     -0.600438    33A     -0.598854
      34A     -0.588602    35A     -0.588256    36A     -0.584247
      37A     -0.581991    38A     -0.573509    39A     -0.563976
      40A     -0.475454    41A     -0.471970    42A     -0.456386
      43A     -0.454886    44A     -0.453467    45A     -0.449705
      46A     -0.440106    47A     -0.432386    48A     -0.398204
      49A     -0.392536    50A     -0.387503    51A     -0.382917
      52A     -0.375882    53A     -0.374711    54A     -0.371972
      55A     -0.365558    56A     -0.257413    57A     -0.252881
      58A     -0.251416

  @DF-RHF Final Energy: -3181.05114345304310

   => Energetics <=

    Nuclear Repulsion Energy =            835.0587728888268657
    One-Electron Energy =               -6107.7290972247765239
    Two-Electron Energy =                2091.6191808829066758
    Total Energy =                      -3181.0511434530430961
 Dipole X            :        -37.6525140           37.0956564           -0.5568575
 Dipole Y            :         48.8903850          -48.8033658            0.0870192
 Dipole Z            :         31.7985118          -29.4098398            2.3886719
 Magnitude           :                                                    2.4542649
  Basis Set: (AUG-CC-PVTZ AUX)
    Blend: AUG-CC-PVTZ-RI
	 Reference Energy          =   -3181.0511434530430961 [Eh]
	 Singles Energy            =      -0.0000000000000000 [Eh]
	 Same-Spin Energy          =      -0.6612930481201469 [Eh]
	 Opposite-Spin Energy      =      -1.9671567207917440 [Eh]
	 Correlation Energy        =      -2.6284497689118909 [Eh]
	 Total Energy              =   -3183.6795932219552014 [Eh]

	 ================> DF-SCS-MP2 Energies <==================
	-----------------------------------------------------------
	 SCS Same-Spin Scale       =       0.3333333333333333 [-]
	 SCS Opposite-Spin Scale   =       1.2000000000000000 [-]
	 SCS Same-Spin Energy      =      -0.2204310160400489 [Eh]
	 SCS Opposite-Spin Energy  =      -2.3605880649500928 [Eh]
	 SCS Correlation Energy    =      -2.5810190809901417 [Eh]
	 SCS Total Energy          =   -3183.6321625340333412 [Eh]
	-----------------------------------------------------------

*** Psi4 exiting successfully. Buy a developer a beer!
