                               Psi4 1.8.2 release

  ==> Input File <==

--------------------------------------------------------------------------
MEMORY 60 GB

molecule dimer {
0 1
Gh(Br)     0.000000     0.000000     0.000000
Gh(O)      0.648956     3.052833    -0.910767
Gh(H)      0.221036     2.238654    -0.688052
Gh(H)      0.274889     3.810621    -0.399241
Gh(O)     -3.547804     0.036909     0.397669
Gh(H)     -3.709002     0.859644     0.826066
Gh(H)     -2.626536    -0.211847     0.219525
Gh(O)     -1.365510     1.033202    -2.554714
Gh(H)     -0.976789     1.936597    -2.537138
Gh(H)     -1.154285     0.547997    -1.730847
Gh(O)      1.788958    -0.833292    -2.658545
Gh(H)      1.515672    -0.412503    -3.446617
Gh(H)      1.281287    -0.326220    -1.983247
O         -0.063313     2.516803     2.353453
H          0.132725     1.913084     1.615962
H         -0.436989     3.341547     2.033875

units ang
no_reorient
no_com
symmetry c1
}

set {
basis        aug-cc-pVTZ
scf_type     df
}

energy("mp2")
--------------------------------------------------------------------------

    Molecular point group: c1

    Geometry (in Angstrom), charge = 0, multiplicity = 1:

       Center              X                  Y                   Z               Mass
    ------------   -----------------  -----------------  -----------------  -----------------
      Gh(BR)          0.000000000000     0.000000000000     0.000000000000    78.918337600000
      Gh(O)           0.648956000000     3.052833000000    -0.910767000000    15.994914619570
      Gh(H)           0.221036000000     2.238654000000    -0.688052000000     1.007825032230
      Gh(H)           0.274889000000     3.810621000000    -0.399241000000     1.007825032230
      Gh(O)          -3.547804000000     0.036909000000     0.397669000000    15.994914619570
      Gh(H)          -3.709002000000     0.859644000000     0.826066000000     1.007825032230
      Gh(H)          -2.626536000000    -0.211847000000     0.219525000000     1.007825032230
      Gh(O)          -1.365510000000     1.033202000000    -2.554714000000    15.994914619570
      Gh(H)          -0.976789000000     1.936597000000    -2.537138000000     1.007825032230
      Gh(H)          -1.154285000000     0.547997000000    -1.730847000000     1.007825032230
      Gh(O)           1.788958000000    -0.833292000000    -2.658545000000    15.994914619570
      Gh(H)           1.515672000000    -0.412503000000    -3.446617000000     1.007825032230
      Gh(H)           1.281287000000    -0.326220000000    -1.983247000000     1.007825032230
         O           -0.063313000000     2.516803000000     2.353453000000    15.994914619570
         H            0.132725000000     1.913084000000     1.615962000000     1.007825032230
         H           -0.436989000000     3.341547000000     2.033875000000     1.007825032230

  Charge       = 0
  Multiplicity = 1
  Basis Set: AUG-CC-PVTZ
    Blend: AUG-CC-PVTZ
  Basis Set: (AUG-CC-PVTZ AUX)
    Blend: AUG-CC-PVTZ-JKFIT

    Orbital Energies [Eh]
    ---------------------

    Doubly Occupied:

       1A    -20.565725     2A     -1.344301     3A     -0.724564
       4A     -0.570481     5A     -0.507565

  @DF-RHF Final Energy:   -76.05902917356826

   => Energetics <=

    Nuclear Repulsion Energy =              9.0917137763436688
    One-Electron Energy =                -122.8762113090947281
    Two-Electron Energy =                  37.7254683591828055
    Total Energy =                        -76.0590291735682626
 Dipole X            :          1.4119354           -1.5321295           -0.1201941
 Dipole Y            :        -47.8276630           47.9783605            0.1506975
 Dipole Z            :        -43.1894602           42.4762453           -0.7132149
 Magnitude           :                                                    0.7388044
  Basis Set: (AUG-CC-PVTZ AUX)
    Blend: AUG-CC-PVTZ-RI
	 Reference Energy          =     -76.0590291735682626 [Eh]
	 Singles Energy            =      -0.0000000000000000 [Eh]
	 Same-Spin Energy          =      -0.0684737222779509 [Eh]
	 Opposite-Spin Energy      =      -0.2159963075185926 [Eh]
	 Correlation Energy        =      -0.2844700297965436 [Eh]
	 Total Energy              =     -76.3434992033648001 [Eh]

	 ================> DF-SCS-MP2 Energies <==================
	-----------------------------------------------------------
	 SCS Same-Spin Scale       =       0.3333333333333333 [-]
	 SCS Opposite-Spin Scale   =       1.2000000000000000 [-]
	 SCS Same-Spin Energy      =      -0.0228245740926503 [Eh]
	 SCS Opposite-Spin Energy  =      -0.2591955690223112 [Eh]
	 SCS Correlation Energy    =      -0.2820201431149615 [Eh]
	 SCS Total Energy          =     -76.3410493166832254 [Eh]
	-----------------------------------------------------------

*** Psi4 exiting successfully. Buy a developer a beer!
