                               Psi4 1.9 release

  ==> Input File <==

--------------------------------------------------------------------------
MEMORY 60 GB

molecule dimer {
-1 1
Br     0.000000     0.000000     0.000000
--
0 1
O     -1.507113     3.153677     0.727512
H     -1.401126     3.534901     1.636011
H     -1.273360     2.251134     0.805090
O     -2.527257    -1.576289    -1.788391
H     -3.096049    -1.956530    -1.125070
H     -1.908040    -0.983812    -1.315649
O      2.401260     2.203563     1.435866
H      2.471673     2.594887     0.539971
H      1.670040     1.582303     1.398800
O     -1.730997    -2.235948     1.893891
H     -2.644870    -2.455969     1.750518
H     -1.534443    -1.597829     1.213875
O     -3.550632     0.657093     0.107045
H     -4.037137     1.096145    -0.565114
H     -2.546666     0.700240     0.067458
O      1.905718    -2.442782    -1.403529
H      2.150010    -1.702909    -1.963940
H      1.197651    -2.188600    -0.858966

units ang
no_reorient
no_com
symmetry c1
}

set {
basis        aug-cc-pVTZ
scf_type     df
}

energy("mp2", bsse_type="cp")
--------------------------------------------------------------------------

                               Psi4 1.9 release
    Molecular point group: c1
  Charge       = 0
  Multiplicity = 1
  Basis Set: AUG-CC-PVTZ
    Blend: AUG-CC-PVTZ
  Basis Set: (AUG-CC-PVTZ AUX)
    Blend: AUG-CC-PVTZ-JKFIT
  @DF-RHF Final Energy:  -456.33840375458266
    Total Energy =                       -456.3384037545826573
 Dipole X            :         95.6362829          -96.4223023           -0.7860194
 Dipole Y            :          2.9700679           -1.9870980            0.9829699
 Dipole Z            :        -17.9342385           17.6918730           -0.2423655
 Magnitude           :                                                    1.2817165
  Basis Set: (AUG-CC-PVTZ AUX)
    Blend: AUG-CC-PVTZ-RI
	 Reference Energy          =    -456.3384037545826573 [Eh]
	 Singles Energy            =      -0.0000000000000000 [Eh]
	 Same-Spin Energy          =      -0.4126250900194530 [Eh]
	 Opposite-Spin Energy      =      -1.2976311911070477 [Eh]
	 Correlation Energy        =      -1.7102562811265007 [Eh]
	 Total Energy              =    -458.0486600357091334 [Eh]
	 SCS Total Energy          =    -458.0331028805842379 [Eh]
                               Psi4 1.9 release
    Molecular point group: c1
  Multiplicity = 1
  Basis Set: AUG-CC-PVTZ
    Blend: AUG-CC-PVTZ
  Basis Set: (AUG-CC-PVTZ AUX)
    Blend: AUG-CC-PVTZ-JKFIT
  @DF-RHF Final Energy: -2572.53373267605139
    Total Energy =                      -2572.5337326760513861
  Basis Set: (AUG-CC-PVTZ AUX)
	 Singles Energy            =      -0.0000000000000000 [Eh]
	 Same-Spin Energy          =      -0.0911591467621481 [Eh]
	 Opposite-Spin Energy      =      -0.2121267419977262 [Eh]
	 Correlation Energy        =      -0.3032858887598743 [Eh]
	 Total Energy              =   -2572.8370185648113875 [Eh]
	 SCS Total Energy          =   -2572.8186711487028333 [Eh]
                               Psi4 1.9 release
    Molecular point group: c1

    Geometry (in Bohr), charge = -1, multiplicity = 1:

       Center              X                  Y                   Z               Mass
    ------------   -----------------  -----------------  -----------------  -----------------
         BR           0.000000000000     0.000000000000     0.000000000000    78.918337600000
         O           -2.848030810117     5.959585818155     1.374798432984    15.994914619570
         H           -2.647744407258     6.679994770607     3.091612728236     1.007825032230
         H           -2.406301659113     4.254026731706     1.521399606345     1.007825032230
         O           -4.775823578646    -2.978754504572    -3.379569195234    15.994914619570
         H           -5.850684680998    -3.697305856242    -2.126074171969     1.007825032230
         H           -3.605673036419    -1.859135238939    -2.486216287232     1.007825032230
         O            4.537723756017     4.164130570192     2.713393492857    15.994914619570
         H            4.670785041689     4.903625756511     1.020397305690     1.007825032230
         H            3.155918218560     2.990119317490     2.643348904290     1.007825032230
         O           -3.271110253989    -4.225329350765     3.578935301469    15.994914619570
         H           -4.998079937440    -4.641108782615     3.307999597684     1.007825032230
         H           -2.899677025126    -3.019459205314     2.293891300540     1.007825032230
         O           -6.709722052287     1.241725808955     0.202285733100    15.994914619570
         H           -7.629083260952     2.071413843790    -1.067910689662     1.007825032230
         H           -4.812501273015     1.323261822091     0.127477144971     1.007825032230
         O            3.601285092355    -4.616188964198    -2.652285419138    15.994914619570
         H            4.062930066996    -3.218031626577    -3.711308726832     1.007825032230
         H            2.263232383881    -4.135854598177    -1.623210491080     1.007825032230

  Charge       = -1
  Multiplicity = 1
  Basis Set: AUG-CC-PVTZ
    Blend: AUG-CC-PVTZ
  Basis Set: (AUG-CC-PVTZ AUX)
    Blend: AUG-CC-PVTZ-JKFIT

    Orbital Energies [Eh]
    ---------------------

    Doubly Occupied:

       1A   -489.806692     2A    -64.947112     3A    -58.301633
       4A    -58.301602     5A    -58.301571     6A    -20.442631
       7A    -20.436007     8A    -20.434688     9A    -20.430724
      10A    -20.425652    11A    -20.420056    12A     -9.619391
      13A     -7.227086    14A     -7.226915    15A     -7.226627
      16A     -2.968775    17A     -2.968740    18A     -2.968420
      19A     -2.968193    20A     -2.968127    21A     -1.227527
      22A     -1.223232    23A     -1.216289    24A     -1.215090
      25A     -1.214971    26A     -1.208454    27A     -0.785269
      28A     -0.612074    29A     -0.593986    30A     -0.593086
      31A     -0.587228    32A     -0.583902    33A     -0.579230
      34A     -0.460888    35A     -0.458067    36A     -0.452761
      37A     -0.444835    38A     -0.442747    39A     -0.434738
      40A     -0.394099    41A     -0.382868    42A     -0.378648
      43A     -0.377438    44A     -0.370555    45A     -0.362688
      46A     -0.236630    47A     -0.234610    48A     -0.229406

  @DF-RHF Final Energy: -3028.94259963438117

   => Energetics <=

    Nuclear Repulsion Energy =            549.3679533221832116
    One-Electron Energy =               -5325.2371780676503477
    Two-Electron Energy =                1746.9266251110859685
    Total Energy =                      -3028.9425996343816223
 Dipole X            :         96.3287091          -96.4223023           -0.0935933
 Dipole Y            :          2.9678859           -1.9870980            0.9807878
 Dipole Z            :        -18.0140245           17.6918730           -0.3221515
 Magnitude           :                                                    1.0365742
  Basis Set: (AUG-CC-PVTZ AUX)
    Blend: AUG-CC-PVTZ-RI
	 Reference Energy          =   -3028.9425996343811676 [Eh]
	 Singles Energy            =      -0.0000000000000000 [Eh]
	 Same-Spin Energy          =      -0.5131722722411615 [Eh]
	 Opposite-Spin Energy      =      -1.5166954618659712 [Eh]
	 Correlation Energy        =      -2.0298677341071327 [Eh]
	 Total Energy              =   -3030.9724673684881964 [Eh]

	 ================> DF-SCS-MP2 Energies <==================
	-----------------------------------------------------------
	 SCS Same-Spin Scale       =       0.3333333333333333 [-]
	 SCS Opposite-Spin Scale   =       1.2000000000000000 [-]
	 SCS Same-Spin Energy      =      -0.1710574240803872 [Eh]
	 SCS Opposite-Spin Energy  =      -1.8200345542391654 [Eh]
	 SCS Correlation Energy    =      -1.9910919783195524 [Eh]
	 SCS Total Energy          =   -3030.9336916127008408 [Eh]
	-----------------------------------------------------------

*** Psi4 exiting successfully. Buy a developer a beer!
