                               Psi4 1.8.2 release

  ==> Input File <==

--------------------------------------------------------------------------
MEMORY 60 GB

molecule dimer {
0 1
Gh(Br)     0.000000     0.000000     0.000000
O         -1.507113     3.153677     0.727512
H         -1.401126     3.534901     1.636011
H         -1.273360     2.251134     0.805090
Gh(O)     -2.527257    -1.576289    -1.788391
Gh(H)     -3.096049    -1.956530    -1.125070
Gh(H)     -1.908040    -0.983812    -1.315649
Gh(O)      2.401260     2.203563     1.435866
Gh(H)      2.471673     2.594887     0.539971
Gh(H)      1.670040     1.582303     1.398800
Gh(O)     -1.730997    -2.235948     1.893891
Gh(H)     -2.644870    -2.455969     1.750518
Gh(H)     -1.534443    -1.597829     1.213875
Gh(O)     -3.550632     0.657093     0.107045
Gh(H)     -4.037137     1.096145    -0.565114
Gh(H)     -2.546666     0.700240     0.067458
Gh(O)      1.905718    -2.442782    -1.403529
Gh(H)      2.150010    -1.702909    -1.963940
Gh(H)      1.197651    -2.188600    -0.858966

units ang
no_reorient
no_com
symmetry c1
}

set {
basis        aug-cc-pVTZ
scf_type     df
}

energy("mp2")
--------------------------------------------------------------------------

    Molecular point group: c1

    Geometry (in Angstrom), charge = 0, multiplicity = 1:

       Center              X                  Y                   Z               Mass
    ------------   -----------------  -----------------  -----------------  -----------------
      Gh(BR)          0.000000000000     0.000000000000     0.000000000000    78.918337600000
         O           -1.507113000000     3.153677000000     0.727512000000    15.994914619570
         H           -1.401126000000     3.534901000000     1.636011000000     1.007825032230
         H           -1.273360000000     2.251134000000     0.805090000000     1.007825032230
      Gh(O)          -2.527257000000    -1.576289000000    -1.788391000000    15.994914619570
      Gh(H)          -3.096049000000    -1.956530000000    -1.125070000000     1.007825032230
      Gh(H)          -1.908040000000    -0.983812000000    -1.315649000000     1.007825032230
      Gh(O)           2.401260000000     2.203563000000     1.435866000000    15.994914619570
      Gh(H)           2.471673000000     2.594887000000     0.539971000000     1.007825032230
      Gh(H)           1.670040000000     1.582303000000     1.398800000000     1.007825032230
      Gh(O)          -1.730997000000    -2.235948000000     1.893891000000    15.994914619570
      Gh(H)          -2.644870000000    -2.455969000000     1.750518000000     1.007825032230
      Gh(H)          -1.534443000000    -1.597829000000     1.213875000000     1.007825032230
      Gh(O)          -3.550632000000     0.657093000000     0.107045000000    15.994914619570
      Gh(H)          -4.037137000000     1.096145000000    -0.565114000000     1.007825032230
      Gh(H)          -2.546666000000     0.700240000000     0.067458000000     1.007825032230
      Gh(O)           1.905718000000    -2.442782000000    -1.403529000000    15.994914619570
      Gh(H)           2.150010000000    -1.702909000000    -1.963940000000     1.007825032230
      Gh(H)           1.197651000000    -2.188600000000    -0.858966000000     1.007825032230

  Charge       = 0
  Multiplicity = 1
  Basis Set: AUG-CC-PVTZ
    Blend: AUG-CC-PVTZ
  Basis Set: (AUG-CC-PVTZ AUX)
    Blend: AUG-CC-PVTZ-JKFIT

    Orbital Energies [Eh]
    ---------------------

    Doubly Occupied:

       1A    -20.567524     2A     -1.350443     3A     -0.716765
       4A     -0.581411     5A     -0.509597

  @DF-RHF Final Energy:   -76.05876774680027

   => Energetics <=

    Nuclear Repulsion Energy =              9.1421118420426417
    One-Electron Energy =                -122.9502762922270449
    Two-Electron Energy =                  37.7493967033841287
    Total Energy =                        -76.0587677468002710
 Dipole X            :         28.0651570          -27.8382925            0.2268644
 Dipole Y            :        -58.9655960           58.6107080           -0.3548880
 Dipole Z            :        -14.9604664           15.6113998            0.6509334
 Magnitude           :                                                    0.7753240
  Basis Set: (AUG-CC-PVTZ AUX)
    Blend: AUG-CC-PVTZ-RI
	 Reference Energy          =     -76.0587677468002710 [Eh]
	 Singles Energy            =      -0.0000000000000000 [Eh]
	 Same-Spin Energy          =      -0.0684689090913403 [Eh]
	 Opposite-Spin Energy      =      -0.2160489326694486 [Eh]
	 Correlation Energy        =      -0.2845178417607889 [Eh]
	 Total Energy              =     -76.3432855885610593 [Eh]

	 ================> DF-SCS-MP2 Energies <==================
	-----------------------------------------------------------
	 SCS Same-Spin Scale       =       0.3333333333333333 [-]
	 SCS Opposite-Spin Scale   =       1.2000000000000000 [-]
	 SCS Same-Spin Energy      =      -0.0228229696971134 [Eh]
	 SCS Opposite-Spin Energy  =      -0.2592587192033383 [Eh]
	 SCS Correlation Energy    =      -0.2820816889004518 [Eh]
	 SCS Total Energy          =     -76.3408494357007186 [Eh]
	-----------------------------------------------------------

*** Psi4 exiting successfully. Buy a developer a beer!
