                               Psi4 1.8.2 release

  ==> Input File <==

--------------------------------------------------------------------------
MEMORY 60 GB

molecule dimer {
-1 1
Br         0.000000     0.000000     0.000000
O         -2.113858    -2.512859    -1.150525
H         -1.719212    -1.655030    -0.988060
H         -3.081330    -2.317677    -0.996356
O          2.801363    -0.362759    -2.114060
H          2.269415    -0.106052    -1.334895
H          2.149716    -0.381102    -2.814470
O          1.551532     1.868500     2.398071
H          0.950373     1.393075     1.807719
H          1.026933     2.134675     3.208996
O         -2.493947     2.161427     0.432978
H         -1.694356     1.623968     0.386821
H         -3.103791     1.928874    -0.305995
O         -1.293434    -0.333436     3.221317
H         -0.726989    -0.492791     2.454595
H         -1.835080     0.452199     3.109521
O          0.747393     3.065685    -1.348131
H          0.606392     2.246399    -0.896833
H          0.782266     3.812533    -0.695899

units ang
no_reorient
no_com
symmetry c1
}

set {
basis        aug-cc-pVTZ
scf_type     df
}

energy("mp2")
--------------------------------------------------------------------------

    Molecular point group: c1

    Geometry (in Angstrom), charge = -1, multiplicity = 1:

       Center              X                  Y                   Z               Mass
    ------------   -----------------  -----------------  -----------------  -----------------
         BR           0.000000000000     0.000000000000     0.000000000000    78.918337600000
         O           -2.113858000000    -2.512859000000    -1.150525000000    15.994914619570
         H           -1.719212000000    -1.655030000000    -0.988060000000     1.007825032230
         H           -3.081330000000    -2.317677000000    -0.996356000000     1.007825032230
         O            2.801363000000    -0.362759000000    -2.114060000000    15.994914619570
         H            2.269415000000    -0.106052000000    -1.334895000000     1.007825032230
         H            2.149716000000    -0.381102000000    -2.814470000000     1.007825032230
         O            1.551532000000     1.868500000000     2.398071000000    15.994914619570
         H            0.950373000000     1.393075000000     1.807719000000     1.007825032230
         H            1.026933000000     2.134675000000     3.208996000000     1.007825032230
         O           -2.493947000000     2.161427000000     0.432978000000    15.994914619570
         H           -1.694356000000     1.623968000000     0.386821000000     1.007825032230
         H           -3.103791000000     1.928874000000    -0.305995000000     1.007825032230
         O           -1.293434000000    -0.333436000000     3.221317000000    15.994914619570
         H           -0.726989000000    -0.492791000000     2.454595000000     1.007825032230
         H           -1.835080000000     0.452199000000     3.109521000000     1.007825032230
         O            0.747393000000     3.065685000000    -1.348131000000    15.994914619570
         H            0.606392000000     2.246399000000    -0.896833000000     1.007825032230
         H            0.782266000000     3.812533000000    -0.695899000000     1.007825032230

  Charge       = -1
  Multiplicity = 1
  Basis Set: AUG-CC-PVTZ
    Blend: AUG-CC-PVTZ
  Basis Set: (AUG-CC-PVTZ AUX)
    Blend: AUG-CC-PVTZ-JKFIT

    Orbital Energies [Eh]
    ---------------------

    Doubly Occupied:

       1A   -489.814903     2A    -64.955469     3A    -58.309965
       4A    -58.309947     5A    -58.309940     6A    -20.445414
       7A    -20.437316     8A    -20.436512     9A    -20.433521
      10A    -20.427296    11A    -20.426697    12A     -9.627835
      13A     -7.235444    14A     -7.235344    15A     -7.235247
      16A     -2.977027    17A     -2.977004    18A     -2.976910
      19A     -2.976777    20A     -2.976763    21A     -1.220284
      22A     -1.216705    23A     -1.214281    24A     -1.209843
      25A     -1.207090    26A     -1.206469    27A     -0.796661
      28A     -0.599831    29A     -0.593647    30A     -0.585793
      31A     -0.578901    32A     -0.575638    33A     -0.569460
      34A     -0.464375    35A     -0.452012    36A     -0.449541
      37A     -0.448084    38A     -0.442468    39A     -0.437991
      40A     -0.385413    41A     -0.382856    42A     -0.380633
      43A     -0.375121    44A     -0.371862    45A     -0.368878
      46A     -0.244952    47A     -0.243192    48A     -0.240908

  @DF-RHF Final Energy: -3028.94643635294051

   => Energetics <=

    Nuclear Repulsion Energy =            551.6963086110193899
    One-Electron Energy =               -5329.7090379745977771
    Two-Electron Energy =                1749.0662930106382191
    Total Energy =                      -3028.9464363529405091
 Dipole X            :         18.7968903          -20.3774289           -1.5805386
 Dipole Y            :        -75.0421119           75.0817197            0.0396078
 Dipole Z            :        -27.4606227           27.3109720           -0.1496506
 Magnitude           :                                                    1.5881015
  Basis Set: (AUG-CC-PVTZ AUX)
    Blend: AUG-CC-PVTZ-RI
	 Reference Energy          =   -3028.9464363529405091 [Eh]
	 Singles Energy            =      -0.0000000000000000 [Eh]
	 Same-Spin Energy          =      -0.5158320311214254 [Eh]
	 Opposite-Spin Energy      =      -1.5230318652306696 [Eh]
	 Correlation Energy        =      -2.0388638963520949 [Eh]
	 Total Energy              =   -3030.9853002492927772 [Eh]

	 ================> DF-SCS-MP2 Energies <==================
	-----------------------------------------------------------
	 SCS Same-Spin Scale       =       0.3333333333333333 [-]
	 SCS Opposite-Spin Scale   =       1.2000000000000000 [-]
	 SCS Same-Spin Energy      =      -0.1719440103738085 [Eh]
	 SCS Opposite-Spin Energy  =      -1.8276382382768035 [Eh]
	 SCS Correlation Energy    =      -1.9995822486506118 [Eh]
	 SCS Total Energy          =   -3030.9460186015912768 [Eh]
	-----------------------------------------------------------

*** Psi4 exiting successfully. Buy a developer a beer!
