                               Psi4 1.8.2 release

  ==> Input File <==

--------------------------------------------------------------------------
MEMORY 60 GB

molecule dimer {
0 1
Gh(Br)     0.000000     0.000000     0.000000
Gh(O)      2.503250     1.309100    -1.941613
Gh(H)      1.693555     1.376407    -1.484593
Gh(H)      2.297101     0.825735    -2.742119
Gh(O)     -3.001212     0.171636     1.161661
Gh(H)     -2.095584     0.222145     0.811440
Gh(H)     -3.311681     1.091997     1.388500
Gh(O)      0.694505    -1.649884    -3.009010
Gh(H)      1.348391    -1.016594    -3.241515
Gh(H)      0.489087    -1.363055    -2.138119
Gh(O)     -1.346088     2.952246    -0.232248
Gh(H)     -0.998482     2.049470    -0.375845
Gh(H)     -2.085144     2.836345     0.344825
O          1.132621     1.535541     2.844400
H          0.751306     1.043572     2.062688
H          1.972007     2.061134     2.749098

units ang
no_reorient
no_com
symmetry c1
}

set {
basis        aug-cc-pVTZ
scf_type     df
}

energy("mp2")
--------------------------------------------------------------------------

    Molecular point group: c1

    Geometry (in Angstrom), charge = 0, multiplicity = 1:

       Center              X                  Y                   Z               Mass
    ------------   -----------------  -----------------  -----------------  -----------------
      Gh(BR)          0.000000000000     0.000000000000     0.000000000000    78.918337600000
      Gh(O)           2.503250000000     1.309100000000    -1.941613000000    15.994914619570
      Gh(H)           1.693555000000     1.376407000000    -1.484593000000     1.007825032230
      Gh(H)           2.297101000000     0.825735000000    -2.742119000000     1.007825032230
      Gh(O)          -3.001212000000     0.171636000000     1.161661000000    15.994914619570
      Gh(H)          -2.095584000000     0.222145000000     0.811440000000     1.007825032230
      Gh(H)          -3.311681000000     1.091997000000     1.388500000000     1.007825032230
      Gh(O)           0.694505000000    -1.649884000000    -3.009010000000    15.994914619570
      Gh(H)           1.348391000000    -1.016594000000    -3.241515000000     1.007825032230
      Gh(H)           0.489087000000    -1.363055000000    -2.138119000000     1.007825032230
      Gh(O)          -1.346088000000     2.952246000000    -0.232248000000    15.994914619570
      Gh(H)          -0.998482000000     2.049470000000    -0.375845000000     1.007825032230
      Gh(H)          -2.085144000000     2.836345000000     0.344825000000     1.007825032230
         O            1.132621000000     1.535541000000     2.844400000000    15.994914619570
         H            0.751306000000     1.043572000000     2.062688000000     1.007825032230
         H            1.972007000000     2.061134000000     2.749098000000     1.007825032230

  Charge       = 0
  Multiplicity = 1
  Basis Set: AUG-CC-PVTZ
    Blend: AUG-CC-PVTZ
  Basis Set: (AUG-CC-PVTZ AUX)
    Blend: AUG-CC-PVTZ-JKFIT

    Orbital Energies [Eh]
    ---------------------

    Doubly Occupied:

       1A    -20.565532     2A     -1.323843     3A     -0.721690
       4A     -0.547530     5A     -0.501705

  @DF-RHF Final Energy:   -76.04905798257911

   => Energetics <=

    Nuclear Repulsion Energy =              8.7972286455203186
    One-Electron Energy =                -122.3719679556302964
    Two-Electron Energy =                  37.5256813275308616
    Total Energy =                        -76.0490579825791144
 Dipole X            :        -21.9557606           22.2690637            0.3133030
 Dipole Y            :        -29.0581353           29.0810596            0.0229243
 Dipole Z            :        -52.6937571           52.0940536           -0.5997035
 Magnitude           :                                                    0.6769997
  Basis Set: (AUG-CC-PVTZ AUX)
    Blend: AUG-CC-PVTZ-RI
	 Reference Energy          =     -76.0490579825791144 [Eh]
	 Singles Energy            =      -0.0000000000000000 [Eh]
	 Same-Spin Energy          =      -0.0690378942231918 [Eh]
	 Opposite-Spin Energy      =      -0.2173823242568184 [Eh]
	 Correlation Energy        =      -0.2864202184800103 [Eh]
	 Total Energy              =     -76.3354782010591180 [Eh]

	 ================> DF-SCS-MP2 Energies <==================
	-----------------------------------------------------------
	 SCS Same-Spin Scale       =       0.3333333333333333 [-]
	 SCS Opposite-Spin Scale   =       1.2000000000000000 [-]
	 SCS Same-Spin Energy      =      -0.0230126314077306 [Eh]
	 SCS Opposite-Spin Energy  =      -0.2608587891081821 [Eh]
	 SCS Correlation Energy    =      -0.2838714205159127 [Eh]
	 SCS Total Energy          =     -76.3329294030950223 [Eh]
	-----------------------------------------------------------

*** Psi4 exiting successfully. Buy a developer a beer!
