                               Psi4 1.8.2 release

  ==> Input File <==

--------------------------------------------------------------------------
MEMORY 60 GB

molecule dimer {
0 1
Gh(Br)     0.000000     0.000000     0.000000
Gh(O)      0.782416    -0.121722     3.451600
Gh(H)      0.936067    -0.092172     2.515779
Gh(H)      1.418512     0.518629     3.809706
O          1.279830    -3.033150    -0.407853
H          0.932121    -2.105125    -0.536490
H          0.609558    -3.519657    -0.884449
Gh(O)      1.071152     0.493703    -3.362487
Gh(H)      0.775103     0.547864    -2.430413
Gh(H)      1.344659     1.412062    -3.545358
Gh(O)      3.119203     1.381929    -0.509772
Gh(H)      2.304215     1.804893    -0.549245
Gh(H)      2.978825     0.669854     0.131836
Gh(O)     -2.613665     2.025634    -0.945890
Gh(H)     -1.791721     1.633691    -0.632163
Gh(H)     -3.281718     1.715110    -0.285048
Gh(O)      1.070902     3.348536    -0.645640
Gh(H)      1.491858     4.117923    -0.937238
Gh(H)      0.258142     3.643921    -0.280463

units ang
no_reorient
no_com
symmetry c1
}

set {
basis        aug-cc-pVTZ
scf_type     df
}

energy("mp2")
--------------------------------------------------------------------------

    Molecular point group: c1

    Geometry (in Angstrom), charge = 0, multiplicity = 1:

       Center              X                  Y                   Z               Mass
    ------------   -----------------  -----------------  -----------------  -----------------
      Gh(BR)          0.000000000000     0.000000000000     0.000000000000    78.918337600000
      Gh(O)           0.782416000000    -0.121722000000     3.451600000000    15.994914619570
      Gh(H)           0.936067000000    -0.092172000000     2.515779000000     1.007825032230
      Gh(H)           1.418512000000     0.518629000000     3.809706000000     1.007825032230
         O            1.279830000000    -3.033150000000    -0.407853000000    15.994914619570
         H            0.932121000000    -2.105125000000    -0.536490000000     1.007825032230
         H            0.609558000000    -3.519657000000    -0.884449000000     1.007825032230
      Gh(O)           1.071152000000     0.493703000000    -3.362487000000    15.994914619570
      Gh(H)           0.775103000000     0.547864000000    -2.430413000000     1.007825032230
      Gh(H)           1.344659000000     1.412062000000    -3.545358000000     1.007825032230
      Gh(O)           3.119203000000     1.381929000000    -0.509772000000    15.994914619570
      Gh(H)           2.304215000000     1.804893000000    -0.549245000000     1.007825032230
      Gh(H)           2.978825000000     0.669854000000     0.131836000000     1.007825032230
      Gh(O)          -2.613665000000     2.025634000000    -0.945890000000    15.994914619570
      Gh(H)          -1.791721000000     1.633691000000    -0.632163000000     1.007825032230
      Gh(H)          -3.281718000000     1.715110000000    -0.285048000000     1.007825032230
      Gh(O)           1.070902000000     3.348536000000    -0.645640000000    15.994914619570
      Gh(H)           1.491858000000     4.117923000000    -0.937238000000     1.007825032230
      Gh(H)           0.258142000000     3.643921000000    -0.280463000000     1.007825032230

  Charge       = 0
  Multiplicity = 1
  Basis Set: AUG-CC-PVTZ
    Blend: AUG-CC-PVTZ
  Basis Set: (AUG-CC-PVTZ AUX)
    Blend: AUG-CC-PVTZ-JKFIT

    Orbital Energies [Eh]
    ---------------------

    Doubly Occupied:

       1A    -20.572786     2A     -1.347371     3A     -0.697351
       4A     -0.590637     5A     -0.510267

  @DF-RHF Final Energy:   -76.05691409893053

   => Energetics <=

    Nuclear Repulsion Energy =              9.0211896827188038
    One-Electron Energy =                -122.7193802162095864
    Two-Electron Energy =                  37.6412764345602611
    Total Energy =                        -76.0569140989305197
 Dipole X            :        -22.9232477           22.2615766           -0.6616711
 Dipole Y            :         56.7621812          -56.4838799            0.2783013
 Dipole Z            :          8.4563330           -8.8510293           -0.3946963
 Magnitude           :                                                    0.8191737
  Basis Set: (AUG-CC-PVTZ AUX)
    Blend: AUG-CC-PVTZ-RI
	 Reference Energy          =     -76.0569140989305339 [Eh]
	 Singles Energy            =      -0.0000000000000000 [Eh]
	 Same-Spin Energy          =      -0.0688615710937050 [Eh]
	 Opposite-Spin Energy      =      -0.2171127703223163 [Eh]
	 Correlation Energy        =      -0.2859743414160213 [Eh]
	 Total Energy              =     -76.3428884403465560 [Eh]

	 ================> DF-SCS-MP2 Energies <==================
	-----------------------------------------------------------
	 SCS Same-Spin Scale       =       0.3333333333333333 [-]
	 SCS Opposite-Spin Scale   =       1.2000000000000000 [-]
	 SCS Same-Spin Energy      =      -0.0229538570312350 [Eh]
	 SCS Opposite-Spin Energy  =      -0.2605353243867796 [Eh]
	 SCS Correlation Energy    =      -0.2834891814180145 [Eh]
	 SCS Total Energy          =     -76.3404032803485535 [Eh]
	-----------------------------------------------------------

*** Psi4 exiting successfully. Buy a developer a beer!
