                               Psi4 1.8.2 release

  ==> Input File <==

--------------------------------------------------------------------------
MEMORY 60 GB

molecule dimer {
-1 1
Br         0.000000     0.000000     0.000000
O          1.521234     1.209788    -2.685367
H          2.096141     0.409973    -2.642532
H          1.413599     1.432485    -3.599181
O          2.137029    -0.858665     2.437340
H          1.531524    -0.762129     1.688950
H          1.596637    -0.978037     3.206662
O          1.238938     1.972390     2.398987
H          0.860966     1.485662     1.615154
H          1.150578     1.320561     3.162309
O          0.117012    -3.331974     0.636691
H          0.665240    -3.509200     1.434153
H          0.025395    -2.338891     0.576819
O         -1.361959    -0.368772     3.303538
H         -0.708171    -0.442974     3.989043
H         -0.893664    -0.189371     2.459854
O         -1.248477     2.143362    -2.447598
H         -0.346353     1.847909    -2.331410
H         -1.185038     2.892626    -1.867573

units ang
no_reorient
no_com
symmetry c1
}

set {
basis        aug-cc-pVTZ
scf_type     df
}

energy("mp2")
--------------------------------------------------------------------------

    Molecular point group: c1

    Geometry (in Angstrom), charge = -1, multiplicity = 1:

       Center              X                  Y                   Z               Mass
    ------------   -----------------  -----------------  -----------------  -----------------
         BR           0.000000000000     0.000000000000     0.000000000000    78.918337600000
         O            1.521234000000     1.209788000000    -2.685367000000    15.994914619570
         H            2.096141000000     0.409973000000    -2.642532000000     1.007825032230
         H            1.413599000000     1.432485000000    -3.599181000000     1.007825032230
         O            2.137029000000    -0.858665000000     2.437340000000    15.994914619570
         H            1.531524000000    -0.762129000000     1.688950000000     1.007825032230
         H            1.596637000000    -0.978037000000     3.206662000000     1.007825032230
         O            1.238938000000     1.972390000000     2.398987000000    15.994914619570
         H            0.860966000000     1.485662000000     1.615154000000     1.007825032230
         H            1.150578000000     1.320561000000     3.162309000000     1.007825032230
         O            0.117012000000    -3.331974000000     0.636691000000    15.994914619570
         H            0.665240000000    -3.509200000000     1.434153000000     1.007825032230
         H            0.025395000000    -2.338891000000     0.576819000000     1.007825032230
         O           -1.361959000000    -0.368772000000     3.303538000000    15.994914619570
         H           -0.708171000000    -0.442974000000     3.989043000000     1.007825032230
         H           -0.893664000000    -0.189371000000     2.459854000000     1.007825032230
         O           -1.248477000000     2.143362000000    -2.447598000000    15.994914619570
         H           -0.346353000000     1.847909000000    -2.331410000000     1.007825032230
         H           -1.185038000000     2.892626000000    -1.867573000000     1.007825032230

  Charge       = -1
  Multiplicity = 1
  Basis Set: AUG-CC-PVTZ
    Blend: AUG-CC-PVTZ
  Basis Set: (AUG-CC-PVTZ AUX)
    Blend: AUG-CC-PVTZ-JKFIT

    Orbital Energies [Eh]
    ---------------------

    Doubly Occupied:

       1A   -489.786939     2A    -64.927447     3A    -58.281928
       4A    -58.281924     5A    -58.281895     6A    -20.466358
       7A    -20.441019     8A    -20.432332     9A    -20.421663
      10A    -20.420360    11A    -20.414158    12A     -9.599837
      13A     -7.207436    14A     -7.207375    15A     -7.207089
      16A     -2.949121    17A     -2.949105    18A     -2.948777
      19A     -2.948723    20A     -2.948632    21A     -1.249771
      22A     -1.225661    23A     -1.222784    24A     -1.216738
      25A     -1.187763    26A     -1.176640    27A     -0.768143
      28A     -0.620511    29A     -0.596729    30A     -0.592798
      31A     -0.562044    32A     -0.555847    33A     -0.540402
      34A     -0.485021    35A     -0.466693    36A     -0.454383
      37A     -0.448298    38A     -0.434404    39A     -0.427849
      40A     -0.408776    41A     -0.385852    42A     -0.381060
      43A     -0.369853    44A     -0.359573    45A     -0.346619
      46A     -0.215766    47A     -0.214964    48A     -0.210617

  @DF-RHF Final Energy: -3028.91699998099375

   => Energetics <=

    Nuclear Repulsion Energy =            562.1621160208702577
    One-Electron Energy =               -5351.6628662178800369
    Two-Electron Energy =                1760.5837502160156873
    Total Energy =                      -3028.9169999809937508
 Dipole X            :        -47.3481462           48.0690957            0.7209495
 Dipole Y            :        -13.8305171           13.7905523           -0.0399648
 Dipole Z            :        -70.4525904           69.6193548           -0.8332356
 Magnitude           :                                                    1.1025638
  Basis Set: (AUG-CC-PVTZ AUX)
    Blend: AUG-CC-PVTZ-RI
	 Reference Energy          =   -3028.9169999809937508 [Eh]
	 Singles Energy            =      -0.0000000000000000 [Eh]
	 Same-Spin Energy          =      -0.5182050089168649 [Eh]
	 Opposite-Spin Energy      =      -1.5259862037161585 [Eh]
	 Correlation Energy        =      -2.0441912126330233 [Eh]
	 Total Energy              =   -3030.9611911936267461 [Eh]

	 ================> DF-SCS-MP2 Energies <==================
	-----------------------------------------------------------
	 SCS Same-Spin Scale       =       0.3333333333333333 [-]
	 SCS Opposite-Spin Scale   =       1.2000000000000000 [-]
	 SCS Same-Spin Energy      =      -0.1727350029722883 [Eh]
	 SCS Opposite-Spin Energy  =      -1.8311834444593900 [Eh]
	 SCS Correlation Energy    =      -2.0039184474316785 [Eh]
	 SCS Total Energy          =   -3030.9209184284254661 [Eh]
	-----------------------------------------------------------

*** Psi4 exiting successfully. Buy a developer a beer!
