                               Psi4 1.8.2 release

  ==> Input File <==

--------------------------------------------------------------------------
MEMORY 60 GB

molecule dimer {
-1 1
Br         0.000000     0.000000     0.000000
O          2.118565     1.377600    -2.222428
H          1.524510     1.021254    -1.485349
H          2.481666     0.625784    -2.731423
O          1.458491    -2.150671    -1.922163
H          0.842838    -1.646061    -1.317309
H          2.186106    -1.568774    -2.026988
O          1.457423     0.149191     3.119476
H          1.197132    -0.104181     2.235110
H          2.162739    -0.500210     3.388672
O         -0.225623    -2.782781     2.045966
H         -0.289413    -2.198172     2.800474
H         -0.483719    -2.262648     1.280829
O          3.373774    -0.713926     0.596505
H          3.202858    -1.598986     0.946685
H          2.570736    -0.305260     0.273215

units ang
no_reorient
no_com
symmetry c1
}

set {
basis        aug-cc-pVTZ
scf_type     df
}

energy("mp2")
--------------------------------------------------------------------------

    Molecular point group: c1

    Geometry (in Angstrom), charge = -1, multiplicity = 1:

       Center              X                  Y                   Z               Mass
    ------------   -----------------  -----------------  -----------------  -----------------
         BR           0.000000000000     0.000000000000     0.000000000000    78.918337600000
         O            2.118565000000     1.377600000000    -2.222428000000    15.994914619570
         H            1.524510000000     1.021254000000    -1.485349000000     1.007825032230
         H            2.481666000000     0.625784000000    -2.731423000000     1.007825032230
         O            1.458491000000    -2.150671000000    -1.922163000000    15.994914619570
         H            0.842838000000    -1.646061000000    -1.317309000000     1.007825032230
         H            2.186106000000    -1.568774000000    -2.026988000000     1.007825032230
         O            1.457423000000     0.149191000000     3.119476000000    15.994914619570
         H            1.197132000000    -0.104181000000     2.235110000000     1.007825032230
         H            2.162739000000    -0.500210000000     3.388672000000     1.007825032230
         O           -0.225623000000    -2.782781000000     2.045966000000    15.994914619570
         H           -0.289413000000    -2.198172000000     2.800474000000     1.007825032230
         H           -0.483719000000    -2.262648000000     1.280829000000     1.007825032230
         O            3.373774000000    -0.713926000000     0.596505000000    15.994914619570
         H            3.202858000000    -1.598986000000     0.946685000000     1.007825032230
         H            2.570736000000    -0.305260000000     0.273215000000     1.007825032230

  Charge       = -1
  Multiplicity = 1
  Basis Set: AUG-CC-PVTZ
    Blend: AUG-CC-PVTZ
  Basis Set: (AUG-CC-PVTZ AUX)
    Blend: AUG-CC-PVTZ-JKFIT

    Orbital Energies [Eh]
    ---------------------

    Doubly Occupied:

       1A   -489.804831     2A    -64.945386     3A    -58.299893
       4A    -58.299853     5A    -58.299837     6A    -20.432988
       7A    -20.432844     8A    -20.431412     9A    -20.427740
      10A    -20.416977    11A     -9.617814    12A     -7.225479
      13A     -7.225268    14A     -7.225170    15A     -2.967099
      16A     -2.967025    17A     -2.966923    18A     -2.966655
      19A     -2.966637    20A     -1.220822    21A     -1.216868
      22A     -1.208691    23A     -1.203802    24A     -1.193509
      25A     -0.786778    26A     -0.598785    27A     -0.590057
      28A     -0.576681    29A     -0.568947    30A     -0.564834
      31A     -0.455635    32A     -0.452799    33A     -0.450023
      34A     -0.439980    35A     -0.430754    36A     -0.385514
      37A     -0.379820    38A     -0.370478    39A     -0.366229
      40A     -0.361472    41A     -0.234275    42A     -0.231059
      43A     -0.230519

  @DF-RHF Final Energy: -2952.87705217131224

   => Energetics <=

    Nuclear Repulsion Energy =            456.5387392527835573
    One-Electron Energy =               -5033.9552452373363849
    Two-Electron Energy =                1624.5394538132404705
    Total Energy =                      -2952.8770521713122434
 Dipole X            :       -154.2891097          152.7966272           -1.4924825
 Dipole Y            :         78.7234573          -78.4273192            0.2961381
 Dipole Z            :        -30.6751089           30.8077590            0.1326501
 Magnitude           :                                                    1.5273499
  Basis Set: (AUG-CC-PVTZ AUX)
    Blend: AUG-CC-PVTZ-RI
	 Reference Energy          =   -2952.8770521713122434 [Eh]
	 Singles Energy            =      -0.0000000000000000 [Eh]
	 Same-Spin Energy          =      -0.4471497610843648 [Eh]
	 Opposite-Spin Energy      =      -1.3060721589831177 [Eh]
	 Correlation Energy        =      -1.7532219200674826 [Eh]
	 Total Energy              =   -2954.6302740913797606 [Eh]

	 ================> DF-SCS-MP2 Energies <==================
	-----------------------------------------------------------
	 SCS Same-Spin Scale       =       0.3333333333333333 [-]
	 SCS Opposite-Spin Scale   =       1.2000000000000000 [-]
	 SCS Same-Spin Energy      =      -0.1490499203614549 [Eh]
	 SCS Opposite-Spin Energy  =      -1.5672865907797411 [Eh]
	 SCS Correlation Energy    =      -1.7163365111411961 [Eh]
	 SCS Total Energy          =   -2954.5933886824532237 [Eh]
	-----------------------------------------------------------

*** Psi4 exiting successfully. Buy a developer a beer!
