                               Psi4 1.8.2 release

  ==> Input File <==

--------------------------------------------------------------------------
MEMORY 60 GB

molecule dimer {
0 1
Gh(Br)     0.000000     0.000000     0.000000
Gh(O)     -0.134210     2.411128    -2.072805
Gh(H)      0.609473     1.830673    -2.287997
Gh(H)     -0.403434     2.300933    -1.141755
O         -1.310303    -2.052809     2.019950
H         -0.550126    -2.646822     1.949115
H         -1.196439    -1.381497     1.375027
Gh(O)     -3.132579     0.001629    -1.095278
Gh(H)     -2.256450    -0.233826    -0.636847
Gh(H)     -2.985203    -0.177030    -2.038425

units ang
no_reorient
no_com
symmetry c1
}

set {
basis        aug-cc-pVTZ
scf_type     df
}

energy("mp2")
--------------------------------------------------------------------------

    Molecular point group: c1

    Geometry (in Angstrom), charge = 0, multiplicity = 1:

       Center              X                  Y                   Z               Mass
    ------------   -----------------  -----------------  -----------------  -----------------
      Gh(BR)          0.000000000000     0.000000000000     0.000000000000    78.918337600000
      Gh(O)          -0.134210000000     2.411128000000    -2.072805000000    15.994914619570
      Gh(H)           0.609473000000     1.830673000000    -2.287997000000     1.007825032230
      Gh(H)          -0.403434000000     2.300933000000    -1.141755000000     1.007825032230
         O           -1.310303000000    -2.052809000000     2.019950000000    15.994914619570
         H           -0.550126000000    -2.646822000000     1.949115000000     1.007825032230
         H           -1.196439000000    -1.381497000000     1.375027000000     1.007825032230
      Gh(O)          -3.132579000000     0.001629000000    -1.095278000000    15.994914619570
      Gh(H)          -2.256450000000    -0.233826000000    -0.636847000000     1.007825032230
      Gh(H)          -2.985203000000    -0.177030000000    -2.038425000000     1.007825032230

  Charge       = 0
  Multiplicity = 1
  Basis Set: AUG-CC-PVTZ
    Blend: AUG-CC-PVTZ
  Basis Set: (AUG-CC-PVTZ AUX)
    Blend: AUG-CC-PVTZ-JKFIT

    Orbital Energies [Eh]
    ---------------------

    Doubly Occupied:

       1A    -20.565138     2A     -1.354343     3A     -0.725385
       4A     -0.580690     5A     -0.510000

  @DF-RHF Final Energy:   -76.06047947250769

   => Energetics <=

    Nuclear Repulsion Energy =              9.2356795098426190
    One-Electron Energy =                -123.1212050235623536
    Two-Electron Energy =                  37.8250460412120191
    Total Energy =                        -76.0604794725077085
 Dipole X            :         23.6954742          -23.1094400            0.5860342
 Dipole Y            :         38.7026482          -38.6463940            0.0562541
 Dipole Z            :        -37.3023996           36.8189363           -0.4834633
 Magnitude           :                                                    0.7617988
  Basis Set: (AUG-CC-PVTZ AUX)
    Blend: AUG-CC-PVTZ-RI
	 Reference Energy          =     -76.0604794725076943 [Eh]
	 Singles Energy            =      -0.0000000000000000 [Eh]
	 Same-Spin Energy          =      -0.0682576811255478 [Eh]
	 Opposite-Spin Energy      =      -0.2154283035984975 [Eh]
	 Correlation Energy        =      -0.2836859847240453 [Eh]
	 Total Energy              =     -76.3441654572317390 [Eh]

	 ================> DF-SCS-MP2 Energies <==================
	-----------------------------------------------------------
	 SCS Same-Spin Scale       =       0.3333333333333333 [-]
	 SCS Opposite-Spin Scale   =       1.2000000000000000 [-]
	 SCS Same-Spin Energy      =      -0.0227525603751826 [Eh]
	 SCS Opposite-Spin Energy  =      -0.2585139643181970 [Eh]
	 SCS Correlation Energy    =      -0.2812665246933796 [Eh]
	 SCS Total Energy          =     -76.3417459972010732 [Eh]
	-----------------------------------------------------------

*** Psi4 exiting successfully. Buy a developer a beer!
