                               Psi4 1.8.2 release

  ==> Input File <==

--------------------------------------------------------------------------
MEMORY 60 GB

molecule dimer {
0 1
Gh(Br)     0.000000     0.000000     0.000000
Gh(O)     -0.379237     2.882694    -2.014268
Gh(H)      0.562370     3.245775    -1.893921
Gh(H)     -0.429436     2.146345    -1.405238
Gh(O)      0.265547    -2.152641    -2.556446
Gh(H)      0.109230    -1.512354    -1.853273
Gh(H)     -0.395724    -2.804868    -2.310221
O          2.476012     1.824756     1.189733
H          1.692344     1.651069     0.621015
H          2.748789     2.618981     0.811553
Gh(O)      2.562109    -2.156767    -0.903197
Gh(H)      2.064666    -2.905687    -1.220072
Gh(H)      1.839878    -1.556832    -0.648916

units ang
no_reorient
no_com
symmetry c1
}

set {
basis        aug-cc-pVTZ
scf_type     df
}

energy("mp2")
--------------------------------------------------------------------------

    Molecular point group: c1

    Geometry (in Angstrom), charge = 0, multiplicity = 1:

       Center              X                  Y                   Z               Mass
    ------------   -----------------  -----------------  -----------------  -----------------
      Gh(BR)          0.000000000000     0.000000000000     0.000000000000    78.918337600000
      Gh(O)          -0.379237000000     2.882694000000    -2.014268000000    15.994914619570
      Gh(H)           0.562370000000     3.245775000000    -1.893921000000     1.007825032230
      Gh(H)          -0.429436000000     2.146345000000    -1.405238000000     1.007825032230
      Gh(O)           0.265547000000    -2.152641000000    -2.556446000000    15.994914619570
      Gh(H)           0.109230000000    -1.512354000000    -1.853273000000     1.007825032230
      Gh(H)          -0.395724000000    -2.804868000000    -2.310221000000     1.007825032230
         O            2.476012000000     1.824756000000     1.189733000000    15.994914619570
         H            1.692344000000     1.651069000000     0.621015000000     1.007825032230
         H            2.748789000000     2.618981000000     0.811553000000     1.007825032230
      Gh(O)           2.562109000000    -2.156767000000    -0.903197000000    15.994914619570
      Gh(H)           2.064666000000    -2.905687000000    -1.220072000000     1.007825032230
      Gh(H)           1.839878000000    -1.556832000000    -0.648916000000     1.007825032230

  Charge       = 0
  Multiplicity = 1
  Basis Set: AUG-CC-PVTZ
    Blend: AUG-CC-PVTZ
  Basis Set: (AUG-CC-PVTZ AUX)
    Blend: AUG-CC-PVTZ-JKFIT

    Orbital Energies [Eh]
    ---------------------

    Doubly Occupied:

       1A    -20.568537     2A     -1.361515     3A     -0.709014
       4A     -0.597015     5A     -0.512507

  @DF-RHF Final Energy:   -76.05748927401963

   => Energetics <=

    Nuclear Repulsion Energy =              9.2661003546147143
    One-Electron Energy =                -123.1500021187587492
    Two-Electron Energy =                  37.8264124901244259
    Total Energy =                        -76.0574892740196162
 Dipole X            :        -46.1510760           45.8244016           -0.3266744
 Dipole Y            :        -35.2390779           35.6555377            0.4164599
 Dipole Z            :        -21.3140371           20.6933174           -0.6207196
 Magnitude           :                                                    0.8157499
  Basis Set: (AUG-CC-PVTZ AUX)
    Blend: AUG-CC-PVTZ-RI
	 Reference Energy          =     -76.0574892740196304 [Eh]
	 Singles Energy            =      -0.0000000000000000 [Eh]
	 Same-Spin Energy          =      -0.0684226570605182 [Eh]
	 Opposite-Spin Energy      =      -0.2156371206187345 [Eh]
	 Correlation Energy        =      -0.2840597776792527 [Eh]
	 Total Energy              =     -76.3415490516988768 [Eh]

	 ================> DF-SCS-MP2 Energies <==================
	-----------------------------------------------------------
	 SCS Same-Spin Scale       =       0.3333333333333333 [-]
	 SCS Opposite-Spin Scale   =       1.2000000000000000 [-]
	 SCS Same-Spin Energy      =      -0.0228075523535061 [Eh]
	 SCS Opposite-Spin Energy  =      -0.2587645447424814 [Eh]
	 SCS Correlation Energy    =      -0.2815720970959875 [Eh]
	 SCS Total Energy          =     -76.3390613711156192 [Eh]
	-----------------------------------------------------------

*** Psi4 exiting successfully. Buy a developer a beer!
