                               Psi4 1.8.2 release

  ==> Input File <==

--------------------------------------------------------------------------
MEMORY 60 GB

molecule dimer {
-1 1
Br         0.000000     0.000000     0.000000
O         -2.021869    -2.179823     1.217412
H         -2.921871    -1.867399     1.198558
H         -1.513540    -1.451927     0.815047
O         -2.961999     0.929139    -1.272353
H         -2.728774     1.887839    -1.108211
H         -2.207349     0.482925    -0.838278
O         -2.117015     1.588878     2.246208
H         -1.423790     1.453822     1.551659
H         -1.773078     0.949786     2.896329
O         -0.330378    -1.158355    -3.243256
H         -0.343064    -0.673188    -2.378621
H         -0.323750    -2.040751    -2.892653

units ang
no_reorient
no_com
symmetry c1
}

set {
basis        aug-cc-pVTZ
scf_type     df
}

energy("mp2")
--------------------------------------------------------------------------

    Molecular point group: c1

    Geometry (in Angstrom), charge = -1, multiplicity = 1:

       Center              X                  Y                   Z               Mass
    ------------   -----------------  -----------------  -----------------  -----------------
         BR           0.000000000000     0.000000000000     0.000000000000    78.918337600000
         O           -2.021869000000    -2.179823000000     1.217412000000    15.994914619570
         H           -2.921871000000    -1.867399000000     1.198558000000     1.007825032230
         H           -1.513540000000    -1.451927000000     0.815047000000     1.007825032230
         O           -2.961999000000     0.929139000000    -1.272353000000    15.994914619570
         H           -2.728774000000     1.887839000000    -1.108211000000     1.007825032230
         H           -2.207349000000     0.482925000000    -0.838278000000     1.007825032230
         O           -2.117015000000     1.588878000000     2.246208000000    15.994914619570
         H           -1.423790000000     1.453822000000     1.551659000000     1.007825032230
         H           -1.773078000000     0.949786000000     2.896329000000     1.007825032230
         O           -0.330378000000    -1.158355000000    -3.243256000000    15.994914619570
         H           -0.343064000000    -0.673188000000    -2.378621000000     1.007825032230
         H           -0.323750000000    -2.040751000000    -2.892653000000     1.007825032230

  Charge       = -1
  Multiplicity = 1
  Basis Set: AUG-CC-PVTZ
    Blend: AUG-CC-PVTZ
  Basis Set: (AUG-CC-PVTZ AUX)
    Blend: AUG-CC-PVTZ-JKFIT

    Orbital Energies [Eh]
    ---------------------

    Doubly Occupied:

       1A   -489.794953     2A    -64.935475     3A    -58.289963
       4A    -58.289956     5A    -58.289926     6A    -20.432320
       7A    -20.419218     8A    -20.417910     9A    -20.410779
      10A     -9.607918    11A     -7.215492    12A     -7.215447
      13A     -7.215256    14A     -2.957143    15A     -2.957139
      16A     -2.956909    17A     -2.956862    18A     -2.956790
      19A     -1.207315    20A     -1.201407    21A     -1.198247
      22A     -1.189418    23A     -0.775448    24A     -0.562302
      25A     -0.553804    26A     -0.548180    27A     -0.544054
      28A     -0.459889    29A     -0.449886    30A     -0.440764
      31A     -0.437290    32A     -0.373889    33A     -0.362335
      34A     -0.357952    35A     -0.356514    36A     -0.222470
      37A     -0.222411    38A     -0.219422

  @DF-RHF Final Energy: -2876.81297423207980

   => Energetics <=

    Nuclear Repulsion Energy =            338.8067440500706766
    One-Electron Energy =               -4693.2345244670104876
    Two-Electron Energy =                1477.6148061848596171
    Total Energy =                      -2876.8129742320797959
 Dipole X            :        139.2327276         -137.3553179            1.8774097
 Dipole Y            :         15.1280646          -14.7780003            0.3500643
 Dipole Z            :         18.2641159          -17.3327230            0.9313929
 Magnitude           :                                                    2.1247835
  Basis Set: (AUG-CC-PVTZ AUX)
    Blend: AUG-CC-PVTZ-RI
	 Reference Energy          =   -2876.8129742320797959 [Eh]
	 Singles Energy            =      -0.0000000000000000 [Eh]
	 Same-Spin Energy          =      -0.3759729541910207 [Eh]
	 Opposite-Spin Energy      =      -1.0874173270853451 [Eh]
	 Correlation Energy        =      -1.4633902812763657 [Eh]
	 Total Energy              =   -2878.2763645133563841 [Eh]

	 ================> DF-SCS-MP2 Energies <==================
	-----------------------------------------------------------
	 SCS Same-Spin Scale       =       0.3333333333333333 [-]
	 SCS Opposite-Spin Scale   =       1.2000000000000000 [-]
	 SCS Same-Spin Energy      =      -0.1253243180636736 [Eh]
	 SCS Opposite-Spin Energy  =      -1.3049007925024141 [Eh]
	 SCS Correlation Energy    =      -1.4302251105660877 [Eh]
	 SCS Total Energy          =   -2878.2431993426457666 [Eh]
	-----------------------------------------------------------

*** Psi4 exiting successfully. Buy a developer a beer!
