                               Psi4 1.8.2 release

  ==> Input File <==

--------------------------------------------------------------------------
MEMORY 60 GB

molecule dimer {
-1 1
Br         0.000000     0.000000     0.000000
O          0.907598    -3.034016    -0.451314
H          0.892890    -2.061947    -0.424380
H          1.171918    -3.349880     0.408425
O          2.003620    -0.060569     2.713891
H          1.339719     0.557371     2.425223
H          2.579032     0.542567     3.258704
O          1.853817     0.385000    -2.659522
H          2.431046    -0.410080    -2.411062
H          1.417523     0.543139    -1.862559
O          0.164337     3.154937    -0.854991
H          0.250547     2.315141    -0.320131
H          1.066341     3.225957    -1.078370

units ang
no_reorient
no_com
symmetry c1
}

set {
basis        aug-cc-pVTZ
scf_type     df
}

energy("mp2")
--------------------------------------------------------------------------

    Molecular point group: c1

    Geometry (in Angstrom), charge = -1, multiplicity = 1:

       Center              X                  Y                   Z               Mass
    ------------   -----------------  -----------------  -----------------  -----------------
         BR           0.000000000000     0.000000000000     0.000000000000    78.918337600000
         O            0.907598000000    -3.034016000000    -0.451314000000    15.994914619570
         H            0.892890000000    -2.061947000000    -0.424380000000     1.007825032230
         H            1.171918000000    -3.349880000000     0.408425000000     1.007825032230
         O            2.003620000000    -0.060569000000     2.713891000000    15.994914619570
         H            1.339719000000     0.557371000000     2.425223000000     1.007825032230
         H            2.579032000000     0.542567000000     3.258704000000     1.007825032230
         O            1.853817000000     0.385000000000    -2.659522000000    15.994914619570
         H            2.431046000000    -0.410080000000    -2.411062000000     1.007825032230
         H            1.417523000000     0.543139000000    -1.862559000000     1.007825032230
         O            0.164337000000     3.154937000000    -0.854991000000    15.994914619570
         H            0.250547000000     2.315141000000    -0.320131000000     1.007825032230
         H            1.066341000000     3.225957000000    -1.078370000000     1.007825032230

  Charge       = -1
  Multiplicity = 1
  Basis Set: AUG-CC-PVTZ
    Blend: AUG-CC-PVTZ
  Basis Set: (AUG-CC-PVTZ AUX)
    Blend: AUG-CC-PVTZ-JKFIT

    Orbital Energies [Eh]
    ---------------------

    Doubly Occupied:

       1A   -489.774040     2A    -64.914658     3A    -58.269152
       4A    -58.269139     5A    -58.269073     6A    -20.445990
       7A    -20.411835     8A    -20.410235     9A    -20.402282
      10A     -9.587216    11A     -7.194944    12A     -7.194767
      13A     -7.194401    14A     -2.936648    15A     -2.936631
      16A     -2.936169    17A     -2.935990    18A     -2.935883
      19A     -1.223056    20A     -1.200371    21A     -1.197046
      22A     -1.188660    23A     -0.755422    24A     -0.574711
      25A     -0.563695    26A     -0.552659    27A     -0.541678
      28A     -0.465416    29A     -0.447783    30A     -0.438803
      31A     -0.422418    32A     -0.385393    33A     -0.357577
      34A     -0.355821    35A     -0.350194    36A     -0.204274
      37A     -0.201737    38A     -0.197284

  @DF-RHF Final Energy: -2876.79429957332286

   => Energetics <=

    Nuclear Repulsion Energy =            336.5802501415410006
    One-Electron Energy =               -4689.4629947719449774
    Two-Electron Energy =                1476.0884450570813442
    Total Energy =                      -2876.7942995733228599
 Dipole X            :        -95.3844661           95.5898912            0.2054251
 Dipole Y            :         -9.1579256            9.3070599            0.1491343
 Dipole Z            :         20.7197397          -18.9343717            1.7853680
 Magnitude           :                                                    1.8033245
  Basis Set: (AUG-CC-PVTZ AUX)
    Blend: AUG-CC-PVTZ-RI
	 Reference Energy          =   -2876.7942995733228599 [Eh]
	 Singles Energy            =      -0.0000000000000000 [Eh]
	 Same-Spin Energy          =      -0.3748477606661677 [Eh]
	 Opposite-Spin Energy      =      -1.0845910584790057 [Eh]
	 Correlation Energy        =      -1.4594388191451735 [Eh]
	 Total Energy              =   -2878.2537383924682217 [Eh]

	 ================> DF-SCS-MP2 Energies <==================
	-----------------------------------------------------------
	 SCS Same-Spin Scale       =       0.3333333333333333 [-]
	 SCS Opposite-Spin Scale   =       1.2000000000000000 [-]
	 SCS Same-Spin Energy      =      -0.1249492535553892 [Eh]
	 SCS Opposite-Spin Energy  =      -1.3015092701748068 [Eh]
	 SCS Correlation Energy    =      -1.4264585237301961 [Eh]
	 SCS Total Energy          =   -2878.2207580970530216 [Eh]
	-----------------------------------------------------------

*** Psi4 exiting successfully. Buy a developer a beer!
