                               Psi4 1.8.2 release

  ==> Input File <==

--------------------------------------------------------------------------
MEMORY 60 GB

molecule dimer {
-1 1
Br         0.000000     0.000000     0.000000
O          1.214755     2.032402     2.352565
H          0.843379     1.290858     1.788319
H          2.176535     2.115299     2.233161
O         -1.899098     2.893105     0.263373
H         -2.377616     3.120026    -0.530168
H         -1.651951     1.952131     0.230723
O          1.184394     2.722133    -1.786102
H          0.888960     1.954533    -1.303810
H          0.985690     3.441294    -1.194986
O         -3.316529    -1.099441    -0.081057
H         -2.506499    -0.600404    -0.183707
H         -3.485828    -1.108557     0.900656

units ang
no_reorient
no_com
symmetry c1
}

set {
basis        aug-cc-pVTZ
scf_type     df
}

energy("mp2")
--------------------------------------------------------------------------

    Molecular point group: c1

    Geometry (in Angstrom), charge = -1, multiplicity = 1:

       Center              X                  Y                   Z               Mass
    ------------   -----------------  -----------------  -----------------  -----------------
         BR           0.000000000000     0.000000000000     0.000000000000    78.918337600000
         O            1.214755000000     2.032402000000     2.352565000000    15.994914619570
         H            0.843379000000     1.290858000000     1.788319000000     1.007825032230
         H            2.176535000000     2.115299000000     2.233161000000     1.007825032230
         O           -1.899098000000     2.893105000000     0.263373000000    15.994914619570
         H           -2.377616000000     3.120026000000    -0.530168000000     1.007825032230
         H           -1.651951000000     1.952131000000     0.230723000000     1.007825032230
         O            1.184394000000     2.722133000000    -1.786102000000    15.994914619570
         H            0.888960000000     1.954533000000    -1.303810000000     1.007825032230
         H            0.985690000000     3.441294000000    -1.194986000000     1.007825032230
         O           -3.316529000000    -1.099441000000    -0.081057000000    15.994914619570
         H           -2.506499000000    -0.600404000000    -0.183707000000     1.007825032230
         H           -3.485828000000    -1.108557000000     0.900656000000     1.007825032230

  Charge       = -1
  Multiplicity = 1
  Basis Set: AUG-CC-PVTZ
    Blend: AUG-CC-PVTZ
  Basis Set: (AUG-CC-PVTZ AUX)
    Blend: AUG-CC-PVTZ-JKFIT

    Orbital Energies [Eh]
    ---------------------

    Doubly Occupied:

       1A   -489.786101     2A    -64.926473     3A    -58.280987
       4A    -58.280964     5A    -58.280930     6A    -20.429458
       7A    -20.421697     8A    -20.411960     9A    -20.411788
      10A     -9.598795    11A     -7.206399    12A     -7.206246
      13A     -7.206138    14A     -2.948055    15A     -2.948021
      16A     -2.947860    17A     -2.947674    18A     -2.947653
      19A     -1.205646    20A     -1.205136    21A     -1.204135
      22A     -1.181397    23A     -0.763490    24A     -0.581571
      25A     -0.570427    26A     -0.566352    27A     -0.560880
      28A     -0.446361    29A     -0.441040    30A     -0.435218
      31A     -0.417955    32A     -0.371575    33A     -0.368400
      34A     -0.359324    35A     -0.352846    36A     -0.213705
      37A     -0.211318    38A     -0.210642

  @DF-RHF Final Energy: -2876.81609559723984

   => Energetics <=

    Nuclear Repulsion Energy =            329.4534292973413585
    One-Electron Energy =               -4674.8298134748329176
    Two-Electron Energy =                1468.5602885802513811
    Total Energy =                      -2876.8160955972402917
 Dipole X            :         52.8314500          -52.2682259            0.5632241
 Dipole Y            :       -123.2824981          121.9832803           -1.2992179
 Dipole Z            :        -14.8643010           14.9863219            0.1220208
 Magnitude           :                                                    1.4212943
  Basis Set: (AUG-CC-PVTZ AUX)
    Blend: AUG-CC-PVTZ-RI
	 Reference Energy          =   -2876.8160955972398369 [Eh]
	 Singles Energy            =      -0.0000000000000000 [Eh]
	 Same-Spin Energy          =      -0.3731072736124684 [Eh]
	 Opposite-Spin Energy      =      -1.0821657720604809 [Eh]
	 Correlation Energy        =      -1.4552730456729492 [Eh]
	 Total Energy              =   -2878.2713686429128757 [Eh]

	 ================> DF-SCS-MP2 Energies <==================
	-----------------------------------------------------------
	 SCS Same-Spin Scale       =       0.3333333333333333 [-]
	 SCS Opposite-Spin Scale   =       1.2000000000000000 [-]
	 SCS Same-Spin Energy      =      -0.1243690912041561 [Eh]
	 SCS Opposite-Spin Energy  =      -1.2985989264725770 [Eh]
	 SCS Correlation Energy    =      -1.4229680176767332 [Eh]
	 SCS Total Energy          =   -2878.2390636149166312 [Eh]
	-----------------------------------------------------------

*** Psi4 exiting successfully. Buy a developer a beer!
