                               Psi4 1.9 release

  ==> Input File <==

--------------------------------------------------------------------------
MEMORY 60 GB

molecule dimer {
-1 1
Br     0.000000     0.000000     0.000000
--
0 1
O     -2.333005    -2.573527    -0.291127
H     -3.133171    -2.528310     0.371069
H     -1.787717    -1.837861    -0.137174
O      1.371021     2.985621    -0.728227
H      1.616172     3.427381     0.066995
H      1.180208     2.097681    -0.432288
O     -2.377910     2.369996     0.456820
H     -1.695206     2.554222     1.124779
H     -1.990682     1.663103    -0.153605
O     -2.461469    -0.687997     2.047974
H     -1.760234    -0.273058     1.493838
H     -3.296296    -0.283233     1.747665
O     -0.226095     0.748349    -3.395531
H      0.694620     0.580593    -3.071989
H     -0.938329     0.679073    -2.701236

units ang
no_reorient
no_com
symmetry c1
}

set {
basis        aug-cc-pVTZ
scf_type     df
}

energy("mp2", bsse_type="cp")
--------------------------------------------------------------------------

                               Psi4 1.9 release
    Molecular point group: c1
  Charge       = 0
  Multiplicity = 1
  Basis Set: AUG-CC-PVTZ
    Blend: AUG-CC-PVTZ
  Basis Set: (AUG-CC-PVTZ AUX)
    Blend: AUG-CC-PVTZ-JKFIT
  @DF-RHF Final Energy:  -380.26944420995289
    Total Energy =                       -380.2694442099528942
 Dipole X            :        112.7067591         -112.1180161            0.5887431
 Dipole Y            :        -54.0527324           54.4602572            0.4075248
 Dipole Z            :         33.5397157          -32.0737055            1.4660102
 Magnitude           :                                                    1.6315272
  Basis Set: (AUG-CC-PVTZ AUX)
    Blend: AUG-CC-PVTZ-RI
	 Reference Energy          =    -380.2694442099528942 [Eh]
	 Singles Energy            =      -0.0000000000000000 [Eh]
	 Same-Spin Energy          =      -0.3457818579813273 [Eh]
	 Opposite-Spin Energy      =      -1.0866861371432004 [Eh]
	 Correlation Energy        =      -1.4324679951245276 [Eh]
	 Total Energy              =    -381.7019122050774058 [Eh]
	 SCS Total Energy          =    -381.6887281938518299 [Eh]
                               Psi4 1.9 release
    Molecular point group: c1
  Multiplicity = 1
  Basis Set: AUG-CC-PVTZ
    Blend: AUG-CC-PVTZ
  Basis Set: (AUG-CC-PVTZ AUX)
    Blend: AUG-CC-PVTZ-JKFIT
  @DF-RHF Final Energy: -2572.53372658081798
    Total Energy =                      -2572.5337265808179836
  Basis Set: (AUG-CC-PVTZ AUX)
	 Singles Energy            =      -0.0000000000000000 [Eh]
	 Same-Spin Energy          =      -0.0909792507002497 [Eh]
	 Opposite-Spin Energy      =      -0.2116809113279205 [Eh]
	 Correlation Energy        =      -0.3026601620281703 [Eh]
	 Total Energy              =   -2572.8363867428461162 [Eh]
	 SCS Total Energy          =   -2572.8180700913117107 [Eh]
                               Psi4 1.9 release
    Molecular point group: c1

    Geometry (in Bohr), charge = -1, multiplicity = 1:

       Center              X                  Y                   Z               Mass
    ------------   -----------------  -----------------  -----------------  -----------------
         BR           0.000000000000     0.000000000000     0.000000000000    78.918337600000
         O           -4.408740499324    -4.863261206471    -0.550150297726    15.994914619570
         H           -5.920835094227    -4.777813460256     0.701218783648     1.007825032230
         H           -3.378295519825    -3.473053946660    -0.259221291534     1.007825032230
         O            2.590854202251     5.642006004416    -1.376149587164    15.994914619570
         H            3.054122451633     6.476811417598     0.126602201775     1.007825032230
         H            2.230269891074     3.964042588577    -0.816905927322     1.007825032230
         O           -4.493598650987     4.478643358431     0.863264688632    15.994914619570
         H           -3.203475066233     4.826780043619     2.125524261666     1.007825032230
         H           -3.761843782879     3.142809188427    -0.290271381501     1.007825032230
         O           -4.651502276305    -1.300125905137     3.870109972058    15.994914619570
         H           -3.326360176719    -0.516004836365     2.822944695802     1.007825032230
         H           -6.229096668442    -0.535232799692     3.302608209048     1.007825032230
         O           -0.427257628335     1.414174656260    -6.416623640502    15.994914619570
         H            1.312641561266     1.097161760358    -5.805217870419     1.007825032230
         H           -1.773184825575     1.283261989193    -5.104596240227     1.007825032230

  Charge       = -1
  Multiplicity = 1
  Basis Set: AUG-CC-PVTZ
    Blend: AUG-CC-PVTZ
  Basis Set: (AUG-CC-PVTZ AUX)
    Blend: AUG-CC-PVTZ-JKFIT

    Orbital Energies [Eh]
    ---------------------

    Doubly Occupied:

       1A   -489.797412     2A    -64.937957     3A    -58.292471
       4A    -58.292420     5A    -58.292406     6A    -20.433945
       7A    -20.426854     8A    -20.425597     9A    -20.424388
      10A    -20.418375    11A     -9.610403    12A     -7.218141
      13A     -7.217783    14A     -7.217761    15A     -2.959756
      16A     -2.959622    17A     -2.959591    18A     -2.959170
      19A     -2.959163    20A     -1.222928    21A     -1.204701
      22A     -1.200787    23A     -1.190420    24A     -1.186857
      25A     -0.777809    26A     -0.584822    27A     -0.575286
      28A     -0.571615    29A     -0.569035    30A     -0.560866
      31A     -0.456337    32A     -0.449090    33A     -0.443037
      34A     -0.433568    35A     -0.421048    36A     -0.377525
      37A     -0.372677    38A     -0.364888    39A     -0.362927
      40A     -0.358282    41A     -0.229029    42A     -0.222683
      43A     -0.221833

  @DF-RHF Final Energy: -2952.86214069874768

   => Energetics <=

    Nuclear Repulsion Energy =            445.8262496079252060
    One-Electron Energy =               -5013.0542500967421802
    Two-Electron Energy =                1614.3658597900694076
    Total Energy =                      -2952.8621406987476803
 Dipole X            :        113.3784618         -112.1180161            1.2604458
 Dipole Y            :        -54.4706491           54.4602572           -0.0103919
 Dipole Z            :         33.5002258          -32.0737055            1.4265203
 Magnitude           :                                                    1.9036259
  Basis Set: (AUG-CC-PVTZ AUX)
    Blend: AUG-CC-PVTZ-RI
	 Reference Energy          =   -2952.8621406987476803 [Eh]
	 Singles Energy            =      -0.0000000000000000 [Eh]
	 Same-Spin Energy          =      -0.4460229882259408 [Eh]
	 Opposite-Spin Energy      =      -1.3051609695477615 [Eh]
	 Correlation Energy        =      -1.7511839577737023 [Eh]
	 Total Energy              =   -2954.6133246565213994 [Eh]

	 ================> DF-SCS-MP2 Energies <==================
	-----------------------------------------------------------
	 SCS Same-Spin Scale       =       0.3333333333333333 [-]
	 SCS Opposite-Spin Scale   =       1.2000000000000000 [-]
	 SCS Same-Spin Energy      =      -0.1486743294086469 [Eh]
	 SCS Opposite-Spin Energy  =      -1.5661931634573139 [Eh]
	 SCS Correlation Energy    =      -1.7148674928659609 [Eh]
	 SCS Total Energy          =   -2954.5770081916134586 [Eh]
	-----------------------------------------------------------

*** Psi4 exiting successfully. Buy a developer a beer!
