                               Psi4 1.8.2 release

  ==> Input File <==

--------------------------------------------------------------------------
MEMORY 60 GB

molecule dimer {
0 1
Gh(Br)     0.000000     0.000000     0.000000
Gh(O)     -0.134210     2.411128    -2.072805
Gh(H)      0.609473     1.830673    -2.287997
Gh(H)     -0.403434     2.300933    -1.141755
Gh(O)     -1.310303    -2.052809     2.019950
Gh(H)     -0.550126    -2.646822     1.949115
Gh(H)     -1.196439    -1.381497     1.375027
O         -3.132579     0.001629    -1.095278
H         -2.256450    -0.233826    -0.636847
H         -2.985203    -0.177030    -2.038425

units ang
no_reorient
no_com
symmetry c1
}

set {
basis        aug-cc-pVTZ
scf_type     df
}

energy("mp2")
--------------------------------------------------------------------------

    Molecular point group: c1

    Geometry (in Angstrom), charge = 0, multiplicity = 1:

       Center              X                  Y                   Z               Mass
    ------------   -----------------  -----------------  -----------------  -----------------
      Gh(BR)          0.000000000000     0.000000000000     0.000000000000    78.918337600000
      Gh(O)          -0.134210000000     2.411128000000    -2.072805000000    15.994914619570
      Gh(H)           0.609473000000     1.830673000000    -2.287997000000     1.007825032230
      Gh(H)          -0.403434000000     2.300933000000    -1.141755000000     1.007825032230
      Gh(O)          -1.310303000000    -2.052809000000     2.019950000000    15.994914619570
      Gh(H)          -0.550126000000    -2.646822000000     1.949115000000     1.007825032230
      Gh(H)          -1.196439000000    -1.381497000000     1.375027000000     1.007825032230
         O           -3.132579000000     0.001629000000    -1.095278000000    15.994914619570
         H           -2.256450000000    -0.233826000000    -0.636847000000     1.007825032230
         H           -2.985203000000    -0.177030000000    -2.038425000000     1.007825032230

  Charge       = 0
  Multiplicity = 1
  Basis Set: AUG-CC-PVTZ
    Blend: AUG-CC-PVTZ
  Basis Set: (AUG-CC-PVTZ AUX)
    Blend: AUG-CC-PVTZ-JKFIT

    Orbital Energies [Eh]
    ---------------------

    Doubly Occupied:

       1A    -20.572932     2A     -1.335363     3A     -0.699891
       4A     -0.576077     5A     -0.507253

  @DF-RHF Final Energy:   -76.05501945085751

   => Energetics <=

    Nuclear Repulsion Energy =              8.8587164163989591
    One-Electron Energy =                -122.4444355015252341
    Two-Electron Energy =                  37.5306996342687640
    Total Energy =                        -76.0550194508575146
 Dipole X            :         57.9270974          -57.2630196            0.6640778
 Dipole Y            :          0.4817614           -0.7517784           -0.2700170
 Dipole Z            :         21.2911426          -21.6137350           -0.3225924
 Magnitude           :                                                    0.7861134
  Basis Set: (AUG-CC-PVTZ AUX)
    Blend: AUG-CC-PVTZ-RI
	 Reference Energy          =     -76.0550194508575146 [Eh]
	 Singles Energy            =      -0.0000000000000000 [Eh]
	 Same-Spin Energy          =      -0.0689975675923235 [Eh]
	 Opposite-Spin Energy      =      -0.2176111799317423 [Eh]
	 Correlation Energy        =      -0.2866087475240658 [Eh]
	 Total Energy              =     -76.3416281983815850 [Eh]

	 ================> DF-SCS-MP2 Energies <==================
	-----------------------------------------------------------
	 SCS Same-Spin Scale       =       0.3333333333333333 [-]
	 SCS Opposite-Spin Scale   =       1.2000000000000000 [-]
	 SCS Same-Spin Energy      =      -0.0229991891974412 [Eh]
	 SCS Opposite-Spin Energy  =      -0.2611334159180908 [Eh]
	 SCS Correlation Energy    =      -0.2841326051155320 [Eh]
	 SCS Total Energy          =     -76.3391520559730452 [Eh]
	-----------------------------------------------------------

*** Psi4 exiting successfully. Buy a developer a beer!
