                               Psi4 1.8.2 release

  ==> Input File <==

--------------------------------------------------------------------------
MEMORY 60 GB

molecule dimer {
-1 1
Br         0.000000     0.000000     0.000000
Gh(O)     -2.781824     0.954914     1.546349
Gh(H)     -2.079798     0.629798     0.983421
Gh(H)     -2.569173     1.860935     1.801428
Gh(O)      0.417110     1.164103     2.920605
Gh(H)     -0.279275     0.933093     3.573898
Gh(H)      0.289615     0.628287     2.138627
Gh(O)     -1.161290     3.255151    -0.272712
Gh(H)     -0.718022     2.402898    -0.139574
Gh(H)     -0.489651     3.796101    -0.744628
Gh(O)      3.058295     1.334047    -0.433045
Gh(H)      2.146353     1.140968    -0.250352
Gh(H)      3.046948     2.024410    -1.133360
Gh(O)     -1.361860     1.474861    -2.856186
Gh(H)     -1.202291     1.027410    -1.978617
Gh(H)     -0.871594     2.343189    -2.876970

units ang
no_reorient
no_com
symmetry c1
}

set {
basis        aug-cc-pVTZ
scf_type     df
}

energy("mp2")
--------------------------------------------------------------------------

    Molecular point group: c1

    Geometry (in Angstrom), charge = -1, multiplicity = 1:

       Center              X                  Y                   Z               Mass
    ------------   -----------------  -----------------  -----------------  -----------------
         BR           0.000000000000     0.000000000000     0.000000000000    78.918337600000
      Gh(O)          -2.781824000000     0.954914000000     1.546349000000    15.994914619570
      Gh(H)          -2.079798000000     0.629798000000     0.983421000000     1.007825032230
      Gh(H)          -2.569173000000     1.860935000000     1.801428000000     1.007825032230
      Gh(O)           0.417110000000     1.164103000000     2.920605000000    15.994914619570
      Gh(H)          -0.279275000000     0.933093000000     3.573898000000     1.007825032230
      Gh(H)           0.289615000000     0.628287000000     2.138627000000     1.007825032230
      Gh(O)          -1.161290000000     3.255151000000    -0.272712000000    15.994914619570
      Gh(H)          -0.718022000000     2.402898000000    -0.139574000000     1.007825032230
      Gh(H)          -0.489651000000     3.796101000000    -0.744628000000     1.007825032230
      Gh(O)           3.058295000000     1.334047000000    -0.433045000000    15.994914619570
      Gh(H)           2.146353000000     1.140968000000    -0.250352000000     1.007825032230
      Gh(H)           3.046948000000     2.024410000000    -1.133360000000     1.007825032230
      Gh(O)          -1.361860000000     1.474861000000    -2.856186000000    15.994914619570
      Gh(H)          -1.202291000000     1.027410000000    -1.978617000000     1.007825032230
      Gh(H)          -0.871594000000     2.343189000000    -2.876970000000     1.007825032230

  Charge       = -1
  Multiplicity = 1
  Basis Set: AUG-CC-PVTZ
    Blend: AUG-CC-PVTZ
  Basis Set: (AUG-CC-PVTZ AUX)
    Blend: AUG-CC-PVTZ-JKFIT

    Orbital Energies [Eh]
    ---------------------

    Doubly Occupied:

       1A   -489.722369     2A    -64.861910     3A    -58.216450
       4A    -58.216450     5A    -58.216448     6A     -9.533330
       7A     -7.140661     8A     -7.140650     9A     -7.140646
      10A     -2.882378    11A     -2.882369    12A     -2.882362
      13A     -2.882347    14A     -2.882326    15A     -0.685991
      16A     -0.139336    17A     -0.139332    18A     -0.139331

  @DF-RHF Final Energy: -2572.53373343862040

   => Energetics <=

    Nuclear Repulsion Energy =              0.0000000000000000
    One-Electron Energy =               -3593.6580962621142135
    Two-Electron Energy =                1021.1243628234940388
    Total Energy =                      -2572.5337334386204020
 Dipole X            :         -0.0000301            0.0000000           -0.0000301
 Dipole Y            :          0.0002213            0.0000000            0.0002213
 Dipole Z            :          0.0000912            0.0000000            0.0000912
 Magnitude           :                                                    0.0002412
  Basis Set: (AUG-CC-PVTZ AUX)
    Blend: AUG-CC-PVTZ-RI
	 Reference Energy          =   -2572.5337334386204020 [Eh]
	 Singles Energy            =      -0.0000000000000000 [Eh]
	 Same-Spin Energy          =      -0.0917109438849166 [Eh]
	 Opposite-Spin Energy      =      -0.2136237327442872 [Eh]
	 Correlation Energy        =      -0.3053346766292038 [Eh]
	 Total Energy              =   -2572.8390681152495745 [Eh]

	 ================> DF-SCS-MP2 Energies <==================
	-----------------------------------------------------------
	 SCS Same-Spin Scale       =       0.3333333333333333 [-]
	 SCS Opposite-Spin Scale   =       1.2000000000000000 [-]
	 SCS Same-Spin Energy      =      -0.0305703146283055 [Eh]
	 SCS Opposite-Spin Energy  =      -0.2563484792931446 [Eh]
	 SCS Correlation Energy    =      -0.2869187939214502 [Eh]
	 SCS Total Energy          =   -2572.8206522325417609 [Eh]
	-----------------------------------------------------------

*** Psi4 exiting successfully. Buy a developer a beer!
