                               Psi4 1.8.2 release

  ==> Input File <==

--------------------------------------------------------------------------
MEMORY 60 GB

molecule dimer {
-1 1
Br         0.000000     0.000000     0.000000
O         -0.039065     1.360465    -3.062156
H         -0.212638     0.478259    -3.493798
H          0.045206     1.278611    -2.107441
O         -2.989528     1.408932     0.945248
H         -2.062048     1.043559     0.850710
H         -2.903099     2.019723     1.687443
O         -2.974629    -1.593570    -0.781374
H         -2.231751    -1.030002    -0.687159
H         -2.758326    -2.380343    -0.265965
O          0.721300     2.711650     2.171943
H          1.708723     2.884228     1.993117
H          0.459653     1.920161     1.656005

units ang
no_reorient
no_com
symmetry c1
}

set {
basis        aug-cc-pVTZ
scf_type     df
}

energy("mp2")
--------------------------------------------------------------------------

    Molecular point group: c1

    Geometry (in Angstrom), charge = -1, multiplicity = 1:

       Center              X                  Y                   Z               Mass
    ------------   -----------------  -----------------  -----------------  -----------------
         BR           0.000000000000     0.000000000000     0.000000000000    78.918337600000
         O           -0.039065000000     1.360465000000    -3.062156000000    15.994914619570
         H           -0.212638000000     0.478259000000    -3.493798000000     1.007825032230
         H            0.045206000000     1.278611000000    -2.107441000000     1.007825032230
         O           -2.989528000000     1.408932000000     0.945248000000    15.994914619570
         H           -2.062048000000     1.043559000000     0.850710000000     1.007825032230
         H           -2.903099000000     2.019723000000     1.687443000000     1.007825032230
         O           -2.974629000000    -1.593570000000    -0.781374000000    15.994914619570
         H           -2.231751000000    -1.030002000000    -0.687159000000     1.007825032230
         H           -2.758326000000    -2.380343000000    -0.265965000000     1.007825032230
         O            0.721300000000     2.711650000000     2.171943000000    15.994914619570
         H            1.708723000000     2.884228000000     1.993117000000     1.007825032230
         H            0.459653000000     1.920161000000     1.656005000000     1.007825032230

  Charge       = -1
  Multiplicity = 1
  Basis Set: AUG-CC-PVTZ
    Blend: AUG-CC-PVTZ
  Basis Set: (AUG-CC-PVTZ AUX)
    Blend: AUG-CC-PVTZ-JKFIT

    Orbital Energies [Eh]
    ---------------------

    Doubly Occupied:

       1A   -489.787994     2A    -64.928358     3A    -58.282866
       4A    -58.282843     5A    -58.282830     6A    -20.435375
       7A    -20.414441     8A    -20.412981     9A    -20.412539
      10A     -9.600668    11A     -7.208237    12A     -7.208139
      13A     -7.208028    14A     -2.949888    15A     -2.949859
      16A     -2.949725    17A     -2.949590    18A     -2.949570
      19A     -1.205379    20A     -1.196281    21A     -1.187807
      22A     -1.186175    23A     -0.764965    24A     -0.572736
      25A     -0.568406    26A     -0.566811    27A     -0.547193
      28A     -0.440345    29A     -0.438015    30A     -0.431833
      31A     -0.420878    32A     -0.372189    33A     -0.361531
      34A     -0.355803    35A     -0.353551    36A     -0.215238
      37A     -0.213976    38A     -0.211743

  @DF-RHF Final Energy: -2876.80911779791768

   => Energetics <=

    Nuclear Repulsion Energy =            325.8835475330112672
    One-Electron Energy =               -4667.7357575877913405
    Two-Electron Energy =                1465.0430922568621099
    Total Energy =                      -2876.8091177979176791
 Dipole X            :         97.0181774          -94.8824987            2.1356787
 Dipole Y            :        -71.9303424           70.5132633           -1.4170791
 Dipole Z            :         12.4043342          -11.6743501            0.7299842
 Magnitude           :                                                    2.6649791
  Basis Set: (AUG-CC-PVTZ AUX)
    Blend: AUG-CC-PVTZ-RI
	 Reference Energy          =   -2876.8091177979176791 [Eh]
	 Singles Energy            =      -0.0000000000000000 [Eh]
	 Same-Spin Energy          =      -0.3733231710897757 [Eh]
	 Opposite-Spin Energy      =      -1.0835698483123919 [Eh]
	 Correlation Energy        =      -1.4568930194021676 [Eh]
	 Total Energy              =   -2878.2660108173199660 [Eh]

	 ================> DF-SCS-MP2 Energies <==================
	-----------------------------------------------------------
	 SCS Same-Spin Scale       =       0.3333333333333333 [-]
	 SCS Opposite-Spin Scale   =       1.2000000000000000 [-]
	 SCS Same-Spin Energy      =      -0.1244410570299252 [Eh]
	 SCS Opposite-Spin Energy  =      -1.3002838179748701 [Eh]
	 SCS Correlation Energy    =      -1.4247248750047954 [Eh]
	 SCS Total Energy          =   -2878.2338426729224921 [Eh]
	-----------------------------------------------------------

*** Psi4 exiting successfully. Buy a developer a beer!
