                               Psi4 1.8.2 release

  ==> Input File <==

--------------------------------------------------------------------------
MEMORY 60 GB

molecule dimer {
-1 1
Br         0.000000     0.000000     0.000000
O          1.746665    -1.522862     2.344313
H          1.302761    -1.244800     1.535866
H          1.477658    -0.946620     3.043779
O         -0.155414     2.367422     2.373797
H          0.139736     1.933532     1.509779
H          0.044268     3.347623     2.380588
O         -0.953764    -2.860809     1.638351
H         -0.679006    -1.912495     1.469971
H         -1.756172    -2.763420     2.109332
O          2.595437     2.106666    -1.112278
H          3.150772     2.235622    -0.338113
H          1.872541     1.501902    -0.905209
O         -3.071740    -0.470450    -1.805587
H         -2.939395    -1.394781    -2.194465
H         -2.208285    -0.394983    -1.343831

units ang
no_reorient
no_com
symmetry c1
}

set {
basis        aug-cc-pVTZ
scf_type     df
}

energy("mp2")
--------------------------------------------------------------------------

    Molecular point group: c1

    Geometry (in Angstrom), charge = -1, multiplicity = 1:

       Center              X                  Y                   Z               Mass
    ------------   -----------------  -----------------  -----------------  -----------------
         BR           0.000000000000     0.000000000000     0.000000000000    78.918337600000
         O            1.746665000000    -1.522862000000     2.344313000000    15.994914619570
         H            1.302761000000    -1.244800000000     1.535866000000     1.007825032230
         H            1.477658000000    -0.946620000000     3.043779000000     1.007825032230
         O           -0.155414000000     2.367422000000     2.373797000000    15.994914619570
         H            0.139736000000     1.933532000000     1.509779000000     1.007825032230
         H            0.044268000000     3.347623000000     2.380588000000     1.007825032230
         O           -0.953764000000    -2.860809000000     1.638351000000    15.994914619570
         H           -0.679006000000    -1.912495000000     1.469971000000     1.007825032230
         H           -1.756172000000    -2.763420000000     2.109332000000     1.007825032230
         O            2.595437000000     2.106666000000    -1.112278000000    15.994914619570
         H            3.150772000000     2.235622000000    -0.338113000000     1.007825032230
         H            1.872541000000     1.501902000000    -0.905209000000     1.007825032230
         O           -3.071740000000    -0.470450000000    -1.805587000000    15.994914619570
         H           -2.939395000000    -1.394781000000    -2.194465000000     1.007825032230
         H           -2.208285000000    -0.394983000000    -1.343831000000     1.007825032230

  Charge       = -1
  Multiplicity = 1
  Basis Set: AUG-CC-PVTZ
    Blend: AUG-CC-PVTZ
  Basis Set: (AUG-CC-PVTZ AUX)
    Blend: AUG-CC-PVTZ-JKFIT

    Orbital Energies [Eh]
    ---------------------

    Doubly Occupied:

       1A   -489.800213     2A    -64.940698     3A    -58.295203
       4A    -58.295183     5A    -58.295164     6A    -20.438856
       7A    -20.436672     8A    -20.431113     9A    -20.420715
      10A    -20.408374    11A     -9.613034    12A     -7.220681
      13A     -7.220582    14A     -7.220325    15A     -2.962350
      16A     -2.962328    17A     -2.962050    18A     -2.961904
      19A     -2.961847    20A     -1.214428    21A     -1.206248
      22A     -1.203004    23A     -1.199869    24A     -1.193320
      25A     -0.780198    26A     -0.593242    27A     -0.580046
      28A     -0.572057    29A     -0.562064    30A     -0.549327
      31A     -0.458003    32A     -0.445560    33A     -0.443867
      34A     -0.432583    35A     -0.430326    36A     -0.376874
      37A     -0.374679    38A     -0.372465    39A     -0.371689
      40A     -0.351115    41A     -0.229725    42A     -0.227961
      43A     -0.223750

  @DF-RHF Final Energy: -2952.86927530020330

   => Energetics <=

    Nuclear Repulsion Energy =            430.2610042380773052
    One-Electron Energy =               -4981.7811670911924011
    Two-Electron Energy =                1598.6508875529111720
    Total Energy =                      -2952.8692753002037534
 Dipole X            :         -3.2619689            3.2018575           -0.0601114
 Dipole Y            :          5.7701237           -5.0619791            0.7081445
 Dipole Z            :        -65.8294077           65.7179945           -0.1114132
 Magnitude           :                                                    0.7193712
  Basis Set: (AUG-CC-PVTZ AUX)
    Blend: AUG-CC-PVTZ-RI
	 Reference Energy          =   -2952.8692753002032987 [Eh]
	 Singles Energy            =      -0.0000000000000000 [Eh]
	 Same-Spin Energy          =      -0.4456849410105934 [Eh]
	 Opposite-Spin Energy      =      -1.3050015587808992 [Eh]
	 Correlation Energy        =      -1.7506864997914926 [Eh]
	 Total Energy              =   -2954.6199617999945986 [Eh]

	 ================> DF-SCS-MP2 Energies <==================
	-----------------------------------------------------------
	 SCS Same-Spin Scale       =       0.3333333333333333 [-]
	 SCS Opposite-Spin Scale   =       1.2000000000000000 [-]
	 SCS Same-Spin Energy      =      -0.1485616470035311 [Eh]
	 SCS Opposite-Spin Energy  =      -1.5660018705370791 [Eh]
	 SCS Correlation Energy    =      -1.7145635175406102 [Eh]
	 SCS Total Energy          =   -2954.5838388177439811 [Eh]
	-----------------------------------------------------------

*** Psi4 exiting successfully. Buy a developer a beer!
