                               Psi4 1.9 release

  ==> Input File <==

--------------------------------------------------------------------------
MEMORY 60 GB

molecule dimer {
-1 1
Br     0.000000     0.000000     0.000000
--
0 1
O      2.124652     1.964937     2.121179
H      2.172793     1.368654     2.868479
H      1.679122     1.413724     1.418976
O      0.104991     3.249169    -0.182748
H     -0.717800     3.852559    -0.190945
H     -0.198510     2.348694    -0.321779
O      2.981573    -1.290363     1.136769
H      2.140404    -0.909703     0.930704
H      3.672272    -0.882775     0.618927
O     -2.479840     1.517813     1.775784
H     -2.172611     0.572932     1.816703
H     -2.115363     1.956989     2.554860

units ang
no_reorient
no_com
symmetry c1
}

set {
basis        aug-cc-pVTZ
scf_type     df
}

energy("mp2", bsse_type="cp")
--------------------------------------------------------------------------

                               Psi4 1.9 release
    Molecular point group: c1
  Charge       = 0
  Multiplicity = 1
  Basis Set: AUG-CC-PVTZ
    Blend: AUG-CC-PVTZ
  Basis Set: (AUG-CC-PVTZ AUX)
    Blend: AUG-CC-PVTZ-JKFIT
  @DF-RHF Final Energy:  -304.22748902735611
    Total Energy =                       -304.2274890273561141
 Dipole X            :        -50.3583770           49.7211794           -0.6371977
 Dipole Y            :       -101.3145915          100.6345718           -0.6800197
 Dipole Z            :        -91.6302401           91.6588924            0.0286522
 Magnitude           :                                                    0.9323458
  Basis Set: (AUG-CC-PVTZ AUX)
    Blend: AUG-CC-PVTZ-RI
	 Reference Energy          =    -304.2274890273561141 [Eh]
	 Singles Energy            =      -0.0000000000000000 [Eh]
	 Same-Spin Energy          =      -0.2757360547324809 [Eh]
	 Opposite-Spin Energy      =      -0.8672659299636398 [Eh]
	 Correlation Energy        =      -1.1430019846961206 [Eh]
	 Total Energy              =    -305.3704910120522413 [Eh]
	 SCS Total Energy          =    -305.3601201615566652 [Eh]
                               Psi4 1.9 release
    Molecular point group: c1
  Multiplicity = 1
  Basis Set: AUG-CC-PVTZ
    Blend: AUG-CC-PVTZ
  Basis Set: (AUG-CC-PVTZ AUX)
    Blend: AUG-CC-PVTZ-JKFIT
  @DF-RHF Final Energy: -2572.53371398139234
    Total Energy =                      -2572.5337139813923386
  Basis Set: (AUG-CC-PVTZ AUX)
	 Singles Energy            =      -0.0000000000000000 [Eh]
	 Same-Spin Energy          =      -0.0900119025574914 [Eh]
	 Opposite-Spin Energy      =      -0.2093431964374249 [Eh]
	 Correlation Energy        =      -0.2993550989949164 [Eh]
	 Total Energy              =   -2572.8330690803873040 [Eh]
	 SCS Total Energy          =   -2572.8149297846362060 [Eh]
                               Psi4 1.9 release
    Molecular point group: c1

    Geometry (in Bohr), charge = -1, multiplicity = 1:

       Center              X                  Y                   Z               Mass
    ------------   -----------------  -----------------  -----------------  -----------------
         BR           0.000000000000     0.000000000000     0.000000000000    78.918337600000
         O            4.015010391906     3.713192783779     4.008447373073    15.994914619570
         H            4.105983697312     2.586381220512     5.420639706627     1.007825032230
         H            3.173080711231     2.671551176987     2.681476018598     1.007825032230
         O            0.198404235638     6.140039545328    -0.345343669975    15.994914619570
         H           -1.356445412854     7.280281392168    -0.360833755026     1.007825032230
         H           -0.375129533165     4.438388412506    -0.608074182924     1.007825032230
         O            5.634356393060    -2.438432672424     2.148182077911    15.994914619570
         H            4.044777357834    -1.719089525507     1.758775663868     1.007825032230
         H            6.939588338187    -1.668202980401     1.169602521651     1.007825032230
         O           -4.686218434955     2.868250879660     3.355745417970    15.994914619570
         H           -4.105639767157     1.082684568511     3.433071121298     1.007825032230
         H           -3.997456725927     3.698173240534     4.827985688887     1.007825032230

  Charge       = -1
  Multiplicity = 1
  Basis Set: AUG-CC-PVTZ
    Blend: AUG-CC-PVTZ
  Basis Set: (AUG-CC-PVTZ AUX)
    Blend: AUG-CC-PVTZ-JKFIT

    Orbital Energies [Eh]
    ---------------------

    Doubly Occupied:

       1A   -489.770951     2A    -64.911319     3A    -58.265837
       4A    -58.265818     5A    -58.265757     6A    -20.432923
       7A    -20.413319     8A    -20.410480     9A    -20.404265
      10A     -9.583677    11A     -7.191314    12A     -7.191177
      13A     -7.190922    14A     -2.933042    15A     -2.933016
      16A     -2.932673    17A     -2.932504    18A     -2.932428
      19A     -1.205803    20A     -1.205353    21A     -1.186921
      22A     -1.171933    23A     -0.747440    24A     -0.586937
      25A     -0.573398    26A     -0.548452    27A     -0.541774
      28A     -0.443542    29A     -0.433708    30A     -0.427850
      31A     -0.411689    32A     -0.373956    33A     -0.365029
      34A     -0.351635    35A     -0.341418    36A     -0.199247
      37A     -0.196783    38A     -0.192914

  @DF-RHF Final Energy: -2876.79888967855732

   => Energetics <=

    Nuclear Repulsion Energy =            332.9968779478431316
    One-Electron Energy =               -4682.6571225091602173
    Two-Electron Energy =                1472.8613548827602244
    Total Energy =                      -2876.7988896785568613
 Dipole X            :        -50.7455846           49.7211794           -1.0244053
 Dipole Y            :       -101.7689066          100.6345718           -1.1343348
 Dipole Z            :        -92.1099107           91.6588924           -0.4510183
 Magnitude           :                                                    1.5935931
  Basis Set: (AUG-CC-PVTZ AUX)
    Blend: AUG-CC-PVTZ-RI
	 Reference Energy          =   -2876.7988896785573161 [Eh]
	 Singles Energy            =      -0.0000000000000000 [Eh]
	 Same-Spin Energy          =      -0.3730484056023016 [Eh]
	 Opposite-Spin Energy      =      -1.0825071041703931 [Eh]
	 Correlation Energy        =      -1.4555555097726947 [Eh]
	 Total Energy              =   -2878.2544451883300098 [Eh]

	 ================> DF-SCS-MP2 Energies <==================
	-----------------------------------------------------------
	 SCS Same-Spin Scale       =       0.3333333333333333 [-]
	 SCS Opposite-Spin Scale   =       1.2000000000000000 [-]
	 SCS Same-Spin Energy      =      -0.1243494685341005 [Eh]
	 SCS Opposite-Spin Energy  =      -1.2990085250044716 [Eh]
	 SCS Correlation Energy    =      -1.4233579935385721 [Eh]
	 SCS Total Energy          =   -2878.2222476720958184 [Eh]
	-----------------------------------------------------------

*** Psi4 exiting successfully. Buy a developer a beer!
