                               Psi4 1.8.2 release

  ==> Input File <==

--------------------------------------------------------------------------
MEMORY 60 GB

molecule dimer {
-1 1
Br         0.000000     0.000000     0.000000
O         -2.482245     0.431698    -2.183327
H         -1.655939     0.265964    -1.667076
H         -3.230451     0.292324    -1.603838
O          0.162468     2.602185    -2.062760
H          0.057853     1.916729    -1.447029
H          0.378926     2.126170    -2.867373
O          2.925195     1.607543     0.753982
H          3.427561     1.760867    -0.069839
H          2.058998     1.436778     0.427908
O          2.391839    -0.819196    -2.219117
H          1.654438    -0.575889    -1.629627
H          1.934968    -1.167604    -3.010764

units ang
no_reorient
no_com
symmetry c1
}

set {
basis        aug-cc-pVTZ
scf_type     df
}

energy("mp2")
--------------------------------------------------------------------------

    Molecular point group: c1

    Geometry (in Angstrom), charge = -1, multiplicity = 1:

       Center              X                  Y                   Z               Mass
    ------------   -----------------  -----------------  -----------------  -----------------
         BR           0.000000000000     0.000000000000     0.000000000000    78.918337600000
         O           -2.482245000000     0.431698000000    -2.183327000000    15.994914619570
         H           -1.655939000000     0.265964000000    -1.667076000000     1.007825032230
         H           -3.230451000000     0.292324000000    -1.603838000000     1.007825032230
         O            0.162468000000     2.602185000000    -2.062760000000    15.994914619570
         H            0.057853000000     1.916729000000    -1.447029000000     1.007825032230
         H            0.378926000000     2.126170000000    -2.867373000000     1.007825032230
         O            2.925195000000     1.607543000000     0.753982000000    15.994914619570
         H            3.427561000000     1.760867000000    -0.069839000000     1.007825032230
         H            2.058998000000     1.436778000000     0.427908000000     1.007825032230
         O            2.391839000000    -0.819196000000    -2.219117000000    15.994914619570
         H            1.654438000000    -0.575889000000    -1.629627000000     1.007825032230
         H            1.934968000000    -1.167604000000    -3.010764000000     1.007825032230

  Charge       = -1
  Multiplicity = 1
  Basis Set: AUG-CC-PVTZ
    Blend: AUG-CC-PVTZ
  Basis Set: (AUG-CC-PVTZ AUX)
    Blend: AUG-CC-PVTZ-JKFIT

    Orbital Energies [Eh]
    ---------------------

    Doubly Occupied:

       1A   -489.788431     2A    -64.928918     3A    -58.283419
       4A    -58.283392     5A    -58.283375     6A    -20.425595
       7A    -20.414705     8A    -20.414027     9A    -20.409996
      10A     -9.601324    11A     -7.208936    12A     -7.208786
      13A     -7.208688    14A     -2.950547    15A     -2.950515
      16A     -2.950410    17A     -2.950218    18A     -2.950199
      19A     -1.210749    20A     -1.203126    21A     -1.202140
      22A     -1.194859    23A     -0.768612    24A     -0.572386
      25A     -0.568749    26A     -0.563637    27A     -0.560675
      28A     -0.447266    29A     -0.444074    30A     -0.440683
      31A     -0.431434    32A     -0.368553    33A     -0.365378
      34A     -0.359927    35A     -0.354794    36A     -0.216969
      37A     -0.215458    38A     -0.213416

  @DF-RHF Final Energy: -2876.81588867205392

   => Energetics <=

    Nuclear Repulsion Energy =            339.2847241177726119
    One-Electron Energy =               -4694.3724834343956900
    Two-Electron Energy =                1478.2718706445696171
    Total Energy =                      -2876.8158886720539158
 Dipole X            :        -55.1570290           54.0545009           -1.1025282
 Dipole Y            :        -70.6303384           69.2266754           -1.4036629
 Dipole Z            :        109.2915166         -108.7677489            0.5237676
 Magnitude           :                                                    1.8601534
  Basis Set: (AUG-CC-PVTZ AUX)
    Blend: AUG-CC-PVTZ-RI
	 Reference Energy          =   -2876.8158886720539158 [Eh]
	 Singles Energy            =      -0.0000000000000000 [Eh]
	 Same-Spin Energy          =      -0.3744237233958525 [Eh]
	 Opposite-Spin Energy      =      -1.0839728384856699 [Eh]
	 Correlation Energy        =      -1.4583965618815224 [Eh]
	 Total Energy              =   -2878.2742852339356432 [Eh]

	 ================> DF-SCS-MP2 Energies <==================
	-----------------------------------------------------------
	 SCS Same-Spin Scale       =       0.3333333333333333 [-]
	 SCS Opposite-Spin Scale   =       1.2000000000000000 [-]
	 SCS Same-Spin Energy      =      -0.1248079077986175 [Eh]
	 SCS Opposite-Spin Energy  =      -1.3007674061828038 [Eh]
	 SCS Correlation Energy    =      -1.4255753139814213 [Eh]
	 SCS Total Energy          =   -2878.2414639860353418 [Eh]
	-----------------------------------------------------------

*** Psi4 exiting successfully. Buy a developer a beer!
