                               Psi4 1.8.2 release

  ==> Input File <==

--------------------------------------------------------------------------
MEMORY 60 GB

molecule dimer {
-1 1
Br         0.000000     0.000000     0.000000
Gh(O)      2.465274    -2.082896    -1.151644
Gh(H)      2.088415    -1.327484    -0.739582
Gh(H)      3.392014    -2.150807    -0.795133
Gh(O)     -2.741984    -0.795186    -1.139633
Gh(H)     -3.050808    -1.748838    -1.012684
Gh(H)     -1.833173    -0.702090    -0.816427
Gh(O)     -1.323507     2.305848    -2.078266
Gh(H)     -1.377126     1.531047    -1.554944
Gh(H)     -2.005493     2.942304    -1.677368
Gh(O)     -1.653707     2.630529     1.100887
Gh(H)     -0.964169     2.021284     0.768719
Gh(H)     -1.213494     3.129397     1.794661

units ang
no_reorient
no_com
symmetry c1
}

set {
basis        aug-cc-pVTZ
scf_type     df
}

energy("mp2")
--------------------------------------------------------------------------

    Molecular point group: c1

    Geometry (in Angstrom), charge = -1, multiplicity = 1:

       Center              X                  Y                   Z               Mass
    ------------   -----------------  -----------------  -----------------  -----------------
         BR           0.000000000000     0.000000000000     0.000000000000    78.918337600000
      Gh(O)           2.465274000000    -2.082896000000    -1.151644000000    15.994914619570
      Gh(H)           2.088415000000    -1.327484000000    -0.739582000000     1.007825032230
      Gh(H)           3.392014000000    -2.150807000000    -0.795133000000     1.007825032230
      Gh(O)          -2.741984000000    -0.795186000000    -1.139633000000    15.994914619570
      Gh(H)          -3.050808000000    -1.748838000000    -1.012684000000     1.007825032230
      Gh(H)          -1.833173000000    -0.702090000000    -0.816427000000     1.007825032230
      Gh(O)          -1.323507000000     2.305848000000    -2.078266000000    15.994914619570
      Gh(H)          -1.377126000000     1.531047000000    -1.554944000000     1.007825032230
      Gh(H)          -2.005493000000     2.942304000000    -1.677368000000     1.007825032230
      Gh(O)          -1.653707000000     2.630529000000     1.100887000000    15.994914619570
      Gh(H)          -0.964169000000     2.021284000000     0.768719000000     1.007825032230
      Gh(H)          -1.213494000000     3.129397000000     1.794661000000     1.007825032230

  Charge       = -1
  Multiplicity = 1
  Basis Set: AUG-CC-PVTZ
    Blend: AUG-CC-PVTZ
  Basis Set: (AUG-CC-PVTZ AUX)
    Blend: AUG-CC-PVTZ-JKFIT

    Orbital Energies [Eh]
    ---------------------

    Doubly Occupied:

       1A   -489.722007     2A    -64.861642     3A    -58.216173
       4A    -58.216171     5A    -58.216169     6A     -9.533240
       7A     -7.140589     8A     -7.140564     9A     -7.140554
      10A     -2.882286    11A     -2.882276    12A     -2.882263
      13A     -2.882258    14A     -2.882247    15A     -0.685992
      16A     -0.139339    17A     -0.139334    18A     -0.139332

  @DF-RHF Final Energy: -2572.53372311761086

   => Energetics <=

    Nuclear Repulsion Energy =              0.0000000000000000
    One-Electron Energy =               -3593.6625713871167136
    Two-Electron Energy =                1021.1288482695056246
    Total Energy =                      -2572.5337231176108617
 Dipole X            :         -0.0000233            0.0000000           -0.0000233
 Dipole Y            :          0.0001480            0.0000000            0.0001480
 Dipole Z            :         -0.0004010            0.0000000           -0.0004010
 Magnitude           :                                                    0.0004281
  Basis Set: (AUG-CC-PVTZ AUX)
    Blend: AUG-CC-PVTZ-RI
	 Reference Energy          =   -2572.5337231176108617 [Eh]
	 Singles Energy            =      -0.0000000000000000 [Eh]
	 Same-Spin Energy          =      -0.0908848840988713 [Eh]
	 Opposite-Spin Energy      =      -0.2116720804657682 [Eh]
	 Correlation Energy        =      -0.3025569645646395 [Eh]
	 Total Energy              =   -2572.8362800821755627 [Eh]

	 ================> DF-SCS-MP2 Energies <==================
	-----------------------------------------------------------
	 SCS Same-Spin Scale       =       0.3333333333333333 [-]
	 SCS Opposite-Spin Scale   =       1.2000000000000000 [-]
	 SCS Same-Spin Energy      =      -0.0302949613662904 [Eh]
	 SCS Opposite-Spin Energy  =      -0.2540064965589218 [Eh]
	 SCS Correlation Energy    =      -0.2843014579252122 [Eh]
	 SCS Total Energy          =   -2572.8180245755361284 [Eh]
	-----------------------------------------------------------

*** Psi4 exiting successfully. Buy a developer a beer!
