                               Psi4 1.8.2 release

  ==> Input File <==

--------------------------------------------------------------------------
MEMORY 60 GB

molecule dimer {
0 1
Gh(Br)     0.000000     0.000000     0.000000
O         -2.018814     1.297243     2.271203
H         -1.624924     1.929481     2.858206
H         -1.319651     1.058009     1.655548
Gh(O)      2.992256     0.142962     1.185442
Gh(H)      2.076229    -0.027513     0.900949
Gh(H)      3.011154     0.890364     1.822388
Gh(O)      1.638357    -0.919045    -3.055647
Gh(H)      2.042760    -0.288329    -3.647520
Gh(H)      1.415696    -0.537243    -2.199502

units ang
no_reorient
no_com
symmetry c1
}

set {
basis        aug-cc-pVTZ
scf_type     df
}

energy("mp2")
--------------------------------------------------------------------------

    Molecular point group: c1

    Geometry (in Angstrom), charge = 0, multiplicity = 1:

       Center              X                  Y                   Z               Mass
    ------------   -----------------  -----------------  -----------------  -----------------
      Gh(BR)          0.000000000000     0.000000000000     0.000000000000    78.918337600000
         O           -2.018814000000     1.297243000000     2.271203000000    15.994914619570
         H           -1.624924000000     1.929481000000     2.858206000000     1.007825032230
         H           -1.319651000000     1.058009000000     1.655548000000     1.007825032230
      Gh(O)           2.992256000000     0.142962000000     1.185442000000    15.994914619570
      Gh(H)           2.076229000000    -0.027513000000     0.900949000000     1.007825032230
      Gh(H)           3.011154000000     0.890364000000     1.822388000000     1.007825032230
      Gh(O)           1.638357000000    -0.919045000000    -3.055647000000    15.994914619570
      Gh(H)           2.042760000000    -0.288329000000    -3.647520000000     1.007825032230
      Gh(H)           1.415696000000    -0.537243000000    -2.199502000000     1.007825032230

  Charge       = 0
  Multiplicity = 1
  Basis Set: AUG-CC-PVTZ
    Blend: AUG-CC-PVTZ
  Basis Set: (AUG-CC-PVTZ AUX)
    Blend: AUG-CC-PVTZ-JKFIT

    Orbital Energies [Eh]
    ---------------------

    Doubly Occupied:

       1A    -20.566560     2A     -1.354333     3A     -0.720109
       4A     -0.584213     5A     -0.510376

  @DF-RHF Final Energy:   -76.06070614923308

   => Energetics <=

    Nuclear Repulsion Energy =              9.2142652677577974
    One-Electron Energy =                -123.0787590539436849
    Two-Electron Energy =                  37.8037876369528121
    Total Energy =                        -76.0607061492330843
 Dipole X            :         36.8139530          -36.0844848            0.7294683
 Dipole Y            :        -24.9932138           25.2570098            0.2637960
 Dipole Z            :        -42.8828405           42.8653720           -0.0174684
 Magnitude           :                                                    0.7758978
  Basis Set: (AUG-CC-PVTZ AUX)
    Blend: AUG-CC-PVTZ-RI
	 Reference Energy          =     -76.0607061492330843 [Eh]
	 Singles Energy            =      -0.0000000000000000 [Eh]
	 Same-Spin Energy          =      -0.0683247966002433 [Eh]
	 Opposite-Spin Energy      =      -0.2155029996988315 [Eh]
	 Correlation Energy        =      -0.2838277962990748 [Eh]
	 Total Energy              =     -76.3445339455321630 [Eh]

	 ================> DF-SCS-MP2 Energies <==================
	-----------------------------------------------------------
	 SCS Same-Spin Scale       =       0.3333333333333333 [-]
	 SCS Opposite-Spin Scale   =       1.2000000000000000 [-]
	 SCS Same-Spin Energy      =      -0.0227749322000811 [Eh]
	 SCS Opposite-Spin Energy  =      -0.2586035996385978 [Eh]
	 SCS Correlation Energy    =      -0.2813785318386789 [Eh]
	 SCS Total Energy          =     -76.3420846810717677 [Eh]
	-----------------------------------------------------------

*** Psi4 exiting successfully. Buy a developer a beer!
