                               Psi4 1.8.2 release

  ==> Input File <==

--------------------------------------------------------------------------
MEMORY 60 GB

molecule dimer {
0 1
Gh(Br)     0.000000     0.000000     0.000000
Gh(O)      1.500307     0.811394    -3.090514
Gh(H)      1.680740     0.622734    -2.201421
Gh(H)      1.748017     1.689370    -3.324807
Gh(O)      0.724522    -0.831400     3.164447
Gh(H)      0.313632    -0.838633     2.273180
Gh(H)      1.443347    -0.198288     3.178378
O         -0.538708    -3.161155    -1.222705
H         -0.911093    -2.966491    -2.155417
H         -0.428745    -2.313873    -0.869458
Gh(O)     -2.786344     0.234985    -1.999484
Gh(H)     -2.318369     0.483461    -1.218225
Gh(H)     -2.131614     0.066966    -2.657688

units ang
no_reorient
no_com
symmetry c1
}

set {
basis        aug-cc-pVTZ
scf_type     df
}

energy("mp2")
--------------------------------------------------------------------------

    Molecular point group: c1

    Geometry (in Angstrom), charge = 0, multiplicity = 1:

       Center              X                  Y                   Z               Mass
    ------------   -----------------  -----------------  -----------------  -----------------
      Gh(BR)          0.000000000000     0.000000000000     0.000000000000    78.918337600000
      Gh(O)           1.500307000000     0.811394000000    -3.090514000000    15.994914619570
      Gh(H)           1.680740000000     0.622734000000    -2.201421000000     1.007825032230
      Gh(H)           1.748017000000     1.689370000000    -3.324807000000     1.007825032230
      Gh(O)           0.724522000000    -0.831400000000     3.164447000000    15.994914619570
      Gh(H)           0.313632000000    -0.838633000000     2.273180000000     1.007825032230
      Gh(H)           1.443347000000    -0.198288000000     3.178378000000     1.007825032230
         O           -0.538708000000    -3.161155000000    -1.222705000000    15.994914619570
         H           -0.911093000000    -2.966491000000    -2.155417000000     1.007825032230
         H           -0.428745000000    -2.313873000000    -0.869458000000     1.007825032230
      Gh(O)          -2.786344000000     0.234985000000    -1.999484000000    15.994914619570
      Gh(H)          -2.318369000000     0.483461000000    -1.218225000000     1.007825032230
      Gh(H)          -2.131614000000     0.066966000000    -2.657688000000     1.007825032230

  Charge       = 0
  Multiplicity = 1
  Basis Set: AUG-CC-PVTZ
    Blend: AUG-CC-PVTZ
  Basis Set: (AUG-CC-PVTZ AUX)
    Blend: AUG-CC-PVTZ-JKFIT

    Orbital Energies [Eh]
    ---------------------

    Doubly Occupied:

       1A    -20.570454     2A     -1.348848     3A     -0.706076
       4A     -0.584640     5A     -0.509801

  @DF-RHF Final Energy:   -76.05451169141489

   => Energetics <=

    Nuclear Repulsion Energy =              9.0652433915694299
    One-Electron Energy =                -122.7998666586494494
    Two-Electron Energy =                  37.6801115756651370
    Total Energy =                        -76.0545116914148878
 Dipole X            :         10.5096009          -10.6760115           -0.1664106
 Dipole Y            :         58.4594015          -57.7681793            0.6912221
 Dipole Z            :         23.8362314          -24.2008060           -0.3645746
 Magnitude           :                                                    0.7989963
  Basis Set: (AUG-CC-PVTZ AUX)
    Blend: AUG-CC-PVTZ-RI
	 Reference Energy          =     -76.0545116914148878 [Eh]
	 Singles Energy            =      -0.0000000000000000 [Eh]
	 Same-Spin Energy          =      -0.0686696531760104 [Eh]
	 Opposite-Spin Energy      =      -0.2168607145309268 [Eh]
	 Correlation Energy        =      -0.2855303677069372 [Eh]
	 Total Energy              =     -76.3400420591218278 [Eh]

	 ================> DF-SCS-MP2 Energies <==================
	-----------------------------------------------------------
	 SCS Same-Spin Scale       =       0.3333333333333333 [-]
	 SCS Opposite-Spin Scale   =       1.2000000000000000 [-]
	 SCS Same-Spin Energy      =      -0.0228898843920035 [Eh]
	 SCS Opposite-Spin Energy  =      -0.2602328574371121 [Eh]
	 SCS Correlation Energy    =      -0.2831227418291156 [Eh]
	 SCS Total Energy          =     -76.3376344332440055 [Eh]
	-----------------------------------------------------------

*** Psi4 exiting successfully. Buy a developer a beer!
