                               Psi4 1.8.2 release

  ==> Input File <==

--------------------------------------------------------------------------
MEMORY 60 GB

molecule dimer {
0 1
Gh(Br)     0.000000     0.000000     0.000000
O         -2.114396    -0.823968    -2.451740
H         -1.344934    -0.815549    -1.892709
H         -2.578301    -1.686826    -2.349784
Gh(O)     -2.840106    -0.818403     1.694288
Gh(H)     -2.923211    -1.709126     1.352216
Gh(H)     -1.976154    -0.530056     1.405183
Gh(O)      0.359761    -1.678973     2.757291
Gh(H)      0.155656    -1.071042     3.436648
Gh(H)      0.309349    -1.206416     1.893897
Gh(O)     -0.002582    -3.436636     0.122679
Gh(H)     -0.128662    -2.474547     0.122748
Gh(H)      0.840782    -3.640659    -0.311875
Gh(O)      3.119434    -1.374833    -0.676470
Gh(H)      2.298457    -1.110581    -0.190519
Gh(H)      3.320939    -2.236567    -0.244513

units ang
no_reorient
no_com
symmetry c1
}

set {
basis        aug-cc-pVTZ
scf_type     df
}

energy("mp2")
--------------------------------------------------------------------------

    Molecular point group: c1

    Geometry (in Angstrom), charge = 0, multiplicity = 1:

       Center              X                  Y                   Z               Mass
    ------------   -----------------  -----------------  -----------------  -----------------
      Gh(BR)          0.000000000000     0.000000000000     0.000000000000    78.918337600000
         O           -2.114396000000    -0.823968000000    -2.451740000000    15.994914619570
         H           -1.344934000000    -0.815549000000    -1.892709000000     1.007825032230
         H           -2.578301000000    -1.686826000000    -2.349784000000     1.007825032230
      Gh(O)          -2.840106000000    -0.818403000000     1.694288000000    15.994914619570
      Gh(H)          -2.923211000000    -1.709126000000     1.352216000000     1.007825032230
      Gh(H)          -1.976154000000    -0.530056000000     1.405183000000     1.007825032230
      Gh(O)           0.359761000000    -1.678973000000     2.757291000000    15.994914619570
      Gh(H)           0.155656000000    -1.071042000000     3.436648000000     1.007825032230
      Gh(H)           0.309349000000    -1.206416000000     1.893897000000     1.007825032230
      Gh(O)          -0.002582000000    -3.436636000000     0.122679000000    15.994914619570
      Gh(H)          -0.128662000000    -2.474547000000     0.122748000000     1.007825032230
      Gh(H)           0.840782000000    -3.640659000000    -0.311875000000     1.007825032230
      Gh(O)           3.119434000000    -1.374833000000    -0.676470000000    15.994914619570
      Gh(H)           2.298457000000    -1.110581000000    -0.190519000000     1.007825032230
      Gh(H)           3.320939000000    -2.236567000000    -0.244513000000     1.007825032230

  Charge       = 0
  Multiplicity = 1
  Basis Set: AUG-CC-PVTZ
    Blend: AUG-CC-PVTZ
  Basis Set: (AUG-CC-PVTZ AUX)
    Blend: AUG-CC-PVTZ-JKFIT

    Orbital Energies [Eh]
    ---------------------

    Doubly Occupied:

       1A    -20.566811     2A     -1.345093     3A     -0.720492
       4A     -0.573768     5A     -0.508064

  @DF-RHF Final Energy:   -76.05885929069420

   => Energetics <=

    Nuclear Repulsion Energy =              9.0844176192291588
    One-Electron Energy =                -122.8580932683140503
    Two-Electron Energy =                  37.7148163583906850
    Total Energy =                        -76.0588592906942154
 Dipole X            :         39.5881034          -39.3788746            0.2092289
 Dipole Y            :         16.6152904          -17.1853943           -0.5701039
 Dipole Z            :         45.5266407          -45.0820869            0.4445538
 Magnitude           :                                                    0.7526109
  Basis Set: (AUG-CC-PVTZ AUX)
    Blend: AUG-CC-PVTZ-RI
	 Reference Energy          =     -76.0588592906942011 [Eh]
	 Singles Energy            =      -0.0000000000000000 [Eh]
	 Same-Spin Energy          =      -0.0685037640048913 [Eh]
	 Opposite-Spin Energy      =      -0.2160664374122698 [Eh]
	 Correlation Energy        =      -0.2845702014171611 [Eh]
	 Total Energy              =     -76.3434294921113690 [Eh]

	 ================> DF-SCS-MP2 Energies <==================
	-----------------------------------------------------------
	 SCS Same-Spin Scale       =       0.3333333333333333 [-]
	 SCS Opposite-Spin Scale   =       1.2000000000000000 [-]
	 SCS Same-Spin Energy      =      -0.0228345880016304 [Eh]
	 SCS Opposite-Spin Energy  =      -0.2592797248947237 [Eh]
	 SCS Correlation Energy    =      -0.2821143128963541 [Eh]
	 SCS Total Energy          =     -76.3409736035905553 [Eh]
	-----------------------------------------------------------

*** Psi4 exiting successfully. Buy a developer a beer!
