                               Psi4 1.8.2 release

  ==> Input File <==

--------------------------------------------------------------------------
MEMORY 60 GB

molecule dimer {
0 1
Gh(Br)     0.000000     0.000000     0.000000
O          1.578311    -2.750057     1.129134
H          2.275052    -2.856220     0.456785
H          1.365926    -1.831382     1.132918
Gh(O)      1.294967     2.190981     1.966174
Gh(H)      0.633025     2.183210     2.649956
Gh(H)      0.974462     1.512747     1.303727
Gh(O)     -0.142327     0.019548     3.444487
Gh(H)      0.556138    -0.565782     3.737245
Gh(H)     -0.248290     0.125821     2.436320
Gh(O)     -1.175057    -3.092866     0.072592
Gh(H)     -1.948415    -2.982136    -0.544682
Gh(H)     -0.845584    -2.244508     0.354573
Gh(O)     -2.669208    -0.113958     2.008018
Gh(H)     -3.296598     0.445070     1.489547
Gh(H)     -1.952017    -0.165603     1.402326
Gh(O)      3.253588     1.021586    -0.786884
Gh(H)      2.951647     1.725248    -1.377890
Gh(H)      2.551185     0.537784    -0.424420

units ang
no_reorient
no_com
symmetry c1
}

set {
basis        aug-cc-pVTZ
scf_type     df
}

energy("mp2")
--------------------------------------------------------------------------

    Molecular point group: c1

    Geometry (in Angstrom), charge = 0, multiplicity = 1:

       Center              X                  Y                   Z               Mass
    ------------   -----------------  -----------------  -----------------  -----------------
      Gh(BR)          0.000000000000     0.000000000000     0.000000000000    78.918337600000
         O            1.578311000000    -2.750057000000     1.129134000000    15.994914619570
         H            2.275052000000    -2.856220000000     0.456785000000     1.007825032230
         H            1.365926000000    -1.831382000000     1.132918000000     1.007825032230
      Gh(O)           1.294967000000     2.190981000000     1.966174000000    15.994914619570
      Gh(H)           0.633025000000     2.183210000000     2.649956000000     1.007825032230
      Gh(H)           0.974462000000     1.512747000000     1.303727000000     1.007825032230
      Gh(O)          -0.142327000000     0.019548000000     3.444487000000    15.994914619570
      Gh(H)           0.556138000000    -0.565782000000     3.737245000000     1.007825032230
      Gh(H)          -0.248290000000     0.125821000000     2.436320000000     1.007825032230
      Gh(O)          -1.175057000000    -3.092866000000     0.072592000000    15.994914619570
      Gh(H)          -1.948415000000    -2.982136000000    -0.544682000000     1.007825032230
      Gh(H)          -0.845584000000    -2.244508000000     0.354573000000     1.007825032230
      Gh(O)          -2.669208000000    -0.113958000000     2.008018000000    15.994914619570
      Gh(H)          -3.296598000000     0.445070000000     1.489547000000     1.007825032230
      Gh(H)          -1.952017000000    -0.165603000000     1.402326000000     1.007825032230
      Gh(O)           3.253588000000     1.021586000000    -0.786884000000    15.994914619570
      Gh(H)           2.951647000000     1.725248000000    -1.377890000000     1.007825032230
      Gh(H)           2.551185000000     0.537784000000    -0.424420000000     1.007825032230

  Charge       = 0
  Multiplicity = 1
  Basis Set: AUG-CC-PVTZ
    Blend: AUG-CC-PVTZ
  Basis Set: (AUG-CC-PVTZ AUX)
    Blend: AUG-CC-PVTZ-JKFIT

    Orbital Energies [Eh]
    ---------------------

    Doubly Occupied:

       1A    -20.566705     2A     -1.352269     3A     -0.719367
       4A     -0.582275     5A     -0.509909

  @DF-RHF Final Energy:   -76.06018534354587

   => Energetics <=

    Nuclear Repulsion Energy =              9.1823078249231713
    One-Electron Energy =                -123.0239328325294537
    Two-Electron Energy =                  37.7814396640604144
    Total Energy =                        -76.0601853435458679
 Dipole X            :        -30.4209223           30.7410555            0.3201332
 Dipole Y            :         50.9790156          -50.4331204            0.5458951
 Dipole Z            :        -20.5174597           20.0741354           -0.4433242
 Magnitude           :                                                    0.7726727
  Basis Set: (AUG-CC-PVTZ AUX)
    Blend: AUG-CC-PVTZ-RI
	 Reference Energy          =     -76.0601853435458679 [Eh]
	 Singles Energy            =      -0.0000000000000000 [Eh]
	 Same-Spin Energy          =      -0.0684093581719638 [Eh]
	 Opposite-Spin Energy      =      -0.2159030524113438 [Eh]
	 Correlation Energy        =      -0.2843124105833077 [Eh]
	 Total Energy              =     -76.3444977541291792 [Eh]

	 ================> DF-SCS-MP2 Energies <==================
	-----------------------------------------------------------
	 SCS Same-Spin Scale       =       0.3333333333333333 [-]
	 SCS Opposite-Spin Scale   =       1.2000000000000000 [-]
	 SCS Same-Spin Energy      =      -0.0228031193906546 [Eh]
	 SCS Opposite-Spin Energy  =      -0.2590836628936126 [Eh]
	 SCS Correlation Energy    =      -0.2818867822842672 [Eh]
	 SCS Total Energy          =     -76.3420721258301285 [Eh]
	-----------------------------------------------------------

*** Psi4 exiting successfully. Buy a developer a beer!
