                               Psi4 1.8.2 release

  ==> Input File <==

--------------------------------------------------------------------------
MEMORY 60 GB

molecule dimer {
-1 1
Br         0.000000     0.000000     0.000000
O         -3.089947     1.034619     0.842009
H         -3.734811     0.391946     0.529675
H         -2.297161     0.715238     0.405981
O         -2.233158    -2.307199     1.583647
H         -2.798612    -2.457186     0.820221
H         -1.458816    -1.809725     1.296922
O         -0.611219     2.868519     1.544803
H         -0.492191     2.014807     1.191864
H          0.279621     2.996725     1.995565
O         -1.434323     2.291860    -1.824576
H         -0.902332     3.109212    -1.825781
H         -0.845869     1.602856    -1.446966

units ang
no_reorient
no_com
symmetry c1
}

set {
basis        aug-cc-pVTZ
scf_type     df
}

energy("mp2")
--------------------------------------------------------------------------

    Molecular point group: c1

    Geometry (in Angstrom), charge = -1, multiplicity = 1:

       Center              X                  Y                   Z               Mass
    ------------   -----------------  -----------------  -----------------  -----------------
         BR           0.000000000000     0.000000000000     0.000000000000    78.918337600000
         O           -3.089947000000     1.034619000000     0.842009000000    15.994914619570
         H           -3.734811000000     0.391946000000     0.529675000000     1.007825032230
         H           -2.297161000000     0.715238000000     0.405981000000     1.007825032230
         O           -2.233158000000    -2.307199000000     1.583647000000    15.994914619570
         H           -2.798612000000    -2.457186000000     0.820221000000     1.007825032230
         H           -1.458816000000    -1.809725000000     1.296922000000     1.007825032230
         O           -0.611219000000     2.868519000000     1.544803000000    15.994914619570
         H           -0.492191000000     2.014807000000     1.191864000000     1.007825032230
         H            0.279621000000     2.996725000000     1.995565000000     1.007825032230
         O           -1.434323000000     2.291860000000    -1.824576000000    15.994914619570
         H           -0.902332000000     3.109212000000    -1.825781000000     1.007825032230
         H           -0.845869000000     1.602856000000    -1.446966000000     1.007825032230

  Charge       = -1
  Multiplicity = 1
  Basis Set: AUG-CC-PVTZ
    Blend: AUG-CC-PVTZ
  Basis Set: (AUG-CC-PVTZ AUX)
    Blend: AUG-CC-PVTZ-JKFIT

    Orbital Energies [Eh]
    ---------------------

    Doubly Occupied:

       1A   -489.785462     2A    -64.925957     3A    -58.280449
       4A    -58.280443     5A    -58.280414     6A    -20.424858
       7A    -20.407735     8A    -20.403841     9A    -20.398687
      10A     -9.598384    11A     -7.205976    12A     -7.205854
      13A     -7.205778    14A     -2.947578    15A     -2.947559
      16A     -2.947450    17A     -2.947320    18A     -2.947308
      19A     -1.208614    20A     -1.192201    21A     -1.186916
      22A     -1.180537    23A     -0.765119    24A     -0.583381
      25A     -0.552411    26A     -0.546976    27A     -0.536602
      28A     -0.441259    29A     -0.435245    30A     -0.425792
      31A     -0.422382    32A     -0.371525    33A     -0.355369
      34A     -0.346226    35A     -0.338802    36A     -0.213799
      37A     -0.211713    38A     -0.210386

  @DF-RHF Final Energy: -2876.80413267386166

   => Energetics <=

    Nuclear Repulsion Energy =            343.7127158675291980
    One-Electron Energy =               -4703.7010754975663076
    Two-Electron Energy =                1483.1842269561752801
    Total Energy =                      -2876.8041326738616590
 Dipole X            :        136.7688279         -134.5472661            2.2215618
 Dipole Y            :        -72.3359641           71.1789250           -1.1570390
 Dipole Z            :        -38.9969767           38.0487757           -0.9482010
 Magnitude           :                                                    2.6782758
  Basis Set: (AUG-CC-PVTZ AUX)
    Blend: AUG-CC-PVTZ-RI
	 Reference Energy          =   -2876.8041326738616590 [Eh]
	 Singles Energy            =      -0.0000000000000000 [Eh]
	 Same-Spin Energy          =      -0.3749838657193013 [Eh]
	 Opposite-Spin Energy      =      -1.0853892906566835 [Eh]
	 Correlation Energy        =      -1.4603731563759847 [Eh]
	 Total Energy              =   -2878.2645058302377947 [Eh]

	 ================> DF-SCS-MP2 Energies <==================
	-----------------------------------------------------------
	 SCS Same-Spin Scale       =       0.3333333333333333 [-]
	 SCS Opposite-Spin Scale   =       1.2000000000000000 [-]
	 SCS Same-Spin Energy      =      -0.1249946219064338 [Eh]
	 SCS Opposite-Spin Energy  =      -1.3024671487880202 [Eh]
	 SCS Correlation Energy    =      -1.4274617706944539 [Eh]
	 SCS Total Energy          =   -2878.2315944445563218 [Eh]
	-----------------------------------------------------------

*** Psi4 exiting successfully. Buy a developer a beer!
