                               Psi4 1.8.2 release

  ==> Input File <==

--------------------------------------------------------------------------
MEMORY 60 GB

molecule dimer {
-1 1
Br         0.000000     0.000000     0.000000
Gh(O)     -1.696690     2.934160     0.134506
Gh(H)     -1.321713     2.170825    -0.262468
Gh(H)     -2.582990     2.990468    -0.140736
Gh(O)      2.205792     1.542061    -1.989152
Gh(H)      1.378254     1.355469    -1.592385
Gh(H)      1.896691     1.977670    -2.832326
Gh(O)      2.682266     1.638353     1.709860
Gh(H)      1.939337     1.329311     1.132545
Gh(H)      2.900490     2.498860     1.415817

units ang
no_reorient
no_com
symmetry c1
}

set {
basis        aug-cc-pVTZ
scf_type     df
}

energy("mp2")
--------------------------------------------------------------------------

    Molecular point group: c1

    Geometry (in Angstrom), charge = -1, multiplicity = 1:

       Center              X                  Y                   Z               Mass
    ------------   -----------------  -----------------  -----------------  -----------------
         BR           0.000000000000     0.000000000000     0.000000000000    78.918337600000
      Gh(O)          -1.696690000000     2.934160000000     0.134506000000    15.994914619570
      Gh(H)          -1.321713000000     2.170825000000    -0.262468000000     1.007825032230
      Gh(H)          -2.582990000000     2.990468000000    -0.140736000000     1.007825032230
      Gh(O)           2.205792000000     1.542061000000    -1.989152000000    15.994914619570
      Gh(H)           1.378254000000     1.355469000000    -1.592385000000     1.007825032230
      Gh(H)           1.896691000000     1.977670000000    -2.832326000000     1.007825032230
      Gh(O)           2.682266000000     1.638353000000     1.709860000000    15.994914619570
      Gh(H)           1.939337000000     1.329311000000     1.132545000000     1.007825032230
      Gh(H)           2.900490000000     2.498860000000     1.415817000000     1.007825032230

  Charge       = -1
  Multiplicity = 1
  Basis Set: AUG-CC-PVTZ
    Blend: AUG-CC-PVTZ
  Basis Set: (AUG-CC-PVTZ AUX)
    Blend: AUG-CC-PVTZ-JKFIT

    Orbital Energies [Eh]
    ---------------------

    Doubly Occupied:

       1A   -489.721480     2A    -64.861252     3A    -58.215765
       4A    -58.215764     5A    -58.215763     6A     -9.533106
       7A     -7.140451     8A     -7.140441     9A     -7.140436
      10A     -2.882145    11A     -2.882145    12A     -2.882140
      13A     -2.882116    14A     -2.882112    15A     -0.685995
      16A     -0.139339    17A     -0.139337    18A     -0.139335

  @DF-RHF Final Energy: -2572.53370596160494

   => Energetics <=

    Nuclear Repulsion Energy =              0.0000000000000000
    One-Electron Energy =               -3593.6691679653977189
    Two-Electron Energy =                1021.1354620037931227
    Total Energy =                      -2572.5337059616044826
 Dipole X            :          0.0002694            0.0000000            0.0002694
 Dipole Y            :          0.0002879            0.0000000            0.0002879
 Dipole Z            :         -0.0000401            0.0000000           -0.0000401
 Magnitude           :                                                    0.0003963
  Basis Set: (AUG-CC-PVTZ AUX)
    Blend: AUG-CC-PVTZ-RI
	 Reference Energy          =   -2572.5337059616049373 [Eh]
	 Singles Energy            =      -0.0000000000000000 [Eh]
	 Same-Spin Energy          =      -0.0894240631984865 [Eh]
	 Opposite-Spin Energy      =      -0.2078207718866603 [Eh]
	 Correlation Energy        =      -0.2972448350851468 [Eh]
	 Total Energy              =   -2572.8309507966901037 [Eh]

	 ================> DF-SCS-MP2 Energies <==================
	-----------------------------------------------------------
	 SCS Same-Spin Scale       =       0.3333333333333333 [-]
	 SCS Opposite-Spin Scale   =       1.2000000000000000 [-]
	 SCS Same-Spin Energy      =      -0.0298080210661622 [Eh]
	 SCS Opposite-Spin Energy  =      -0.2493849262639923 [Eh]
	 SCS Correlation Energy    =      -0.2791929473301545 [Eh]
	 SCS Total Energy          =   -2572.8128989089350398 [Eh]
	-----------------------------------------------------------

*** Psi4 exiting successfully. Buy a developer a beer!
