                               Psi4 1.8.2 release

  ==> Input File <==

--------------------------------------------------------------------------
MEMORY 60 GB

molecule dimer {
-1 1
Br         0.000000     0.000000     0.000000
Gh(O)      2.794095    -1.387479     0.567346
Gh(H)      1.955440    -0.895211     0.196524
Gh(H)      3.481853    -0.702595     0.669128
Gh(O)      2.335776     1.864406     0.831723
Gh(H)      1.699945     1.187957     0.609791
Gh(H)      1.817179     2.598588     1.156693
Gh(O)     -0.357779     0.030054     3.245802
Gh(H)     -0.127128     0.352128     2.389975
Gh(H)     -0.011989     0.692795     3.899278

units ang
no_reorient
no_com
symmetry c1
}

set {
basis        aug-cc-pVTZ
scf_type     df
}

energy("mp2")
--------------------------------------------------------------------------

    Molecular point group: c1

    Geometry (in Angstrom), charge = -1, multiplicity = 1:

       Center              X                  Y                   Z               Mass
    ------------   -----------------  -----------------  -----------------  -----------------
         BR           0.000000000000     0.000000000000     0.000000000000    78.918337600000
      Gh(O)           2.794095000000    -1.387479000000     0.567346000000    15.994914619570
      Gh(H)           1.955440000000    -0.895211000000     0.196524000000     1.007825032230
      Gh(H)           3.481853000000    -0.702595000000     0.669128000000     1.007825032230
      Gh(O)           2.335776000000     1.864406000000     0.831723000000    15.994914619570
      Gh(H)           1.699945000000     1.187957000000     0.609791000000     1.007825032230
      Gh(H)           1.817179000000     2.598588000000     1.156693000000     1.007825032230
      Gh(O)          -0.357779000000     0.030054000000     3.245802000000    15.994914619570
      Gh(H)          -0.127128000000     0.352128000000     2.389975000000     1.007825032230
      Gh(H)          -0.011989000000     0.692795000000     3.899278000000     1.007825032230

  Charge       = -1
  Multiplicity = 1
  Basis Set: AUG-CC-PVTZ
    Blend: AUG-CC-PVTZ
  Basis Set: (AUG-CC-PVTZ AUX)
    Blend: AUG-CC-PVTZ-JKFIT

    Orbital Energies [Eh]
    ---------------------

    Doubly Occupied:

       1A   -489.721957     2A    -64.861595     3A    -58.216123
       4A    -58.216123     5A    -58.216121     6A     -9.533223
       7A     -7.140564     8A     -7.140550     9A     -7.140545
      10A     -2.882267    11A     -2.882264    12A     -2.882261
      13A     -2.882238    14A     -2.882230    15A     -0.685996
      16A     -0.139341    17A     -0.139338    18A     -0.139336

  @DF-RHF Final Energy: -2572.53371741291585

   => Energetics <=

    Nuclear Repulsion Energy =              0.0000000000000000
    One-Electron Energy =               -3593.6632883582983595
    Two-Electron Energy =                1021.1295709453826248
    Total Energy =                      -2572.5337174129158484
 Dipole X            :          0.0001838            0.0000000            0.0001838
 Dipole Y            :         -0.0001437            0.0000000           -0.0001437
 Dipole Z            :          0.0000606            0.0000000            0.0000606
 Magnitude           :                                                    0.0002410
  Basis Set: (AUG-CC-PVTZ AUX)
    Blend: AUG-CC-PVTZ-RI
	 Reference Energy          =   -2572.5337174129158484 [Eh]
	 Singles Energy            =      -0.0000000000000000 [Eh]
	 Same-Spin Energy          =      -0.0906285643457224 [Eh]
	 Opposite-Spin Energy      =      -0.2111143284551839 [Eh]
	 Correlation Energy        =      -0.3017428928009062 [Eh]
	 Total Energy              =   -2572.8354603057168788 [Eh]

	 ================> DF-SCS-MP2 Energies <==================
	-----------------------------------------------------------
	 SCS Same-Spin Scale       =       0.3333333333333333 [-]
	 SCS Opposite-Spin Scale   =       1.2000000000000000 [-]
	 SCS Same-Spin Energy      =      -0.0302095214485741 [Eh]
	 SCS Opposite-Spin Energy  =      -0.2533371941462206 [Eh]
	 SCS Correlation Energy    =      -0.2835467155947948 [Eh]
	 SCS Total Energy          =   -2572.8172641285104874 [Eh]
	-----------------------------------------------------------

*** Psi4 exiting successfully. Buy a developer a beer!
