                               Psi4 1.9 release

  ==> Input File <==

--------------------------------------------------------------------------
MEMORY 60 GB

molecule dimer {
-1 1
Br     0.000000     0.000000     0.000000
--
0 1
O      2.503250     1.309100    -1.941613
H      1.693555     1.376407    -1.484593
H      2.297101     0.825735    -2.742119
O     -3.001212     0.171636     1.161661
H     -2.095584     0.222145     0.811440
H     -3.311681     1.091997     1.388500
O      0.694505    -1.649884    -3.009010
H      1.348391    -1.016594    -3.241515
H      0.489087    -1.363055    -2.138119
O     -1.346088     2.952246    -0.232248
H     -0.998482     2.049470    -0.375845
H     -2.085144     2.836345     0.344825
O      1.132621     1.535541     2.844400
H      0.751306     1.043572     2.062688
H      1.972007     2.061134     2.749098

units ang
no_reorient
no_com
symmetry c1
}

set {
basis        aug-cc-pVTZ
scf_type     df
}

energy("mp2", bsse_type="cp")
--------------------------------------------------------------------------

                               Psi4 1.9 release
    Molecular point group: c1
  Charge       = 0
  Multiplicity = 1
  Basis Set: AUG-CC-PVTZ
    Blend: AUG-CC-PVTZ
  Basis Set: (AUG-CC-PVTZ AUX)
    Blend: AUG-CC-PVTZ-JKFIT
  @DF-RHF Final Energy:  -380.27254963477918
    Total Energy =                       -380.2725496347791818
 Dipole X            :          0.1905251           -0.1414195            0.0491055
 Dipole Y            :        -82.1631139           82.5361847            0.3730708
 Dipole Z            :         22.6004267          -22.7525293           -0.1521026
 Magnitude           :                                                    0.4058674
  Basis Set: (AUG-CC-PVTZ AUX)
    Blend: AUG-CC-PVTZ-RI
	 Reference Energy          =    -380.2725496347791818 [Eh]
	 Singles Energy            =      -0.0000000000000000 [Eh]
	 Same-Spin Energy          =      -0.3441925748460796 [Eh]
	 Opposite-Spin Energy      =      -1.0834515125889639 [Eh]
	 Correlation Energy        =      -1.4276440874350436 [Eh]
	 Total Energy              =    -381.7001937222142374 [Eh]
	 SCS Total Energy          =    -381.6874223081679816 [Eh]
                               Psi4 1.9 release
    Molecular point group: c1
  Multiplicity = 1
  Basis Set: AUG-CC-PVTZ
    Blend: AUG-CC-PVTZ
  Basis Set: (AUG-CC-PVTZ AUX)
    Blend: AUG-CC-PVTZ-JKFIT
  @DF-RHF Final Energy: -2572.53373262037439
    Total Energy =                      -2572.5337326203743942
  Basis Set: (AUG-CC-PVTZ AUX)
	 Singles Energy            =      -0.0000000000000000 [Eh]
	 Same-Spin Energy          =      -0.0915855335352167 [Eh]
	 Opposite-Spin Energy      =      -0.2133100313596402 [Eh]
	 Correlation Energy        =      -0.3048955648948569 [Eh]
	 Total Energy              =   -2572.8386281852690445 [Eh]
	 SCS Total Energy          =   -2572.8202331691845757 [Eh]
                               Psi4 1.9 release
    Molecular point group: c1

    Geometry (in Bohr), charge = -1, multiplicity = 1:

       Center              X                  Y                   Z               Mass
    ------------   -----------------  -----------------  -----------------  -----------------
         BR           0.000000000000     0.000000000000     0.000000000000    78.918337600000
         O            4.730456923552     2.473840470837    -3.669116811629    15.994914619570
         H            3.200355128400     2.601032267163    -2.805474177772     1.007825032230
         H            4.340891772515     1.560413002205    -5.181853913414     1.007825032230
         O           -5.671468724438     0.324345033269     2.195221140625    15.994914619570
         H           -3.960079832891     0.419793210140     1.533399367242     1.007825032230
         H           -6.258170104882     2.063575259822     2.623884725198     1.007825032230
         O            1.312424242761    -3.117828898775    -5.686204808764    15.994914619570
         H            2.548089700032    -1.921084240784    -6.125575581563     1.007825032230
         H            0.924240481522    -2.575800643936    -4.040459333638     1.007825032230
         O           -2.543737660765     5.578936394978    -0.438885113185    15.994914619570
         H           -1.886857521199     3.872937002342    -0.710244115623     1.007825032230
         H           -3.940351092142     5.359915247312     0.651624811211     1.007825032230
         O            2.140343493942     2.901751944412     5.375136991252    15.994914619570
         H            1.419762576413     1.972065272196     3.897915402268     1.007825032230
         H            3.726553147486     3.894978767869     5.195042312044     1.007825032230

  Charge       = -1
  Multiplicity = 1
  Basis Set: AUG-CC-PVTZ
    Blend: AUG-CC-PVTZ
  Basis Set: (AUG-CC-PVTZ AUX)
    Blend: AUG-CC-PVTZ-JKFIT

    Orbital Energies [Eh]
    ---------------------

    Doubly Occupied:

       1A   -489.804618     2A    -64.945273     3A    -58.299760
       4A    -58.299749     5A    -58.299723     6A    -20.440409
       7A    -20.437000     8A    -20.425829     9A    -20.421997
      10A    -20.420197    11A     -9.617771    12A     -7.225431
      13A     -7.225282    14A     -7.225148    15A     -2.967010
      16A     -2.966997    17A     -2.966821    18A     -2.966682
      19A     -2.966648    20A     -1.240324    21A     -1.236729
      22A     -1.211339    23A     -1.197328    24A     -1.181748
      25A     -0.788220    26A     -0.605516    27A     -0.591851
      28A     -0.580803    29A     -0.577890    30A     -0.572095
      31A     -0.478662    32A     -0.462891    33A     -0.454145
      34A     -0.430286    35A     -0.409659    36A     -0.390159
      37A     -0.386879    38A     -0.371064    39A     -0.366042
      40A     -0.359565    41A     -0.235758    42A     -0.231757
      43A     -0.230990

  @DF-RHF Final Energy: -2952.86852706778836

   => Energetics <=

    Nuclear Repulsion Energy =            442.5662897701372458
    One-Electron Energy =               -5005.8415350246868911
    Two-Electron Energy =                1610.4067181867617364
    Total Energy =                      -2952.8685270677883636
 Dipole X            :          0.4103174           -0.1414195            0.2688979
 Dipole Y            :        -82.8189881           82.5361847           -0.2828034
 Dipole Z            :         22.6163827          -22.7525293           -0.1361466
 Magnitude           :                                                    0.4133034
  Basis Set: (AUG-CC-PVTZ AUX)
    Blend: AUG-CC-PVTZ-RI
	 Reference Energy          =   -2952.8685270677883636 [Eh]
	 Singles Energy            =      -0.0000000000000000 [Eh]
	 Same-Spin Energy          =      -0.4462337806328389 [Eh]
	 Opposite-Spin Energy      =      -1.3044925236481444 [Eh]
	 Correlation Energy        =      -1.7507263042809833 [Eh]
	 Total Energy              =   -2954.6192533720691245 [Eh]

	 ================> DF-SCS-MP2 Energies <==================
	-----------------------------------------------------------
	 SCS Same-Spin Scale       =       0.3333333333333333 [-]
	 SCS Opposite-Spin Scale   =       1.2000000000000000 [-]
	 SCS Same-Spin Energy      =      -0.1487445935442796 [Eh]
	 SCS Opposite-Spin Energy  =      -1.5653910283777732 [Eh]
	 SCS Correlation Energy    =      -1.7141356219220529 [Eh]
	 SCS Total Energy          =   -2954.5826626897105598 [Eh]
	-----------------------------------------------------------

*** Psi4 exiting successfully. Buy a developer a beer!
