                               Psi4 1.8.2 release

  ==> Input File <==

--------------------------------------------------------------------------
MEMORY 60 GB

molecule dimer {
-1 1
Br         0.000000     0.000000     0.000000
O         -1.837505     2.686087     1.441240
H         -1.395781     2.850014     0.561055
H         -1.247273     2.007246     1.809128
O          2.018282     0.967796     2.748598
H          1.377311     1.015065     1.933015
H          2.889078     0.608425     2.456849
O         -0.998379     0.096685     3.070896
H         -0.488891     0.217516     2.223392
H         -1.866484     0.371090     2.902094
O         -3.343571     0.637488    -0.842857
H         -3.282439     0.319505    -1.793616
H         -2.688556     0.274884    -0.310570
O          1.336103    -3.264628    -0.543756
H          0.839531    -2.590942    -1.024661
H          1.966802    -2.869397     0.087043
O         -0.753078    -3.228067     1.448531
H          0.057408    -3.187980     0.982465
H         -1.283212    -2.484986     1.163089
O          3.039103     0.547804    -1.228230
H          3.591640    -0.311332    -1.209765
H          2.221180     0.248292    -0.808211

units ang
no_reorient
no_com
symmetry c1
}

set {
basis        aug-cc-pVTZ
scf_type     df
}

energy("mp2")
--------------------------------------------------------------------------

    Molecular point group: c1

    Geometry (in Angstrom), charge = -1, multiplicity = 1:

       Center              X                  Y                   Z               Mass
    ------------   -----------------  -----------------  -----------------  -----------------
         BR           0.000000000000     0.000000000000     0.000000000000    78.918337600000
         O           -1.837505000000     2.686087000000     1.441240000000    15.994914619570
         H           -1.395781000000     2.850014000000     0.561055000000     1.007825032230
         H           -1.247273000000     2.007246000000     1.809128000000     1.007825032230
         O            2.018282000000     0.967796000000     2.748598000000    15.994914619570
         H            1.377311000000     1.015065000000     1.933015000000     1.007825032230
         H            2.889078000000     0.608425000000     2.456849000000     1.007825032230
         O           -0.998379000000     0.096685000000     3.070896000000    15.994914619570
         H           -0.488891000000     0.217516000000     2.223392000000     1.007825032230
         H           -1.866484000000     0.371090000000     2.902094000000     1.007825032230
         O           -3.343571000000     0.637488000000    -0.842857000000    15.994914619570
         H           -3.282439000000     0.319505000000    -1.793616000000     1.007825032230
         H           -2.688556000000     0.274884000000    -0.310570000000     1.007825032230
         O            1.336103000000    -3.264628000000    -0.543756000000    15.994914619570
         H            0.839531000000    -2.590942000000    -1.024661000000     1.007825032230
         H            1.966802000000    -2.869397000000     0.087043000000     1.007825032230
         O           -0.753078000000    -3.228067000000     1.448531000000    15.994914619570
         H            0.057408000000    -3.187980000000     0.982465000000     1.007825032230
         H           -1.283212000000    -2.484986000000     1.163089000000     1.007825032230
         O            3.039103000000     0.547804000000    -1.228230000000    15.994914619570
         H            3.591640000000    -0.311332000000    -1.209765000000     1.007825032230
         H            2.221180000000     0.248292000000    -0.808211000000     1.007825032230

  Charge       = -1
  Multiplicity = 1
  Basis Set: AUG-CC-PVTZ
    Blend: AUG-CC-PVTZ
  Basis Set: (AUG-CC-PVTZ AUX)
    Blend: AUG-CC-PVTZ-JKFIT

    Orbital Energies [Eh]
    ---------------------

    Doubly Occupied:

       1A   -489.821800     2A    -64.962418     3A    -58.316938
       4A    -58.316895     5A    -58.316843     6A    -20.469547
       7A    -20.452273     8A    -20.441650     9A    -20.441281
      10A    -20.440554    11A    -20.421029    12A    -20.414519
      13A     -9.634850    14A     -7.242619    15A     -7.242455
      16A     -7.242004    17A     -2.984364    18A     -2.984334
      19A     -2.983812    20A     -2.983569    21A     -2.983457
      22A     -1.251223    23A     -1.225453    24A     -1.218794
      25A     -1.217513    26A     -1.211279    27A     -1.209298
      28A     -1.195588    29A     -0.804051    30A     -0.630887
      31A     -0.608951    32A     -0.589341    33A     -0.588455
      34A     -0.573789    35A     -0.569645    36A     -0.563790
      37A     -0.478840    38A     -0.467852    39A     -0.464291
      40A     -0.450625    41A     -0.449140    42A     -0.443651
      43A     -0.437000    44A     -0.405853    45A     -0.389445
      46A     -0.389320    47A     -0.377928    48A     -0.376055
      49A     -0.371511    50A     -0.362198    51A     -0.251874
      52A     -0.251274    53A     -0.244316

  @DF-RHF Final Energy: -3104.98058761941093

   => Energetics <=

    Nuclear Repulsion Energy =            690.7155606178043854
    One-Electron Energy =               -5713.0594053025188259
    Two-Electron Energy =                1917.3632570653032872
    Total Energy =                      -3104.9805876194104712
 Dipole X            :          7.8884121           -6.8446750            1.0437372
 Dipole Y            :         29.9875686          -30.2115807           -0.2240121
 Dipole Z            :       -111.6715312          109.0876210           -2.5839102
 Magnitude           :                                                    2.7957397
  Basis Set: (AUG-CC-PVTZ AUX)
    Blend: AUG-CC-PVTZ-RI
	 Reference Energy          =   -3104.9805876194109260 [Eh]
	 Singles Energy            =      -0.0000000000000000 [Eh]
	 Same-Spin Energy          =      -0.5889356697111310 [Eh]
	 Opposite-Spin Energy      =      -1.7457759701098614 [Eh]
	 Correlation Energy        =      -2.3347116398209922 [Eh]
	 Total Energy              =   -3107.3152992592317787 [Eh]

	 ================> DF-SCS-MP2 Energies <==================
	-----------------------------------------------------------
	 SCS Same-Spin Scale       =       0.3333333333333333 [-]
	 SCS Opposite-Spin Scale   =       1.2000000000000000 [-]
	 SCS Same-Spin Energy      =      -0.1963118899037103 [Eh]
	 SCS Opposite-Spin Energy  =      -2.0949311641318338 [Eh]
	 SCS Correlation Energy    =      -2.2912430540355442 [Eh]
	 SCS Total Energy          =   -3107.2718306734464022 [Eh]
	-----------------------------------------------------------

*** Psi4 exiting successfully. Buy a developer a beer!
