                               Psi4 1.8.2 release

  ==> Input File <==

--------------------------------------------------------------------------
MEMORY 60 GB

molecule dimer {
-1 1
Br         0.000000     0.000000     0.000000
O         -1.259613    -1.972372    -2.351696
H         -0.860891    -1.435419    -1.661193
H         -2.112677    -2.309575    -2.092339
O         -2.845407     1.529579    -0.341206
H         -3.404442     0.725851    -0.231895
H         -1.918137     1.227655    -0.418924
O          1.203798     0.989340    -2.982723
H          1.383848     1.404532    -2.151666
H          0.917733     0.079877    -2.748949
O         -1.942333    -2.300435     1.090951
H         -1.277267    -1.678503     0.760063
H         -1.677310    -3.142909     0.788314
O          2.995159    -1.396829    -0.963849
H          2.160999    -1.154144    -0.534338
H          3.403321    -0.551585    -1.226511

units ang
no_reorient
no_com
symmetry c1
}

set {
basis        aug-cc-pVTZ
scf_type     df
}

energy("mp2")
--------------------------------------------------------------------------

    Molecular point group: c1

    Geometry (in Angstrom), charge = -1, multiplicity = 1:

       Center              X                  Y                   Z               Mass
    ------------   -----------------  -----------------  -----------------  -----------------
         BR           0.000000000000     0.000000000000     0.000000000000    78.918337600000
         O           -1.259613000000    -1.972372000000    -2.351696000000    15.994914619570
         H           -0.860891000000    -1.435419000000    -1.661193000000     1.007825032230
         H           -2.112677000000    -2.309575000000    -2.092339000000     1.007825032230
         O           -2.845407000000     1.529579000000    -0.341206000000    15.994914619570
         H           -3.404442000000     0.725851000000    -0.231895000000     1.007825032230
         H           -1.918137000000     1.227655000000    -0.418924000000     1.007825032230
         O            1.203798000000     0.989340000000    -2.982723000000    15.994914619570
         H            1.383848000000     1.404532000000    -2.151666000000     1.007825032230
         H            0.917733000000     0.079877000000    -2.748949000000     1.007825032230
         O           -1.942333000000    -2.300435000000     1.090951000000    15.994914619570
         H           -1.277267000000    -1.678503000000     0.760063000000     1.007825032230
         H           -1.677310000000    -3.142909000000     0.788314000000     1.007825032230
         O            2.995159000000    -1.396829000000    -0.963849000000    15.994914619570
         H            2.160999000000    -1.154144000000    -0.534338000000     1.007825032230
         H            3.403321000000    -0.551585000000    -1.226511000000     1.007825032230

  Charge       = -1
  Multiplicity = 1
  Basis Set: AUG-CC-PVTZ
    Blend: AUG-CC-PVTZ
  Basis Set: (AUG-CC-PVTZ AUX)
    Blend: AUG-CC-PVTZ-JKFIT

    Orbital Energies [Eh]
    ---------------------

    Doubly Occupied:

       1A   -489.806336     2A    -64.947099     3A    -58.301586
       4A    -58.301561     5A    -58.301531     6A    -20.431477
       7A    -20.425726     8A    -20.422894     9A    -20.422198
      10A    -20.415011    11A     -9.619700    12A     -7.227366
      13A     -7.227278    14A     -7.227033    15A     -2.969008
      16A     -2.968973    17A     -2.968716    18A     -2.968572
      19A     -2.968517    20A     -1.218492    21A     -1.211940
      22A     -1.211314    23A     -1.209568    24A     -1.188882
      25A     -0.791662    26A     -0.596900    27A     -0.587642
      28A     -0.577675    29A     -0.574427    30A     -0.560525
      31A     -0.454618    32A     -0.451153    33A     -0.445823
      34A     -0.437742    35A     -0.430276    36A     -0.377734
      37A     -0.374245    38A     -0.370257    39A     -0.368283
      40A     -0.357512    41A     -0.236988    42A     -0.235591
      43A     -0.232362

  @DF-RHF Final Energy: -2952.88323221934979

   => Energetics <=

    Nuclear Repulsion Energy =            454.2124042436034870
    One-Electron Energy =               -5029.3468880666205223
    Two-Electron Energy =                1622.2512516036674697
    Total Energy =                      -2952.8832322193493383
 Dipole X            :         34.8075476          -34.3400861            0.4674614
 Dipole Y            :         60.6329867          -60.5467419            0.0862448
 Dipole Z            :        103.3745334         -101.8668622            1.5076712
 Magnitude           :                                                    1.5808324
  Basis Set: (AUG-CC-PVTZ AUX)
    Blend: AUG-CC-PVTZ-RI
	 Reference Energy          =   -2952.8832322193497930 [Eh]
	 Singles Energy            =      -0.0000000000000000 [Eh]
	 Same-Spin Energy          =      -0.4467953333512228 [Eh]
	 Opposite-Spin Energy      =      -1.3045223919698052 [Eh]
	 Correlation Energy        =      -1.7513177253210281 [Eh]
	 Total Energy              =   -2954.6345499446706526 [Eh]

	 ================> DF-SCS-MP2 Energies <==================
	-----------------------------------------------------------
	 SCS Same-Spin Scale       =       0.3333333333333333 [-]
	 SCS Opposite-Spin Scale   =       1.2000000000000000 [-]
	 SCS Same-Spin Energy      =      -0.1489317777837409 [Eh]
	 SCS Opposite-Spin Energy  =      -1.5654268703637662 [Eh]
	 SCS Correlation Energy    =      -1.7143586481475070 [Eh]
	 SCS Total Energy          =   -2954.5975908674972743 [Eh]
	-----------------------------------------------------------

*** Psi4 exiting successfully. Buy a developer a beer!
