                               Psi4 1.8.2 release

  ==> Input File <==

--------------------------------------------------------------------------
MEMORY 60 GB

molecule dimer {
-1 1
Br         0.000000     0.000000     0.000000
O          3.157564    -0.938804     1.002837
H          2.741539    -1.572686     1.601074
H          2.435256    -0.515105     0.528841
O         -1.178261     3.348443    -0.543747
H         -0.877405     4.142222    -0.123462
H         -0.618048     2.578310    -0.290120
O         -0.155000     1.255906    -3.193252
H         -0.202310     0.622118    -3.920435
H         -0.213318     0.808213    -2.353788
O          0.562600     1.647077     2.887295
H          0.576374     0.972541     2.201725
H         -0.160115     1.355841     3.512740
O          1.977093     2.382932     0.020064
H          1.569982     3.008419     0.619026
H          1.465597     1.557824     0.009689

units ang
no_reorient
no_com
symmetry c1
}

set {
basis        aug-cc-pVTZ
scf_type     df
}

energy("mp2")
--------------------------------------------------------------------------

    Molecular point group: c1

    Geometry (in Angstrom), charge = -1, multiplicity = 1:

       Center              X                  Y                   Z               Mass
    ------------   -----------------  -----------------  -----------------  -----------------
         BR           0.000000000000     0.000000000000     0.000000000000    78.918337600000
         O            3.157564000000    -0.938804000000     1.002837000000    15.994914619570
         H            2.741539000000    -1.572686000000     1.601074000000     1.007825032230
         H            2.435256000000    -0.515105000000     0.528841000000     1.007825032230
         O           -1.178261000000     3.348443000000    -0.543747000000    15.994914619570
         H           -0.877405000000     4.142222000000    -0.123462000000     1.007825032230
         H           -0.618048000000     2.578310000000    -0.290120000000     1.007825032230
         O           -0.155000000000     1.255906000000    -3.193252000000    15.994914619570
         H           -0.202310000000     0.622118000000    -3.920435000000     1.007825032230
         H           -0.213318000000     0.808213000000    -2.353788000000     1.007825032230
         O            0.562600000000     1.647077000000     2.887295000000    15.994914619570
         H            0.576374000000     0.972541000000     2.201725000000     1.007825032230
         H           -0.160115000000     1.355841000000     3.512740000000     1.007825032230
         O            1.977093000000     2.382932000000     0.020064000000    15.994914619570
         H            1.569982000000     3.008419000000     0.619026000000     1.007825032230
         H            1.465597000000     1.557824000000     0.009689000000     1.007825032230

  Charge       = -1
  Multiplicity = 1
  Basis Set: AUG-CC-PVTZ
    Blend: AUG-CC-PVTZ
  Basis Set: (AUG-CC-PVTZ AUX)
    Blend: AUG-CC-PVTZ-JKFIT

    Orbital Energies [Eh]
    ---------------------

    Doubly Occupied:

       1A   -489.799125     2A    -64.939783     3A    -58.294266
       4A    -58.294250     5A    -58.294234     6A    -20.434905
       7A    -20.420435     8A    -20.417600     9A    -20.413966
      10A    -20.394265    11A     -9.612298    12A     -7.219959
      13A     -7.219817    14A     -7.219640    15A     -2.961540
      16A     -2.961536    17A     -2.961343    18A     -2.961185
      19A     -2.961160    20A     -1.209112    21A     -1.204502
      22A     -1.199996    23A     -1.198859    24A     -1.183177
      25A     -0.782984    26A     -0.582746    27A     -0.577649
      28A     -0.574187    29A     -0.573549    30A     -0.562290
      31A     -0.451374    32A     -0.441117    33A     -0.431678
      34A     -0.426051    35A     -0.412263    36A     -0.376348
      37A     -0.365832    38A     -0.362607    39A     -0.359790
      40A     -0.341995    41A     -0.229449    42A     -0.226107
      43A     -0.224713

  @DF-RHF Final Energy: -2952.86996921280934

   => Energetics <=

    Nuclear Repulsion Energy =            454.8123267414453039
    One-Electron Energy =               -5031.2052185470911354
    Two-Electron Energy =                1623.5229225928369488
    Total Energy =                      -2952.8699692128093375
 Dipole X            :        -80.4431088           78.6683915           -1.7747173
 Dipole Y            :       -143.0631571          140.8264141           -2.2367430
 Dipole Z            :         -5.1499578            5.9920683            0.8421106
 Magnitude           :                                                    2.9768760
  Basis Set: (AUG-CC-PVTZ AUX)
    Blend: AUG-CC-PVTZ-RI
	 Reference Energy          =   -2952.8699692128093375 [Eh]
	 Singles Energy            =      -0.0000000000000000 [Eh]
	 Same-Spin Energy          =      -0.4468224771258451 [Eh]
	 Opposite-Spin Energy      =      -1.3053209665420535 [Eh]
	 Correlation Energy        =      -1.7521434436678986 [Eh]
	 Total Energy              =   -2954.6221126564773840 [Eh]

	 ================> DF-SCS-MP2 Energies <==================
	-----------------------------------------------------------
	 SCS Same-Spin Scale       =       0.3333333333333333 [-]
	 SCS Opposite-Spin Scale   =       1.2000000000000000 [-]
	 SCS Same-Spin Energy      =      -0.1489408257086150 [Eh]
	 SCS Opposite-Spin Energy  =      -1.5663851598504641 [Eh]
	 SCS Correlation Energy    =      -1.7153259855590792 [Eh]
	 SCS Total Energy          =   -2954.5852951983683852 [Eh]
	-----------------------------------------------------------

*** Psi4 exiting successfully. Buy a developer a beer!
