                               Psi4 1.8.2 release

  ==> Input File <==

--------------------------------------------------------------------------
MEMORY 60 GB

molecule dimer {
0 1
Gh(Br)     0.000000     0.000000     0.000000
Gh(O)     -2.781246     1.510084     1.569551
Gh(H)     -2.072540     1.009944     1.041255
Gh(H)     -3.635131     1.011783     1.573126
Gh(O)     -1.440121    -2.331353    -1.915099
Gh(H)     -1.006754    -1.730021    -1.255599
Gh(H)     -1.064572    -3.197794    -1.969547
Gh(O)     -3.247932     0.467714    -1.516885
Gh(H)     -2.362877     0.540347    -1.151819
Gh(H)     -3.475365    -0.447640    -1.620254
Gh(O)      0.031526     3.421465    -0.300243
Gh(H)     -0.878325     3.780621    -0.011616
Gh(H)      0.054833     2.497967    -0.083518
O          0.960104     0.920447    -2.955719
H          0.402808     0.917896    -2.160409
H          0.692381     1.632242    -3.631367

units ang
no_reorient
no_com
symmetry c1
}

set {
basis        aug-cc-pVTZ
scf_type     df
}

energy("mp2")
--------------------------------------------------------------------------

    Molecular point group: c1

    Geometry (in Angstrom), charge = 0, multiplicity = 1:

       Center              X                  Y                   Z               Mass
    ------------   -----------------  -----------------  -----------------  -----------------
      Gh(BR)          0.000000000000     0.000000000000     0.000000000000    78.918337600000
      Gh(O)          -2.781246000000     1.510084000000     1.569551000000    15.994914619570
      Gh(H)          -2.072540000000     1.009944000000     1.041255000000     1.007825032230
      Gh(H)          -3.635131000000     1.011783000000     1.573126000000     1.007825032230
      Gh(O)          -1.440121000000    -2.331353000000    -1.915099000000    15.994914619570
      Gh(H)          -1.006754000000    -1.730021000000    -1.255599000000     1.007825032230
      Gh(H)          -1.064572000000    -3.197794000000    -1.969547000000     1.007825032230
      Gh(O)          -3.247932000000     0.467714000000    -1.516885000000    15.994914619570
      Gh(H)          -2.362877000000     0.540347000000    -1.151819000000     1.007825032230
      Gh(H)          -3.475365000000    -0.447640000000    -1.620254000000     1.007825032230
      Gh(O)           0.031526000000     3.421465000000    -0.300243000000    15.994914619570
      Gh(H)          -0.878325000000     3.780621000000    -0.011616000000     1.007825032230
      Gh(H)           0.054833000000     2.497967000000    -0.083518000000     1.007825032230
         O            0.960104000000     0.920447000000    -2.955719000000    15.994914619570
         H            0.402808000000     0.917896000000    -2.160409000000     1.007825032230
         H            0.692381000000     1.632242000000    -3.631367000000     1.007825032230

  Charge       = 0
  Multiplicity = 1
  Basis Set: AUG-CC-PVTZ
    Blend: AUG-CC-PVTZ
  Basis Set: (AUG-CC-PVTZ AUX)
    Blend: AUG-CC-PVTZ-JKFIT

    Orbital Energies [Eh]
    ---------------------

    Doubly Occupied:

       1A    -20.568986     2A     -1.330086     3A     -0.712880
       4A     -0.561107     5A     -0.504591

  @DF-RHF Final Energy:   -76.05303638545976

   => Energetics <=

    Nuclear Repulsion Energy =              8.8394662981284515
    One-Electron Energy =                -122.4296999212492096
    Two-Electron Energy =                  37.5371972376609975
    Total Energy =                        -76.0530363854597624
 Dipole X            :        -17.1367930           16.5842762           -0.5525169
 Dipole Y            :        -18.2626507           18.7342043            0.4715536
 Dipole Z            :         55.7141399          -55.6288657            0.0852741
 Magnitude           :                                                    0.7313750
  Basis Set: (AUG-CC-PVTZ AUX)
    Blend: AUG-CC-PVTZ-RI
	 Reference Energy          =     -76.0530363854597624 [Eh]
	 Singles Energy            =      -0.0000000000000000 [Eh]
	 Same-Spin Energy          =      -0.0689338721940442 [Eh]
	 Opposite-Spin Energy      =      -0.2173296987548464 [Eh]
	 Correlation Energy        =      -0.2862635709488906 [Eh]
	 Total Energy              =     -76.3392999564086523 [Eh]

	 ================> DF-SCS-MP2 Energies <==================
	-----------------------------------------------------------
	 SCS Same-Spin Scale       =       0.3333333333333333 [-]
	 SCS Opposite-Spin Scale   =       1.2000000000000000 [-]
	 SCS Same-Spin Energy      =      -0.0229779573980147 [Eh]
	 SCS Opposite-Spin Energy  =      -0.2607956385058157 [Eh]
	 SCS Correlation Energy    =      -0.2837735959038304 [Eh]
	 SCS Total Energy          =     -76.3368099813635865 [Eh]
	-----------------------------------------------------------

*** Psi4 exiting successfully. Buy a developer a beer!
