                               Psi4 1.8.2 release

  ==> Input File <==

--------------------------------------------------------------------------
MEMORY 60 GB

molecule dimer {
0 1
Gh(Br)     0.000000     0.000000     0.000000
Gh(O)      2.124652     1.964937     2.121179
Gh(H)      2.172793     1.368654     2.868479
Gh(H)      1.679122     1.413724     1.418976
Gh(O)      0.104991     3.249169    -0.182748
Gh(H)     -0.717800     3.852559    -0.190945
Gh(H)     -0.198510     2.348694    -0.321779
O          2.981573    -1.290363     1.136769
H          2.140404    -0.909703     0.930704
H          3.672272    -0.882775     0.618927
Gh(O)     -2.479840     1.517813     1.775784
Gh(H)     -2.172611     0.572932     1.816703
Gh(H)     -2.115363     1.956989     2.554860

units ang
no_reorient
no_com
symmetry c1
}

set {
basis        aug-cc-pVTZ
scf_type     df
}

energy("mp2")
--------------------------------------------------------------------------

    Molecular point group: c1

    Geometry (in Angstrom), charge = 0, multiplicity = 1:

       Center              X                  Y                   Z               Mass
    ------------   -----------------  -----------------  -----------------  -----------------
      Gh(BR)          0.000000000000     0.000000000000     0.000000000000    78.918337600000
      Gh(O)           2.124652000000     1.964937000000     2.121179000000    15.994914619570
      Gh(H)           2.172793000000     1.368654000000     2.868479000000     1.007825032230
      Gh(H)           1.679122000000     1.413724000000     1.418976000000     1.007825032230
      Gh(O)           0.104991000000     3.249169000000    -0.182748000000    15.994914619570
      Gh(H)          -0.717800000000     3.852559000000    -0.190945000000     1.007825032230
      Gh(H)          -0.198510000000     2.348694000000    -0.321779000000     1.007825032230
         O            2.981573000000    -1.290363000000     1.136769000000    15.994914619570
         H            2.140404000000    -0.909703000000     0.930704000000     1.007825032230
         H            3.672272000000    -0.882775000000     0.618927000000     1.007825032230
      Gh(O)          -2.479840000000     1.517813000000     1.775784000000    15.994914619570
      Gh(H)          -2.172611000000     0.572932000000     1.816703000000     1.007825032230
      Gh(H)          -2.115363000000     1.956989000000     2.554860000000     1.007825032230

  Charge       = 0
  Multiplicity = 1
  Basis Set: AUG-CC-PVTZ
    Blend: AUG-CC-PVTZ
  Basis Set: (AUG-CC-PVTZ AUX)
    Blend: AUG-CC-PVTZ-JKFIT

    Orbital Energies [Eh]
    ---------------------

    Doubly Occupied:

       1A    -20.563142     2A     -1.352798     3A     -0.733301
       4A     -0.574187     5A     -0.509096

  @DF-RHF Final Energy:   -76.06046332054002

   => Energetics <=

    Nuclear Repulsion Energy =              9.2480229832894700
    One-Electron Energy =                -123.1519209869773874
    Two-Electron Energy =                  37.8434346831479047
    Total Energy =                        -76.0604633205400091
 Dipole X            :        -56.1632965           56.0592168           -0.1040796
 Dipole Y            :         23.4317151          -22.8947539            0.5369612
 Dipole Z            :        -20.6068839           20.1138348           -0.4930491
 Magnitude           :                                                    0.7363812
  Basis Set: (AUG-CC-PVTZ AUX)
    Blend: AUG-CC-PVTZ-RI
	 Reference Energy          =     -76.0604633205400233 [Eh]
	 Singles Energy            =      -0.0000000000000000 [Eh]
	 Same-Spin Energy          =      -0.0681910284741574 [Eh]
	 Opposite-Spin Energy      =      -0.2152307388732696 [Eh]
	 Correlation Energy        =      -0.2834217673474271 [Eh]
	 Total Energy              =     -76.3438850878874575 [Eh]

	 ================> DF-SCS-MP2 Energies <==================
	-----------------------------------------------------------
	 SCS Same-Spin Scale       =       0.3333333333333333 [-]
	 SCS Opposite-Spin Scale   =       1.2000000000000000 [-]
	 SCS Same-Spin Energy      =      -0.0227303428247191 [Eh]
	 SCS Opposite-Spin Energy  =      -0.2582768866479235 [Eh]
	 SCS Correlation Energy    =      -0.2810072294726427 [Eh]
	 SCS Total Energy          =     -76.3414705500126729 [Eh]
	-----------------------------------------------------------

*** Psi4 exiting successfully. Buy a developer a beer!
