                               Psi4 1.8.2 release

  ==> Input File <==

--------------------------------------------------------------------------
MEMORY 60 GB

molecule dimer {
0 1
Gh(Br)     0.000000     0.000000     0.000000
O          0.827585    -0.673228     3.345565
H          1.608849    -1.256143     3.487856
H          0.809009    -0.281301     2.433452
Gh(O)     -0.064610     2.592766     1.902330
Gh(H)     -0.769192     3.247236     1.817366
Gh(H)     -0.304759     1.892666     1.320770
Gh(O)      2.158632    -2.165332    -1.610499
Gh(H)      1.952538    -1.333555    -1.224842
Gh(H)      3.138913    -2.262052    -1.619831
Gh(O)      3.156044     1.337992    -0.732851
Gh(H)      3.306466     0.506097    -0.217667
Gh(H)      2.230436     1.255178    -0.739111

units ang
no_reorient
no_com
symmetry c1
}

set {
basis        aug-cc-pVTZ
scf_type     df
}

energy("mp2")
--------------------------------------------------------------------------

    Molecular point group: c1

    Geometry (in Angstrom), charge = 0, multiplicity = 1:

       Center              X                  Y                   Z               Mass
    ------------   -----------------  -----------------  -----------------  -----------------
      Gh(BR)          0.000000000000     0.000000000000     0.000000000000    78.918337600000
         O            0.827585000000    -0.673228000000     3.345565000000    15.994914619570
         H            1.608849000000    -1.256143000000     3.487856000000     1.007825032230
         H            0.809009000000    -0.281301000000     2.433452000000     1.007825032230
      Gh(O)          -0.064610000000     2.592766000000     1.902330000000    15.994914619570
      Gh(H)          -0.769192000000     3.247236000000     1.817366000000     1.007825032230
      Gh(H)          -0.304759000000     1.892666000000     1.320770000000     1.007825032230
      Gh(O)           2.158632000000    -2.165332000000    -1.610499000000    15.994914619570
      Gh(H)           1.952538000000    -1.333555000000    -1.224842000000     1.007825032230
      Gh(H)           3.138913000000    -2.262052000000    -1.619831000000     1.007825032230
      Gh(O)           3.156044000000     1.337992000000    -0.732851000000    15.994914619570
      Gh(H)           3.306466000000     0.506097000000    -0.217667000000     1.007825032230
      Gh(H)           2.230436000000     1.255178000000    -0.739111000000     1.007825032230

  Charge       = 0
  Multiplicity = 1
  Basis Set: AUG-CC-PVTZ
    Blend: AUG-CC-PVTZ
  Basis Set: (AUG-CC-PVTZ AUX)
    Blend: AUG-CC-PVTZ-JKFIT

    Orbital Energies [Eh]
    ---------------------

    Doubly Occupied:

       1A    -20.568761     2A     -1.332605     3A     -0.714283
       4A     -0.563805     5A     -0.505269

  @DF-RHF Final Energy:   -76.05519850030058

   => Energetics <=

    Nuclear Repulsion Energy =              8.8829925258151068
    One-Electron Energy =                -122.5069282982271801
    Two-Electron Energy =                  37.5687372721114912
    Total Energy =                        -76.0551985003005768
 Dipole X            :        -16.5697712           17.0803614            0.5105902
 Dipole Y            :         12.9551350          -13.0830804           -0.1279455
 Dipole Z            :        -62.2815240           61.7672631           -0.5142609
 Magnitude           :                                                    0.7358917
  Basis Set: (AUG-CC-PVTZ AUX)
    Blend: AUG-CC-PVTZ-RI
	 Reference Energy          =     -76.0551985003005768 [Eh]
	 Singles Energy            =      -0.0000000000000000 [Eh]
	 Same-Spin Energy          =      -0.0688424626243085 [Eh]
	 Opposite-Spin Energy      =      -0.2169612152948494 [Eh]
	 Correlation Energy        =      -0.2858036779191580 [Eh]
	 Total Energy              =     -76.3410021782197390 [Eh]

	 ================> DF-SCS-MP2 Energies <==================
	-----------------------------------------------------------
	 SCS Same-Spin Scale       =       0.3333333333333333 [-]
	 SCS Opposite-Spin Scale   =       1.2000000000000000 [-]
	 SCS Same-Spin Energy      =      -0.0229474875414362 [Eh]
	 SCS Opposite-Spin Energy  =      -0.2603534583538192 [Eh]
	 SCS Correlation Energy    =      -0.2833009458952554 [Eh]
	 SCS Total Energy          =     -76.3384994461958257 [Eh]
	-----------------------------------------------------------

*** Psi4 exiting successfully. Buy a developer a beer!
