                               Psi4 1.8.2 release

  ==> Input File <==

--------------------------------------------------------------------------
MEMORY 60 GB

molecule dimer {
-1 1
Br         0.000000     0.000000     0.000000
Gh(O)     -2.113858    -2.512859    -1.150525
Gh(H)     -1.719212    -1.655030    -0.988060
Gh(H)     -3.081330    -2.317677    -0.996356
Gh(O)      2.801363    -0.362759    -2.114060
Gh(H)      2.269415    -0.106052    -1.334895
Gh(H)      2.149716    -0.381102    -2.814470
Gh(O)      1.551532     1.868500     2.398071
Gh(H)      0.950373     1.393075     1.807719
Gh(H)      1.026933     2.134675     3.208996
Gh(O)     -2.493947     2.161427     0.432978
Gh(H)     -1.694356     1.623968     0.386821
Gh(H)     -3.103791     1.928874    -0.305995
Gh(O)     -1.293434    -0.333436     3.221317
Gh(H)     -0.726989    -0.492791     2.454595
Gh(H)     -1.835080     0.452199     3.109521
Gh(O)      0.747393     3.065685    -1.348131
Gh(H)      0.606392     2.246399    -0.896833
Gh(H)      0.782266     3.812533    -0.695899

units ang
no_reorient
no_com
symmetry c1
}

set {
basis        aug-cc-pVTZ
scf_type     df
}

energy("mp2")
--------------------------------------------------------------------------

    Molecular point group: c1

    Geometry (in Angstrom), charge = -1, multiplicity = 1:

       Center              X                  Y                   Z               Mass
    ------------   -----------------  -----------------  -----------------  -----------------
         BR           0.000000000000     0.000000000000     0.000000000000    78.918337600000
      Gh(O)          -2.113858000000    -2.512859000000    -1.150525000000    15.994914619570
      Gh(H)          -1.719212000000    -1.655030000000    -0.988060000000     1.007825032230
      Gh(H)          -3.081330000000    -2.317677000000    -0.996356000000     1.007825032230
      Gh(O)           2.801363000000    -0.362759000000    -2.114060000000    15.994914619570
      Gh(H)           2.269415000000    -0.106052000000    -1.334895000000     1.007825032230
      Gh(H)           2.149716000000    -0.381102000000    -2.814470000000     1.007825032230
      Gh(O)           1.551532000000     1.868500000000     2.398071000000    15.994914619570
      Gh(H)           0.950373000000     1.393075000000     1.807719000000     1.007825032230
      Gh(H)           1.026933000000     2.134675000000     3.208996000000     1.007825032230
      Gh(O)          -2.493947000000     2.161427000000     0.432978000000    15.994914619570
      Gh(H)          -1.694356000000     1.623968000000     0.386821000000     1.007825032230
      Gh(H)          -3.103791000000     1.928874000000    -0.305995000000     1.007825032230
      Gh(O)          -1.293434000000    -0.333436000000     3.221317000000    15.994914619570
      Gh(H)          -0.726989000000    -0.492791000000     2.454595000000     1.007825032230
      Gh(H)          -1.835080000000     0.452199000000     3.109521000000     1.007825032230
      Gh(O)           0.747393000000     3.065685000000    -1.348131000000    15.994914619570
      Gh(H)           0.606392000000     2.246399000000    -0.896833000000     1.007825032230
      Gh(H)           0.782266000000     3.812533000000    -0.695899000000     1.007825032230

  Charge       = -1
  Multiplicity = 1
  Basis Set: AUG-CC-PVTZ
    Blend: AUG-CC-PVTZ
  Basis Set: (AUG-CC-PVTZ AUX)
    Blend: AUG-CC-PVTZ-JKFIT

    Orbital Energies [Eh]
    ---------------------

    Doubly Occupied:

       1A   -489.722421     2A    -64.861956     3A    -58.216497
       4A    -58.216496     5A    -58.216495     6A     -9.533345
       7A     -7.140675     8A     -7.140663     9A     -7.140662
      10A     -2.882390    11A     -2.882381    12A     -2.882371
      13A     -2.882362    14A     -2.882346    15A     -0.685988
      16A     -0.139333    17A     -0.139331    18A     -0.139328

  @DF-RHF Final Energy: -2572.53373881085372

   => Energetics <=

    Nuclear Repulsion Energy =              0.0000000000000000
    One-Electron Energy =               -3593.6573977954249131
    Two-Electron Energy =                1021.1236589845713070
    Total Energy =                      -2572.5337388108537198
 Dipole X            :          0.0000489            0.0000000            0.0000489
 Dipole Y            :          0.0001034            0.0000000            0.0001034
 Dipole Z            :         -0.0000017            0.0000000           -0.0000017
 Magnitude           :                                                    0.0001143
  Basis Set: (AUG-CC-PVTZ AUX)
    Blend: AUG-CC-PVTZ-RI
	 Reference Energy          =   -2572.5337388108537198 [Eh]
	 Singles Energy            =      -0.0000000000000000 [Eh]
	 Same-Spin Energy          =      -0.0919414214212057 [Eh]
	 Opposite-Spin Energy      =      -0.2140343366786864 [Eh]
	 Correlation Energy        =      -0.3059757580998921 [Eh]
	 Total Energy              =   -2572.8397145689536956 [Eh]

	 ================> DF-SCS-MP2 Energies <==================
	-----------------------------------------------------------
	 SCS Same-Spin Scale       =       0.3333333333333333 [-]
	 SCS Opposite-Spin Scale   =       1.2000000000000000 [-]
	 SCS Same-Spin Energy      =      -0.0306471404737352 [Eh]
	 SCS Opposite-Spin Energy  =      -0.2568412040144237 [Eh]
	 SCS Correlation Energy    =      -0.2874883444881589 [Eh]
	 SCS Total Energy          =   -2572.8212271553420578 [Eh]
	-----------------------------------------------------------

*** Psi4 exiting successfully. Buy a developer a beer!
