                               Psi4 1.8.2 release

  ==> Input File <==

--------------------------------------------------------------------------
MEMORY 60 GB

molecule dimer {
-1 1
Br         0.000000     0.000000     0.000000
O          1.943362     2.492757     1.142910
H          2.853656     2.365277     0.915650
H          1.414503     1.767381     0.739501
O          2.828599    -1.316138    -0.243498
H          1.991575    -1.027562     0.115147
H          2.923425    -0.868601    -1.085454
O         -1.187233    -3.096829    -0.068719
H         -1.015863    -2.191810     0.131593
H         -0.434378    -3.240086    -0.566381
O         -1.630611     1.500183     2.569503
H         -1.143522     1.019930     1.833037
H         -1.089551     2.321043     2.728925
O          0.795952     1.602190    -3.133141
H          1.463263     0.954500    -2.826078
H         -0.107599     1.347855    -3.018310

units ang
no_reorient
no_com
symmetry c1
}

set {
basis        aug-cc-pVTZ
scf_type     df
}

energy("mp2")
--------------------------------------------------------------------------

    Molecular point group: c1

    Geometry (in Angstrom), charge = -1, multiplicity = 1:

       Center              X                  Y                   Z               Mass
    ------------   -----------------  -----------------  -----------------  -----------------
         BR           0.000000000000     0.000000000000     0.000000000000    78.918337600000
         O            1.943362000000     2.492757000000     1.142910000000    15.994914619570
         H            2.853656000000     2.365277000000     0.915650000000     1.007825032230
         H            1.414503000000     1.767381000000     0.739501000000     1.007825032230
         O            2.828599000000    -1.316138000000    -0.243498000000    15.994914619570
         H            1.991575000000    -1.027562000000     0.115147000000     1.007825032230
         H            2.923425000000    -0.868601000000    -1.085454000000     1.007825032230
         O           -1.187233000000    -3.096829000000    -0.068719000000    15.994914619570
         H           -1.015863000000    -2.191810000000     0.131593000000     1.007825032230
         H           -0.434378000000    -3.240086000000    -0.566381000000     1.007825032230
         O           -1.630611000000     1.500183000000     2.569503000000    15.994914619570
         H           -1.143522000000     1.019930000000     1.833037000000     1.007825032230
         H           -1.089551000000     2.321043000000     2.728925000000     1.007825032230
         O            0.795952000000     1.602190000000    -3.133141000000    15.994914619570
         H            1.463263000000     0.954500000000    -2.826078000000     1.007825032230
         H           -0.107599000000     1.347855000000    -3.018310000000     1.007825032230

  Charge       = -1
  Multiplicity = 1
  Basis Set: AUG-CC-PVTZ
    Blend: AUG-CC-PVTZ
  Basis Set: (AUG-CC-PVTZ AUX)
    Blend: AUG-CC-PVTZ-JKFIT

    Orbital Energies [Eh]
    ---------------------

    Doubly Occupied:

       1A   -489.804010     2A    -64.944741     3A    -58.299214
       4A    -58.299203     5A    -58.299196     6A    -20.446342
       7A    -20.424587     8A    -20.423743     9A    -20.420441
      10A    -20.415884    11A     -9.617310    12A     -7.224925
      13A     -7.224895    14A     -7.224676    15A     -2.966528
      16A     -2.966513    17A     -2.966321    18A     -2.966264
      19A     -2.966210    20A     -1.230116    21A     -1.227768
      22A     -1.215515    23A     -1.208730    24A     -1.182439
      25A     -0.787991    26A     -0.620246    27A     -0.585556
      28A     -0.584152    29A     -0.572607    30A     -0.546154
      31A     -0.466680    32A     -0.452582    33A     -0.449046
      34A     -0.441715    35A     -0.431558    36A     -0.392007
      37A     -0.373484    38A     -0.370771    39A     -0.370331
      40A     -0.357507    41A     -0.234532    42A     -0.232418
      43A     -0.229729

  @DF-RHF Final Energy: -2952.87511528983805

   => Energetics <=

    Nuclear Repulsion Energy =            439.0484472152949138
    One-Electron Energy =               -4998.9178444520366611
    Two-Electron Energy =                1606.9942819469035840
    Total Energy =                      -2952.8751152898385044
 Dipole X            :        -54.0229462           54.5300523            0.5071062
 Dipole Y            :        -22.4769199           22.4976261            0.0207062
 Dipole Z            :         -3.3013573            2.0863899           -1.2149674
 Magnitude           :                                                    1.3167122
  Basis Set: (AUG-CC-PVTZ AUX)
    Blend: AUG-CC-PVTZ-RI
	 Reference Energy          =   -2952.8751152898380496 [Eh]
	 Singles Energy            =      -0.0000000000000000 [Eh]
	 Same-Spin Energy          =      -0.4450770654685716 [Eh]
	 Opposite-Spin Energy      =      -1.3018131025282367 [Eh]
	 Correlation Energy        =      -1.7468901679968083 [Eh]
	 Total Energy              =   -2954.6220054578348027 [Eh]

	 ================> DF-SCS-MP2 Energies <==================
	-----------------------------------------------------------
	 SCS Same-Spin Scale       =       0.3333333333333333 [-]
	 SCS Opposite-Spin Scale   =       1.2000000000000000 [-]
	 SCS Same-Spin Energy      =      -0.1483590218228572 [Eh]
	 SCS Opposite-Spin Energy  =      -1.5621757230338840 [Eh]
	 SCS Correlation Energy    =      -1.7105347448567412 [Eh]
	 SCS Total Energy          =   -2954.5856500346949360 [Eh]
	-----------------------------------------------------------

*** Psi4 exiting successfully. Buy a developer a beer!
