                               Psi4 1.8.2 release

  ==> Input File <==

--------------------------------------------------------------------------
MEMORY 60 GB

molecule dimer {
0 1
Gh(Br)     0.000000     0.000000     0.000000
Gh(O)      1.933199     1.986490     1.808234
Gh(H)      1.215137     1.668912     1.233648
Gh(H)      2.279603     2.831188     1.447197
O         -2.110295     2.665636     0.091665
H         -1.505616     1.895002     0.152179
H         -1.513127     3.456853    -0.085606
Gh(O)      0.395690    -0.651139     3.487777
Gh(H)      0.093477    -0.316228     2.602410
Gh(H)      0.310350    -1.614550     3.373877

units ang
no_reorient
no_com
symmetry c1
}

set {
basis        aug-cc-pVTZ
scf_type     df
}

energy("mp2")
--------------------------------------------------------------------------

    Molecular point group: c1

    Geometry (in Angstrom), charge = 0, multiplicity = 1:

       Center              X                  Y                   Z               Mass
    ------------   -----------------  -----------------  -----------------  -----------------
      Gh(BR)          0.000000000000     0.000000000000     0.000000000000    78.918337600000
      Gh(O)           1.933199000000     1.986490000000     1.808234000000    15.994914619570
      Gh(H)           1.215137000000     1.668912000000     1.233648000000     1.007825032230
      Gh(H)           2.279603000000     2.831188000000     1.447197000000     1.007825032230
         O           -2.110295000000     2.665636000000     0.091665000000    15.994914619570
         H           -1.505616000000     1.895002000000     0.152179000000     1.007825032230
         H           -1.513127000000     3.456853000000    -0.085606000000     1.007825032230
      Gh(O)           0.395690000000    -0.651139000000     3.487777000000    15.994914619570
      Gh(H)           0.093477000000    -0.316228000000     2.602410000000     1.007825032230
      Gh(H)           0.310350000000    -1.614550000000     3.373877000000     1.007825032230

  Charge       = 0
  Multiplicity = 1
  Basis Set: AUG-CC-PVTZ
    Blend: AUG-CC-PVTZ
  Basis Set: (AUG-CC-PVTZ AUX)
    Blend: AUG-CC-PVTZ-JKFIT

    Orbital Energies [Eh]
    ---------------------

    Doubly Occupied:

       1A    -20.573183     2A     -1.334973     3A     -0.699336
       4A     -0.576403     5A     -0.507231

  @DF-RHF Final Energy:   -76.05548280372527

   => Energetics <=

    Nuclear Repulsion Energy =              8.8525054616062402
    One-Electron Energy =                -122.4337202918891592
    Two-Electron Energy =                  37.5257320265576553
    Total Energy =                        -76.0554828037252548
 Dipole X            :         38.3910422          -37.6076343            0.7834079
 Dipole Y            :        -50.4032385           50.4121161            0.0088777
 Dipole Z            :         -1.5869663            1.5115787           -0.0753876
 Magnitude           :                                                    0.7870769
  Basis Set: (AUG-CC-PVTZ AUX)
    Blend: AUG-CC-PVTZ-RI
	 Reference Energy          =     -76.0554828037252690 [Eh]
	 Singles Energy            =      -0.0000000000000000 [Eh]
	 Same-Spin Energy          =      -0.0690053233740891 [Eh]
	 Opposite-Spin Energy      =      -0.2177132623189199 [Eh]
	 Correlation Energy        =      -0.2867185856930090 [Eh]
	 Total Energy              =     -76.3422013894182783 [Eh]

	 ================> DF-SCS-MP2 Energies <==================
	-----------------------------------------------------------
	 SCS Same-Spin Scale       =       0.3333333333333333 [-]
	 SCS Opposite-Spin Scale   =       1.2000000000000000 [-]
	 SCS Same-Spin Energy      =      -0.0230017744580297 [Eh]
	 SCS Opposite-Spin Energy  =      -0.2612559147827038 [Eh]
	 SCS Correlation Energy    =      -0.2842576892407335 [Eh]
	 SCS Total Energy          =     -76.3397404929660013 [Eh]
	-----------------------------------------------------------

*** Psi4 exiting successfully. Buy a developer a beer!
