                               Psi4 1.8.2 release

  ==> Input File <==

--------------------------------------------------------------------------
MEMORY 60 GB

molecule dimer {
-1 1
Br         0.000000     0.000000     0.000000
O          1.511211    -0.168000    -2.972187
H          2.300196    -0.449638    -2.419504
H          0.943137     0.223193    -2.310831
O         -2.135097    -1.069176    -2.156148
H         -2.291668    -1.987712    -2.053824
H         -1.409818    -0.862642    -1.615508
O          1.040320     2.889251     1.678946
H          1.410094     3.396924     2.390933
H          0.075886     2.963889     1.828063
O         -1.696817    -2.672274     0.961891
H         -1.090811    -1.965370     1.008221
H         -2.536867    -2.318802     1.134748
O          1.036428    -2.376018     2.104145
H          1.818587    -2.060646     2.627672
H          0.759851    -1.655806     1.452707

units ang
no_reorient
no_com
symmetry c1
}

set {
basis        aug-cc-pVTZ
scf_type     df
}

energy("mp2")
--------------------------------------------------------------------------

    Molecular point group: c1

    Geometry (in Angstrom), charge = -1, multiplicity = 1:

       Center              X                  Y                   Z               Mass
    ------------   -----------------  -----------------  -----------------  -----------------
         BR           0.000000000000     0.000000000000     0.000000000000    78.918337600000
         O            1.511211000000    -0.168000000000    -2.972187000000    15.994914619570
         H            2.300196000000    -0.449638000000    -2.419504000000     1.007825032230
         H            0.943137000000     0.223193000000    -2.310831000000     1.007825032230
         O           -2.135097000000    -1.069176000000    -2.156148000000    15.994914619570
         H           -2.291668000000    -1.987712000000    -2.053824000000     1.007825032230
         H           -1.409818000000    -0.862642000000    -1.615508000000     1.007825032230
         O            1.040320000000     2.889251000000     1.678946000000    15.994914619570
         H            1.410094000000     3.396924000000     2.390933000000     1.007825032230
         H            0.075886000000     2.963889000000     1.828063000000     1.007825032230
         O           -1.696817000000    -2.672274000000     0.961891000000    15.994914619570
         H           -1.090811000000    -1.965370000000     1.008221000000     1.007825032230
         H           -2.536867000000    -2.318802000000     1.134748000000     1.007825032230
         O            1.036428000000    -2.376018000000     2.104145000000    15.994914619570
         H            1.818587000000    -2.060646000000     2.627672000000     1.007825032230
         H            0.759851000000    -1.655806000000     1.452707000000     1.007825032230

  Charge       = -1
  Multiplicity = 1
  Basis Set: AUG-CC-PVTZ
    Blend: AUG-CC-PVTZ
  Basis Set: (AUG-CC-PVTZ AUX)
    Blend: AUG-CC-PVTZ-JKFIT

    Orbital Energies [Eh]
    ---------------------

    Doubly Occupied:

       1A   -489.777774     2A    -64.918421     3A    -58.272933
       4A    -58.272897     5A    -58.272837     6A    -20.456403
       7A    -20.414375     8A    -20.412824     9A    -20.401613
      10A    -20.391023    11A     -9.590942    12A     -7.198775
      13A     -7.198373    14A     -7.198195    15A     -2.940437
      16A     -2.940338    17A     -2.940058    18A     -2.939588
      19A     -2.939563    20A     -1.238506    21A     -1.210758
      22A     -1.198057    23A     -1.188265    24A     -1.176504
      25A     -0.760342    26A     -0.598310    27A     -0.588461
      28A     -0.570561    29A     -0.547702    30A     -0.545102
      31A     -0.471220    32A     -0.435714    33A     -0.433098
      34A     -0.424202    35A     -0.417919    36A     -0.396831
      37A     -0.360497    38A     -0.355142    39A     -0.350167
      40A     -0.343704    41A     -0.210800    42A     -0.203111
      43A     -0.202812

  @DF-RHF Final Energy: -2952.85467717203892

   => Energetics <=

    Nuclear Repulsion Energy =            441.1326950530848308
    One-Electron Energy =               -5004.5644285939861220
    Two-Electron Energy =                1610.5770563688627135
    Total Energy =                      -2952.8546771720384641
 Dipole X            :          4.1183605           -3.7285298            0.3898307
 Dipole Y            :         62.1998171          -60.2564611            1.9433560
 Dipole Z            :          3.8563291           -1.9353573            1.9209717
 Magnitude           :                                                    2.7602052
  Basis Set: (AUG-CC-PVTZ AUX)
    Blend: AUG-CC-PVTZ-RI
	 Reference Energy          =   -2952.8546771720389188 [Eh]
	 Singles Energy            =      -0.0000000000000000 [Eh]
	 Same-Spin Energy          =      -0.4449858345755287 [Eh]
	 Opposite-Spin Energy      =      -1.3019823871573986 [Eh]
	 Correlation Energy        =      -1.7469682217329272 [Eh]
	 Total Energy              =   -2954.6016453937718325 [Eh]

	 ================> DF-SCS-MP2 Energies <==================
	-----------------------------------------------------------
	 SCS Same-Spin Scale       =       0.3333333333333333 [-]
	 SCS Opposite-Spin Scale   =       1.2000000000000000 [-]
	 SCS Same-Spin Energy      =      -0.1483286115251762 [Eh]
	 SCS Opposite-Spin Energy  =      -1.5623788645888783 [Eh]
	 SCS Correlation Energy    =      -1.7107074761140546 [Eh]
	 SCS Total Energy          =   -2954.5653846481527580 [Eh]
	-----------------------------------------------------------

*** Psi4 exiting successfully. Buy a developer a beer!
