                               Psi4 1.8.2 release

  ==> Input File <==

--------------------------------------------------------------------------
MEMORY 60 GB

molecule dimer {
-1 1
Br         0.000000     0.000000     0.000000
O          3.099023     0.340281     1.397133
H          2.306734     0.381405     0.878260
H          3.844115     0.047231     0.936605
O          1.127680     3.159671     0.522464
H          1.378824     3.076014     1.435986
H          0.893393     2.283071     0.250242
O          0.153067    -3.161383    -1.487612
H          0.216689    -2.247035    -1.168259
H          0.001661    -3.027025    -2.433230
O         -2.154109     1.418877    -2.303659
H         -2.330310     0.966645    -3.084746
H         -1.379206     0.970868    -1.937812
O         -0.699327     0.060744     3.039694
H         -0.594770     0.380454     2.170591
H          0.152358    -0.312270     3.329137
O          0.885237     0.524743    -3.039093
H          0.866842     0.462270    -2.115711
H          0.908147     1.420376    -3.360499

units ang
no_reorient
no_com
symmetry c1
}

set {
basis        aug-cc-pVTZ
scf_type     df
}

energy("mp2")
--------------------------------------------------------------------------

    Molecular point group: c1

    Geometry (in Angstrom), charge = -1, multiplicity = 1:

       Center              X                  Y                   Z               Mass
    ------------   -----------------  -----------------  -----------------  -----------------
         BR           0.000000000000     0.000000000000     0.000000000000    78.918337600000
         O            3.099023000000     0.340281000000     1.397133000000    15.994914619570
         H            2.306734000000     0.381405000000     0.878260000000     1.007825032230
         H            3.844115000000     0.047231000000     0.936605000000     1.007825032230
         O            1.127680000000     3.159671000000     0.522464000000    15.994914619570
         H            1.378824000000     3.076014000000     1.435986000000     1.007825032230
         H            0.893393000000     2.283071000000     0.250242000000     1.007825032230
         O            0.153067000000    -3.161383000000    -1.487612000000    15.994914619570
         H            0.216689000000    -2.247035000000    -1.168259000000     1.007825032230
         H            0.001661000000    -3.027025000000    -2.433230000000     1.007825032230
         O           -2.154109000000     1.418877000000    -2.303659000000    15.994914619570
         H           -2.330310000000     0.966645000000    -3.084746000000     1.007825032230
         H           -1.379206000000     0.970868000000    -1.937812000000     1.007825032230
         O           -0.699327000000     0.060744000000     3.039694000000    15.994914619570
         H           -0.594770000000     0.380454000000     2.170591000000     1.007825032230
         H            0.152358000000    -0.312270000000     3.329137000000     1.007825032230
         O            0.885237000000     0.524743000000    -3.039093000000    15.994914619570
         H            0.866842000000     0.462270000000    -2.115711000000     1.007825032230
         H            0.908147000000     1.420376000000    -3.360499000000     1.007825032230

  Charge       = -1
  Multiplicity = 1
  Basis Set: AUG-CC-PVTZ
    Blend: AUG-CC-PVTZ
  Basis Set: (AUG-CC-PVTZ AUX)
    Blend: AUG-CC-PVTZ-JKFIT

    Orbital Energies [Eh]
    ---------------------

    Doubly Occupied:

       1A   -489.810329     2A    -64.951149     3A    -58.305631
       4A    -58.305611     5A    -58.305580     6A    -20.433335
       7A    -20.431412     8A    -20.430519     9A    -20.424941
      10A    -20.424022    11A    -20.412230    12A     -9.623735
      13A     -7.231433    14A     -7.231295    15A     -7.231076
      16A     -2.973011    17A     -2.973002    18A     -2.972746
      19A     -2.972613    20A     -2.972559    21A     -1.233386
      22A     -1.232802    23A     -1.224229    24A     -1.219107
      25A     -1.215028    26A     -1.205524    27A     -0.796908
      28A     -0.625228    29A     -0.621344    30A     -0.589230
      31A     -0.586608    32A     -0.580812    33A     -0.571746
      34A     -0.457839    35A     -0.455532    36A     -0.451839
      37A     -0.449366    38A     -0.448265    39A     -0.436154
      40A     -0.388025    41A     -0.386574    42A     -0.376454
      43A     -0.372228    44A     -0.372010    45A     -0.362784
      46A     -0.242938    47A     -0.239659    48A     -0.237706

  @DF-RHF Final Energy: -3028.94791392395700

   => Energetics <=

    Nuclear Repulsion Energy =            566.5257952785294719
    One-Electron Energy =               -5359.3563032587217094
    Two-Electron Energy =                1763.8825940562351207
    Total Energy =                      -3028.9479139239570031
 Dipole X            :        -47.7035464           48.2958156            0.5922692
 Dipole Y            :        -44.2148290           43.7385956           -0.4762335
 Dipole Z            :         37.2269664          -37.9230617           -0.6960953
 Magnitude           :                                                    1.0305968
  Basis Set: (AUG-CC-PVTZ AUX)
    Blend: AUG-CC-PVTZ-RI
	 Reference Energy          =   -3028.9479139239570031 [Eh]
	 Singles Energy            =      -0.0000000000000000 [Eh]
	 Same-Spin Energy          =      -0.5155591894760458 [Eh]
	 Opposite-Spin Energy      =      -1.5184184538617849 [Eh]
	 Correlation Energy        =      -2.0339776433378307 [Eh]
	 Total Energy              =   -3030.9818915672949515 [Eh]

	 ================> DF-SCS-MP2 Energies <==================
	-----------------------------------------------------------
	 SCS Same-Spin Scale       =       0.3333333333333333 [-]
	 SCS Opposite-Spin Scale   =       1.2000000000000000 [-]
	 SCS Same-Spin Energy      =      -0.1718530631586819 [Eh]
	 SCS Opposite-Spin Energy  =      -1.8221021446341417 [Eh]
	 SCS Correlation Energy    =      -1.9939552077928235 [Eh]
	 SCS Total Energy          =   -3030.9418691317496268 [Eh]
	-----------------------------------------------------------

*** Psi4 exiting successfully. Buy a developer a beer!
