                               Psi4 1.9 release

  ==> Input File <==

--------------------------------------------------------------------------
MEMORY 60 GB

molecule dimer {
-1 1
Br     0.000000     0.000000     0.000000
--
0 1
O      2.811524     1.249320    -1.388987
H      1.946830     1.247401    -0.997053
H      3.333840     0.621936    -0.862941
O      0.730217    -0.632562    -3.163435
H      0.536797    -0.243198    -2.271879
H     -0.106351    -1.015408    -3.475712
O      0.512458    -2.117774     2.783375
H     -0.374234    -2.073142     3.177067
H      0.435196    -1.601621     1.947776
O     -2.791734     2.004077    -0.136779
H     -2.751611     2.294819    -1.051084
H     -2.113860     2.543174     0.294439
O      1.179334    -3.203196    -0.267623
H      1.473685    -3.396931    -1.169483
H      0.786142    -2.333499    -0.274332
O      2.267015     1.055756     2.263133
H      1.546156     0.892135     2.866249
H      2.080614     0.524899     1.492348

units ang
no_reorient
no_com
symmetry c1
}

set {
basis        aug-cc-pVTZ
scf_type     df
}

energy("mp2", bsse_type="cp")
--------------------------------------------------------------------------

                               Psi4 1.9 release
    Molecular point group: c1
  Charge       = 0
  Multiplicity = 1
  Basis Set: AUG-CC-PVTZ
    Blend: AUG-CC-PVTZ
  Basis Set: (AUG-CC-PVTZ AUX)
    Blend: AUG-CC-PVTZ-JKFIT
  @DF-RHF Final Energy:  -456.34520189518673
    Total Energy =                       -456.3452018951867331
 Dipole X            :        -85.6602901           84.0242458           -1.6360444
 Dipole Y            :         30.0844114          -29.6582443            0.4261671
 Dipole Z            :         -1.0989209            0.7424110           -0.3565098
 Magnitude           :                                                    1.7278191
  Basis Set: (AUG-CC-PVTZ AUX)
    Blend: AUG-CC-PVTZ-RI
	 Reference Energy          =    -456.3452018951867331 [Eh]
	 Singles Energy            =      -0.0000000000000000 [Eh]
	 Same-Spin Energy          =      -0.4134263855374247 [Eh]
	 Opposite-Spin Energy      =      -1.3001668711128591 [Eh]
	 Correlation Energy        =      -1.7135932566502838 [Eh]
	 Total Energy              =    -458.0587951518369891 [Eh]
	 SCS Total Energy          =    -458.0432109357013246 [Eh]
                               Psi4 1.9 release
    Molecular point group: c1
  Multiplicity = 1
  Basis Set: AUG-CC-PVTZ
    Blend: AUG-CC-PVTZ
  Basis Set: (AUG-CC-PVTZ AUX)
    Blend: AUG-CC-PVTZ-JKFIT
  @DF-RHF Final Energy: -2572.53373496629820
    Total Energy =                      -2572.5337349662981978
  Basis Set: (AUG-CC-PVTZ AUX)
	 Singles Energy            =      -0.0000000000000000 [Eh]
	 Same-Spin Energy          =      -0.0915716417530342 [Eh]
	 Opposite-Spin Energy      =      -0.2131571161350125 [Eh]
	 Correlation Energy        =      -0.3047287578880467 [Eh]
	 Total Energy              =   -2572.8384637241861128 [Eh]
	 SCS Total Energy          =   -2572.8200473862443687 [Eh]
                               Psi4 1.9 release
    Molecular point group: c1

    Geometry (in Bohr), charge = -1, multiplicity = 1:

       Center              X                  Y                   Z               Mass
    ------------   -----------------  -----------------  -----------------  -----------------
         BR           0.000000000000     0.000000000000     0.000000000000    78.918337600000
         O            5.313010355152     2.360872643057    -2.624805021821    15.994914619570
         H            3.678975512825     2.357246258622    -1.884157102566     1.007825032230
         H            6.300044546096     1.175288707563    -1.630722152429     1.007825032230
         O            1.379910142153    -1.195368937372    -5.978025765688    15.994914619570
         H            1.014399314967    -0.459577614259    -4.293229100179     1.007825032230
         H           -0.200974263169    -1.918843025599    -6.568143770967     1.007825032230
         O            0.968405270800    -4.002012855615     5.259816454446    15.994914619570
         H           -0.707199766835    -3.917670599184     6.003786512230     1.007825032230
         H            0.822401250895    -3.026625046782     3.680763193740     1.007825032230
         O           -5.275612675129     3.787156664329    -0.258474849714    15.994914619570
         H           -5.199791193797     4.336579417497    -1.986260894851     1.007825032230
         H           -3.994616467560     4.805902349385     0.556409070654     1.007825032230
         O            2.228618270441    -6.053163166162    -0.505734174873    15.994914619570
         H            2.784861045195    -6.419269257078    -2.210002578379     1.007825032230
         H            1.485593075720    -4.409674024030    -0.518412347449     1.007825032230
         O            4.284037472305     1.995089695309     4.276701555486    15.994914619570
         H            2.921811387233     1.685890816935     5.416425617367     1.007825032230
         H            3.931790632793     0.991915353527     2.820129003875     1.007825032230

  Charge       = -1
  Multiplicity = 1
  Basis Set: AUG-CC-PVTZ
    Blend: AUG-CC-PVTZ
  Basis Set: (AUG-CC-PVTZ AUX)
    Blend: AUG-CC-PVTZ-JKFIT

    Orbital Energies [Eh]
    ---------------------

    Doubly Occupied:

       1A   -489.798918     2A    -64.939504     3A    -58.294015
       4A    -58.293968     5A    -58.293948     6A    -20.454080
       7A    -20.428689     8A    -20.421188     9A    -20.421081
      10A    -20.418271    11A    -20.417571    12A     -9.611929
      13A     -7.219676    14A     -7.219373    15A     -7.219228
      16A     -2.961308    17A     -2.961230    18A     -2.961054
      19A     -2.960667    20A     -2.960642    21A     -1.237119
      22A     -1.212427    23A     -1.206004    24A     -1.204834
      25A     -1.202443    26A     -1.195027    27A     -0.780618
      28A     -0.597812    29A     -0.581080    30A     -0.579844
      31A     -0.574503    32A     -0.565783    33A     -0.562232
      34A     -0.473161    35A     -0.447369    36A     -0.445128
      37A     -0.441573    38A     -0.436397    39A     -0.434860
      40A     -0.397302    41A     -0.372281    42A     -0.367550
      43A     -0.364466    44A     -0.363651    45A     -0.362732
      46A     -0.230372    47A     -0.225400    48A     -0.223046

  @DF-RHF Final Energy: -3028.93631780940359

   => Energetics <=

    Nuclear Repulsion Energy =            558.8369084134557170
    One-Electron Energy =               -5344.8637324098799581
    Two-Electron Energy =                1757.0905061870205373
    Total Energy =                      -3028.9363178094035902
 Dipole X            :        -86.3295091           84.0242458           -2.3052633
 Dipole Y            :         30.4343934          -29.6582443            0.7761490
 Dipole Z            :         -0.9915317            0.7424110           -0.2491206
 Magnitude           :                                                    2.4451396
  Basis Set: (AUG-CC-PVTZ AUX)
    Blend: AUG-CC-PVTZ-RI
	 Reference Energy          =   -3028.9363178094035902 [Eh]
	 Singles Energy            =      -0.0000000000000000 [Eh]
	 Same-Spin Energy          =      -0.5154312933633847 [Eh]
	 Opposite-Spin Energy      =      -1.5210297028853841 [Eh]
	 Correlation Energy        =      -2.0364609962487688 [Eh]
	 Total Energy              =   -3030.9727788056525242 [Eh]

	 ================> DF-SCS-MP2 Energies <==================
	-----------------------------------------------------------
	 SCS Same-Spin Scale       =       0.3333333333333333 [-]
	 SCS Opposite-Spin Scale   =       1.2000000000000000 [-]
	 SCS Same-Spin Energy      =      -0.1718104311211282 [Eh]
	 SCS Opposite-Spin Energy  =      -1.8252356434624608 [Eh]
	 SCS Correlation Energy    =      -1.9970460745835890 [Eh]
	 SCS Total Energy          =   -3030.9333638839871128 [Eh]
	-----------------------------------------------------------

*** Psi4 exiting successfully. Buy a developer a beer!
