                               Psi4 1.8.2 release

  ==> Input File <==

--------------------------------------------------------------------------
MEMORY 60 GB

molecule dimer {
0 1
Gh(Br)     0.000000     0.000000     0.000000
O          0.735787    -1.007456    -3.069810
H          0.644497    -0.834554    -2.122033
H          0.006923    -0.466036    -3.438270
Gh(O)     -1.018718    -3.113955    -0.290668
Gh(H)     -0.721929    -2.218123    -0.066292
Gh(H)     -1.485195    -3.443926     0.484674
Gh(O)      0.210699    -0.756624     3.212958
Gh(H)     -0.457413    -0.410318     3.755700
Gh(H)     -0.069501    -0.614574     2.311108
Gh(O)     -2.962023    -1.017792    -1.096322
Gh(H)     -3.354668    -1.449903    -0.277945
Gh(H)     -2.162494    -0.558488    -0.874702
Gh(O)      2.892807    -1.828066    -0.264556
Gh(H)      2.681291    -1.012210     0.216583
Gh(H)      2.150125    -2.389570    -0.124064

units ang
no_reorient
no_com
symmetry c1
}

set {
basis        aug-cc-pVTZ
scf_type     df
}

energy("mp2")
--------------------------------------------------------------------------

    Molecular point group: c1

    Geometry (in Angstrom), charge = 0, multiplicity = 1:

       Center              X                  Y                   Z               Mass
    ------------   -----------------  -----------------  -----------------  -----------------
      Gh(BR)          0.000000000000     0.000000000000     0.000000000000    78.918337600000
         O            0.735787000000    -1.007456000000    -3.069810000000    15.994914619570
         H            0.644497000000    -0.834554000000    -2.122033000000     1.007825032230
         H            0.006923000000    -0.466036000000    -3.438270000000     1.007825032230
      Gh(O)          -1.018718000000    -3.113955000000    -0.290668000000    15.994914619570
      Gh(H)          -0.721929000000    -2.218123000000    -0.066292000000     1.007825032230
      Gh(H)          -1.485195000000    -3.443926000000     0.484674000000     1.007825032230
      Gh(O)           0.210699000000    -0.756624000000     3.212958000000    15.994914619570
      Gh(H)          -0.457413000000    -0.410318000000     3.755700000000     1.007825032230
      Gh(H)          -0.069501000000    -0.614574000000     2.311108000000     1.007825032230
      Gh(O)          -2.962023000000    -1.017792000000    -1.096322000000    15.994914619570
      Gh(H)          -3.354668000000    -1.449903000000    -0.277945000000     1.007825032230
      Gh(H)          -2.162494000000    -0.558488000000    -0.874702000000     1.007825032230
      Gh(O)           2.892807000000    -1.828066000000    -0.264556000000    15.994914619570
      Gh(H)           2.681291000000    -1.012210000000     0.216583000000     1.007825032230
      Gh(H)           2.150125000000    -2.389570000000    -0.124064000000     1.007825032230

  Charge       = 0
  Multiplicity = 1
  Basis Set: AUG-CC-PVTZ
    Blend: AUG-CC-PVTZ
  Basis Set: (AUG-CC-PVTZ AUX)
    Blend: AUG-CC-PVTZ-JKFIT

    Orbital Energies [Eh]
    ---------------------

    Doubly Occupied:

       1A    -20.571347     2A     -1.347296     3A     -0.703017
       4A     -0.587566     5A     -0.509890

  @DF-RHF Final Energy:   -76.05867481170205

   => Energetics <=

    Nuclear Repulsion Energy =              9.0458187585887337
    One-Electron Energy =                -122.7707521117422971
    Two-Electron Energy =                  37.6662585414515121
    Total Energy =                        -76.0586748117020477
 Dipole X            :        -12.8888531           12.3544927           -0.5343604
 Dipole Y            :         18.1542435          -17.6882863            0.4659572
 Dipole Z            :         57.2968314          -56.9162511            0.3805803
 Magnitude           :                                                    0.8046729
  Basis Set: (AUG-CC-PVTZ AUX)
    Blend: AUG-CC-PVTZ-RI
	 Reference Energy          =     -76.0586748117020477 [Eh]
	 Singles Energy            =      -0.0000000000000000 [Eh]
	 Same-Spin Energy          =      -0.0687530372097963 [Eh]
	 Opposite-Spin Energy      =      -0.2170020911405370 [Eh]
	 Correlation Energy        =      -0.2857551283503333 [Eh]
	 Total Energy              =     -76.3444299400523789 [Eh]

	 ================> DF-SCS-MP2 Energies <==================
	-----------------------------------------------------------
	 SCS Same-Spin Scale       =       0.3333333333333333 [-]
	 SCS Opposite-Spin Scale   =       1.2000000000000000 [-]
	 SCS Same-Spin Energy      =      -0.0229176790699321 [Eh]
	 SCS Opposite-Spin Energy  =      -0.2604025093686444 [Eh]
	 SCS Correlation Energy    =      -0.2833201884385765 [Eh]
	 SCS Total Energy          =     -76.3419950001406278 [Eh]
	-----------------------------------------------------------

*** Psi4 exiting successfully. Buy a developer a beer!
