                               Psi4 1.8.2 release

  ==> Input File <==

--------------------------------------------------------------------------
MEMORY 60 GB

molecule dimer {
0 1
Gh(Br)     0.000000     0.000000     0.000000
Gh(O)     -1.837505     2.686087     1.441240
Gh(H)     -1.395781     2.850014     0.561055
Gh(H)     -1.247273     2.007246     1.809128
Gh(O)      2.018282     0.967796     2.748598
Gh(H)      1.377311     1.015065     1.933015
Gh(H)      2.889078     0.608425     2.456849
Gh(O)     -0.998379     0.096685     3.070896
Gh(H)     -0.488891     0.217516     2.223392
Gh(H)     -1.866484     0.371090     2.902094
Gh(O)     -3.343571     0.637488    -0.842857
Gh(H)     -3.282439     0.319505    -1.793616
Gh(H)     -2.688556     0.274884    -0.310570
Gh(O)      1.336103    -3.264628    -0.543756
Gh(H)      0.839531    -2.590942    -1.024661
Gh(H)      1.966802    -2.869397     0.087043
O         -0.753078    -3.228067     1.448531
H          0.057408    -3.187980     0.982465
H         -1.283212    -2.484986     1.163089
Gh(O)      3.039103     0.547804    -1.228230
Gh(H)      3.591640    -0.311332    -1.209765
Gh(H)      2.221180     0.248292    -0.808211

units ang
no_reorient
no_com
symmetry c1
}

set {
basis        aug-cc-pVTZ
scf_type     df
}

energy("mp2")
--------------------------------------------------------------------------

    Molecular point group: c1

    Geometry (in Angstrom), charge = 0, multiplicity = 1:

       Center              X                  Y                   Z               Mass
    ------------   -----------------  -----------------  -----------------  -----------------
      Gh(BR)          0.000000000000     0.000000000000     0.000000000000    78.918337600000
      Gh(O)          -1.837505000000     2.686087000000     1.441240000000    15.994914619570
      Gh(H)          -1.395781000000     2.850014000000     0.561055000000     1.007825032230
      Gh(H)          -1.247273000000     2.007246000000     1.809128000000     1.007825032230
      Gh(O)           2.018282000000     0.967796000000     2.748598000000    15.994914619570
      Gh(H)           1.377311000000     1.015065000000     1.933015000000     1.007825032230
      Gh(H)           2.889078000000     0.608425000000     2.456849000000     1.007825032230
      Gh(O)          -0.998379000000     0.096685000000     3.070896000000    15.994914619570
      Gh(H)          -0.488891000000     0.217516000000     2.223392000000     1.007825032230
      Gh(H)          -1.866484000000     0.371090000000     2.902094000000     1.007825032230
      Gh(O)          -3.343571000000     0.637488000000    -0.842857000000    15.994914619570
      Gh(H)          -3.282439000000     0.319505000000    -1.793616000000     1.007825032230
      Gh(H)          -2.688556000000     0.274884000000    -0.310570000000     1.007825032230
      Gh(O)           1.336103000000    -3.264628000000    -0.543756000000    15.994914619570
      Gh(H)           0.839531000000    -2.590942000000    -1.024661000000     1.007825032230
      Gh(H)           1.966802000000    -2.869397000000     0.087043000000     1.007825032230
         O           -0.753078000000    -3.228067000000     1.448531000000    15.994914619570
         H            0.057408000000    -3.187980000000     0.982465000000     1.007825032230
         H           -1.283212000000    -2.484986000000     1.163089000000     1.007825032230
      Gh(O)           3.039103000000     0.547804000000    -1.228230000000    15.994914619570
      Gh(H)           3.591640000000    -0.311332000000    -1.209765000000     1.007825032230
      Gh(H)           2.221180000000     0.248292000000    -0.808211000000     1.007825032230

  Charge       = 0
  Multiplicity = 1
  Basis Set: AUG-CC-PVTZ
    Blend: AUG-CC-PVTZ
  Basis Set: (AUG-CC-PVTZ AUX)
    Blend: AUG-CC-PVTZ-JKFIT

    Orbital Energies [Eh]
    ---------------------

    Doubly Occupied:

       1A    -20.563852     2A     -1.357420     3A     -0.729505
       4A     -0.581419     5A     -0.510463

  @DF-RHF Final Energy:   -76.06097694212988

   => Energetics <=

    Nuclear Repulsion Energy =              9.2974288892096730
    One-Electron Energy =                -123.2314915692892612
    Two-Electron Energy =                  37.8730857379497081
    Total Energy =                        -76.0609769421298836
 Dipole X            :         13.8936836          -13.7013232            0.1923604
 Dipole Y            :         60.0492462          -59.5216524            0.5275938
 Dipole Z            :        -26.4613895           25.9531244           -0.5082651
 Magnitude           :                                                    0.7574240
  Basis Set: (AUG-CC-PVTZ AUX)
    Blend: AUG-CC-PVTZ-RI
	 Reference Energy          =     -76.0609769421298836 [Eh]
	 Singles Energy            =      -0.0000000000000000 [Eh]
	 Same-Spin Energy          =      -0.0681746851569290 [Eh]
	 Opposite-Spin Energy      =      -0.2154422340922103 [Eh]
	 Correlation Energy        =      -0.2836169192491393 [Eh]
	 Total Energy              =     -76.3445938613790247 [Eh]

	 ================> DF-SCS-MP2 Energies <==================
	-----------------------------------------------------------
	 SCS Same-Spin Scale       =       0.3333333333333333 [-]
	 SCS Opposite-Spin Scale   =       1.2000000000000000 [-]
	 SCS Same-Spin Energy      =      -0.0227248950523097 [Eh]
	 SCS Opposite-Spin Energy  =      -0.2585306809106523 [Eh]
	 SCS Correlation Energy    =      -0.2812555759629620 [Eh]
	 SCS Total Energy          =     -76.3422325180928425 [Eh]
	-----------------------------------------------------------

*** Psi4 exiting successfully. Buy a developer a beer!
