                               Psi4 1.8.2 release

  ==> Input File <==

--------------------------------------------------------------------------
MEMORY 60 GB

molecule dimer {
-1 1
Br         0.000000     0.000000     0.000000
Gh(O)     -2.021869    -2.179823     1.217412
Gh(H)     -2.921871    -1.867399     1.198558
Gh(H)     -1.513540    -1.451927     0.815047
Gh(O)     -2.961999     0.929139    -1.272353
Gh(H)     -2.728774     1.887839    -1.108211
Gh(H)     -2.207349     0.482925    -0.838278
Gh(O)     -2.117015     1.588878     2.246208
Gh(H)     -1.423790     1.453822     1.551659
Gh(H)     -1.773078     0.949786     2.896329
Gh(O)     -0.330378    -1.158355    -3.243256
Gh(H)     -0.343064    -0.673188    -2.378621
Gh(H)     -0.323750    -2.040751    -2.892653

units ang
no_reorient
no_com
symmetry c1
}

set {
basis        aug-cc-pVTZ
scf_type     df
}

energy("mp2")
--------------------------------------------------------------------------

    Molecular point group: c1

    Geometry (in Angstrom), charge = -1, multiplicity = 1:

       Center              X                  Y                   Z               Mass
    ------------   -----------------  -----------------  -----------------  -----------------
         BR           0.000000000000     0.000000000000     0.000000000000    78.918337600000
      Gh(O)          -2.021869000000    -2.179823000000     1.217412000000    15.994914619570
      Gh(H)          -2.921871000000    -1.867399000000     1.198558000000     1.007825032230
      Gh(H)          -1.513540000000    -1.451927000000     0.815047000000     1.007825032230
      Gh(O)          -2.961999000000     0.929139000000    -1.272353000000    15.994914619570
      Gh(H)          -2.728774000000     1.887839000000    -1.108211000000     1.007825032230
      Gh(H)          -2.207349000000     0.482925000000    -0.838278000000     1.007825032230
      Gh(O)          -2.117015000000     1.588878000000     2.246208000000    15.994914619570
      Gh(H)          -1.423790000000     1.453822000000     1.551659000000     1.007825032230
      Gh(H)          -1.773078000000     0.949786000000     2.896329000000     1.007825032230
      Gh(O)          -0.330378000000    -1.158355000000    -3.243256000000    15.994914619570
      Gh(H)          -0.343064000000    -0.673188000000    -2.378621000000     1.007825032230
      Gh(H)          -0.323750000000    -2.040751000000    -2.892653000000     1.007825032230

  Charge       = -1
  Multiplicity = 1
  Basis Set: AUG-CC-PVTZ
    Blend: AUG-CC-PVTZ
  Basis Set: (AUG-CC-PVTZ AUX)
    Blend: AUG-CC-PVTZ-JKFIT

    Orbital Energies [Eh]
    ---------------------

    Doubly Occupied:

       1A   -489.722040     2A    -64.861663     3A    -58.216194
       4A    -58.216193     5A    -58.216192     6A     -9.533245
       7A     -7.140581     8A     -7.140574     9A     -7.140567
      10A     -2.882289    11A     -2.882288    12A     -2.882278
      13A     -2.882259    14A     -2.882251    15A     -0.685993
      16A     -0.139338    17A     -0.139335    18A     -0.139334

  @DF-RHF Final Energy: -2572.53372256918783

   => Energetics <=

    Nuclear Repulsion Energy =              0.0000000000000000
    One-Electron Energy =               -3593.6622203079182327
    Two-Electron Energy =                1021.1284977387305162
    Total Energy =                      -2572.5337225691878302
 Dipole X            :         -0.0002300            0.0000000           -0.0002300
 Dipole Y            :         -0.0000259            0.0000000           -0.0000259
 Dipole Z            :         -0.0001317            0.0000000           -0.0001317
 Magnitude           :                                                    0.0002663
  Basis Set: (AUG-CC-PVTZ AUX)
    Blend: AUG-CC-PVTZ-RI
	 Reference Energy          =   -2572.5337225691878302 [Eh]
	 Singles Energy            =      -0.0000000000000000 [Eh]
	 Same-Spin Energy          =      -0.0908385541108450 [Eh]
	 Opposite-Spin Energy      =      -0.2114382277977659 [Eh]
	 Correlation Energy        =      -0.3022767819086109 [Eh]
	 Total Energy              =   -2572.8359993510962340 [Eh]

	 ================> DF-SCS-MP2 Energies <==================
	-----------------------------------------------------------
	 SCS Same-Spin Scale       =       0.3333333333333333 [-]
	 SCS Opposite-Spin Scale   =       1.2000000000000000 [-]
	 SCS Same-Spin Energy      =      -0.0302795180369483 [Eh]
	 SCS Opposite-Spin Energy  =      -0.2537258733573191 [Eh]
	 SCS Correlation Energy    =      -0.2840053913942674 [Eh]
	 SCS Total Energy          =   -2572.8177279605820331 [Eh]
	-----------------------------------------------------------

*** Psi4 exiting successfully. Buy a developer a beer!
