                               Psi4 1.8.2 release

  ==> Input File <==

--------------------------------------------------------------------------
MEMORY 60 GB

molecule dimer {
0 1
Gh(Br)     0.000000     0.000000     0.000000
Gh(O)      2.794095    -1.387479     0.567346
Gh(H)      1.955440    -0.895211     0.196524
Gh(H)      3.481853    -0.702595     0.669128
O          2.335776     1.864406     0.831723
H          1.699945     1.187957     0.609791
H          1.817179     2.598588     1.156693
Gh(O)     -0.357779     0.030054     3.245802
Gh(H)     -0.127128     0.352128     2.389975
Gh(H)     -0.011989     0.692795     3.899278

units ang
no_reorient
no_com
symmetry c1
}

set {
basis        aug-cc-pVTZ
scf_type     df
}

energy("mp2")
--------------------------------------------------------------------------

    Molecular point group: c1

    Geometry (in Angstrom), charge = 0, multiplicity = 1:

       Center              X                  Y                   Z               Mass
    ------------   -----------------  -----------------  -----------------  -----------------
      Gh(BR)          0.000000000000     0.000000000000     0.000000000000    78.918337600000
      Gh(O)           2.794095000000    -1.387479000000     0.567346000000    15.994914619570
      Gh(H)           1.955440000000    -0.895211000000     0.196524000000     1.007825032230
      Gh(H)           3.481853000000    -0.702595000000     0.669128000000     1.007825032230
         O            2.335776000000     1.864406000000     0.831723000000    15.994914619570
         H            1.699945000000     1.187957000000     0.609791000000     1.007825032230
         H            1.817179000000     2.598588000000     1.156693000000     1.007825032230
      Gh(O)          -0.357779000000     0.030054000000     3.245802000000    15.994914619570
      Gh(H)          -0.127128000000     0.352128000000     2.389975000000     1.007825032230
      Gh(H)          -0.011989000000     0.692795000000     3.899278000000     1.007825032230

  Charge       = 0
  Multiplicity = 1
  Basis Set: AUG-CC-PVTZ
    Blend: AUG-CC-PVTZ
  Basis Set: (AUG-CC-PVTZ AUX)
    Blend: AUG-CC-PVTZ-JKFIT

    Orbital Energies [Eh]
    ---------------------

    Doubly Occupied:

       1A    -20.566467     2A     -1.354133     3A     -0.720240
       4A     -0.583967     5A     -0.510311

  @DF-RHF Final Energy:   -76.06084122619741

   => Energetics <=

    Nuclear Repulsion Energy =              9.2129706008757335
    One-Electron Energy =                -123.0773835597166084
    Two-Electron Energy =                  37.8035717326434764
    Total Energy =                        -76.0608412261973967
 Dipole X            :        -42.7290098           41.9582166           -0.7707933
 Dipole Y            :        -35.3032023           35.3412668            0.0380645
 Dipole Z            :        -15.8435275           15.9120004            0.0684730
 Magnitude           :                                                    0.7747643
  Basis Set: (AUG-CC-PVTZ AUX)
    Blend: AUG-CC-PVTZ-RI
	 Reference Energy          =     -76.0608412261974109 [Eh]
	 Singles Energy            =      -0.0000000000000000 [Eh]
	 Same-Spin Energy          =      -0.0683523365042536 [Eh]
	 Opposite-Spin Energy      =      -0.2158913969044014 [Eh]
	 Correlation Energy        =      -0.2842437334086549 [Eh]
	 Total Energy              =     -76.3450849596060692 [Eh]

	 ================> DF-SCS-MP2 Energies <==================
	-----------------------------------------------------------
	 SCS Same-Spin Scale       =       0.3333333333333333 [-]
	 SCS Opposite-Spin Scale   =       1.2000000000000000 [-]
	 SCS Same-Spin Energy      =      -0.0227841121680845 [Eh]
	 SCS Opposite-Spin Energy  =      -0.2590696762852817 [Eh]
	 SCS Correlation Energy    =      -0.2818537884533662 [Eh]
	 SCS Total Energy          =     -76.3426950146507721 [Eh]
	-----------------------------------------------------------

*** Psi4 exiting successfully. Buy a developer a beer!
