                               Psi4 1.8.2 release

  ==> Input File <==

--------------------------------------------------------------------------
MEMORY 60 GB

molecule dimer {
-1 1
Br         0.000000     0.000000     0.000000
O         -3.013040     1.056931    -1.652607
H         -3.813809     1.223376    -2.275182
H         -2.526972     0.362284    -2.116240
O          1.719771     0.511071     2.753016
H          1.308822     0.434263     1.867281
H          1.064406     1.091765     3.184491
O          2.086628    -1.623677    -2.132399
H          1.634885    -1.468970    -1.284862
H          2.494299    -0.787280    -2.350925
O          1.986251    -2.482713     1.611018
H          2.888043    -2.189647     1.545517
H          1.404825    -1.913044     1.045753
O         -1.890204    -2.588045    -0.295930
H         -1.108235    -1.992414    -0.188325
H         -2.004398    -3.102901     0.508548

units ang
no_reorient
no_com
symmetry c1
}

set {
basis        aug-cc-pVTZ
scf_type     df
}

energy("mp2")
--------------------------------------------------------------------------

    Molecular point group: c1

    Geometry (in Angstrom), charge = -1, multiplicity = 1:

       Center              X                  Y                   Z               Mass
    ------------   -----------------  -----------------  -----------------  -----------------
         BR           0.000000000000     0.000000000000     0.000000000000    78.918337600000
         O           -3.013040000000     1.056931000000    -1.652607000000    15.994914619570
         H           -3.813809000000     1.223376000000    -2.275182000000     1.007825032230
         H           -2.526972000000     0.362284000000    -2.116240000000     1.007825032230
         O            1.719771000000     0.511071000000     2.753016000000    15.994914619570
         H            1.308822000000     0.434263000000     1.867281000000     1.007825032230
         H            1.064406000000     1.091765000000     3.184491000000     1.007825032230
         O            2.086628000000    -1.623677000000    -2.132399000000    15.994914619570
         H            1.634885000000    -1.468970000000    -1.284862000000     1.007825032230
         H            2.494299000000    -0.787280000000    -2.350925000000     1.007825032230
         O            1.986251000000    -2.482713000000     1.611018000000    15.994914619570
         H            2.888043000000    -2.189647000000     1.545517000000     1.007825032230
         H            1.404825000000    -1.913044000000     1.045753000000     1.007825032230
         O           -1.890204000000    -2.588045000000    -0.295930000000    15.994914619570
         H           -1.108235000000    -1.992414000000    -0.188325000000     1.007825032230
         H           -2.004398000000    -3.102901000000     0.508548000000     1.007825032230

  Charge       = -1
  Multiplicity = 1
  Basis Set: AUG-CC-PVTZ
    Blend: AUG-CC-PVTZ
  Basis Set: (AUG-CC-PVTZ AUX)
    Blend: AUG-CC-PVTZ-JKFIT

    Orbital Energies [Eh]
    ---------------------

    Doubly Occupied:

       1A   -489.785995     2A    -64.926533     3A    -58.281041
       4A    -58.280989     5A    -58.280977     6A    -20.452429
       7A    -20.420420     8A    -20.415094     9A    -20.412428
      10A    -20.407328    11A     -9.598973    12A     -7.206658
      13A     -7.206447    14A     -7.206236    15A     -2.948331
      16A     -2.948259    17A     -2.948039    18A     -2.947742
      19A     -2.947708    20A     -1.212832    21A     -1.204981
      22A     -1.195446    23A     -1.190830    24A     -1.185590
      25A     -0.766871    26A     -0.574671    27A     -0.570084
      28A     -0.569816    29A     -0.562046    30A     -0.543897
      31A     -0.456702    32A     -0.443229    33A     -0.440818
      34A     -0.426761    35A     -0.421606    36A     -0.384834
      37A     -0.366931    38A     -0.363522    39A     -0.351873
      40A     -0.349725    41A     -0.215450    42A     -0.213315
      43A     -0.208986

  @DF-RHF Final Energy: -2952.85921066743595

   => Energetics <=

    Nuclear Repulsion Energy =            435.8313345377258088
    One-Electron Energy =               -4993.6961992445012584
    Two-Electron Energy =                1605.0056540393400155
    Total Energy =                      -2952.8592106674359457
 Dipole X            :        -16.6377890           15.9816293           -0.6561597
 Dipole Y            :         95.1482854          -93.2656037            1.8826817
 Dipole Z            :         -4.7213681            4.1589848           -0.5623832
 Magnitude           :                                                    2.0715480
  Basis Set: (AUG-CC-PVTZ AUX)
    Blend: AUG-CC-PVTZ-RI
	 Reference Energy          =   -2952.8592106674359457 [Eh]
	 Singles Energy            =      -0.0000000000000000 [Eh]
	 Same-Spin Energy          =      -0.4456474431457966 [Eh]
	 Opposite-Spin Energy      =      -1.3048981085750706 [Eh]
	 Correlation Energy        =      -1.7505455517208672 [Eh]
	 Total Energy              =   -2954.6097562191566794 [Eh]

	 ================> DF-SCS-MP2 Energies <==================
	-----------------------------------------------------------
	 SCS Same-Spin Scale       =       0.3333333333333333 [-]
	 SCS Opposite-Spin Scale   =       1.2000000000000000 [-]
	 SCS Same-Spin Energy      =      -0.1485491477152655 [Eh]
	 SCS Opposite-Spin Energy  =      -1.5658777302900846 [Eh]
	 SCS Correlation Energy    =      -1.7144268780053502 [Eh]
	 SCS Total Energy          =   -2954.5736375454412155 [Eh]
	-----------------------------------------------------------

*** Psi4 exiting successfully. Buy a developer a beer!
