                               Psi4 1.8.2 release

  ==> Input File <==

--------------------------------------------------------------------------
MEMORY 60 GB

molecule dimer {
-1 1
Br         0.000000     0.000000     0.000000
O          2.452911    -0.995525     2.199232
H          3.132083    -1.275402     2.790759
H          2.338359    -1.739127     1.526334
O         -3.040005     0.614667    -1.483514
H         -2.166655     0.355003    -1.129877
H         -2.955149     0.617711    -2.466047
O         -0.201879    -0.214965    -3.389215
H         -0.892087    -0.868485    -3.563227
H         -0.029122    -0.354479    -2.467663
O          2.167253     1.963529    -1.986450
H          1.432173     1.531595    -1.573186
H          1.877952     2.248149    -2.830986
O          1.737886     2.376316     1.902304
H          1.869496     2.030453     2.758105
H          1.995270     1.750043     1.235313
O          1.036004    -2.754093    -1.296498
H          1.857363    -2.562526    -1.734994
H          0.655300    -2.037283    -0.779103

units ang
no_reorient
no_com
symmetry c1
}

set {
basis        aug-cc-pVTZ
scf_type     df
}

energy("mp2")
--------------------------------------------------------------------------

    Molecular point group: c1

    Geometry (in Angstrom), charge = -1, multiplicity = 1:

       Center              X                  Y                   Z               Mass
    ------------   -----------------  -----------------  -----------------  -----------------
         BR           0.000000000000     0.000000000000     0.000000000000    78.918337600000
         O            2.452911000000    -0.995525000000     2.199232000000    15.994914619570
         H            3.132083000000    -1.275402000000     2.790759000000     1.007825032230
         H            2.338359000000    -1.739127000000     1.526334000000     1.007825032230
         O           -3.040005000000     0.614667000000    -1.483514000000    15.994914619570
         H           -2.166655000000     0.355003000000    -1.129877000000     1.007825032230
         H           -2.955149000000     0.617711000000    -2.466047000000     1.007825032230
         O           -0.201879000000    -0.214965000000    -3.389215000000    15.994914619570
         H           -0.892087000000    -0.868485000000    -3.563227000000     1.007825032230
         H           -0.029122000000    -0.354479000000    -2.467663000000     1.007825032230
         O            2.167253000000     1.963529000000    -1.986450000000    15.994914619570
         H            1.432173000000     1.531595000000    -1.573186000000     1.007825032230
         H            1.877952000000     2.248149000000    -2.830986000000     1.007825032230
         O            1.737886000000     2.376316000000     1.902304000000    15.994914619570
         H            1.869496000000     2.030453000000     2.758105000000     1.007825032230
         H            1.995270000000     1.750043000000     1.235313000000     1.007825032230
         O            1.036004000000    -2.754093000000    -1.296498000000    15.994914619570
         H            1.857363000000    -2.562526000000    -1.734994000000     1.007825032230
         H            0.655300000000    -2.037283000000    -0.779103000000     1.007825032230

  Charge       = -1
  Multiplicity = 1
  Basis Set: AUG-CC-PVTZ
    Blend: AUG-CC-PVTZ
  Basis Set: (AUG-CC-PVTZ AUX)
    Blend: AUG-CC-PVTZ-JKFIT

    Orbital Energies [Eh]
    ---------------------

    Doubly Occupied:

       1A   -489.783616     2A    -64.924116     3A    -58.278611
       4A    -58.278590     5A    -58.278580     6A    -20.457938
       7A    -20.429726     8A    -20.419463     9A    -20.417499
      10A    -20.415233    11A    -20.411233    12A     -9.596483
      13A     -7.204012    14A     -7.203974    15A     -7.203914
      16A     -2.945624    17A     -2.945616    18A     -2.945535
      19A     -2.945458    20A     -2.945446    21A     -1.232893
      22A     -1.220951    23A     -1.215738    24A     -1.208059
      25A     -1.204945    26A     -1.191968    27A     -0.765099
      28A     -0.599609    29A     -0.598174    30A     -0.591478
      31A     -0.587270    32A     -0.578803    33A     -0.560959
      34A     -0.467453    35A     -0.460807    36A     -0.442005
      37A     -0.433472    38A     -0.427072    39A     -0.426892
      40A     -0.396788    41A     -0.378615    42A     -0.367984
      43A     -0.364589    44A     -0.362181    45A     -0.360590
      46A     -0.211895    47A     -0.211260    48A     -0.210797

  @DF-RHF Final Energy: -3028.93260884444135

   => Energetics <=

    Nuclear Repulsion Energy =            557.6118087515503703
    One-Electron Energy =               -5342.8707964144896323
    Two-Electron Energy =                1756.3263788184979148
    Total Energy =                      -3028.9326088444413472
 Dipole X            :        -79.5603016           79.9965345            0.4362329
 Dipole Y            :        -15.7315286           14.3904232           -1.3411054
 Dipole Z            :         77.5616941          -76.8508152            0.7108790
 Magnitude           :                                                    1.5793074
  Basis Set: (AUG-CC-PVTZ AUX)
    Blend: AUG-CC-PVTZ-RI
	 Reference Energy          =   -3028.9326088444413472 [Eh]
	 Singles Energy            =      -0.0000000000000000 [Eh]
	 Same-Spin Energy          =      -0.5143717017749656 [Eh]
	 Opposite-Spin Energy      =      -1.5181172046622107 [Eh]
	 Correlation Energy        =      -2.0324889064371763 [Eh]
	 Total Energy              =   -3030.9650977508786127 [Eh]

	 ================> DF-SCS-MP2 Energies <==================
	-----------------------------------------------------------
	 SCS Same-Spin Scale       =       0.3333333333333333 [-]
	 SCS Opposite-Spin Scale   =       1.2000000000000000 [-]
	 SCS Same-Spin Energy      =      -0.1714572339249885 [Eh]
	 SCS Opposite-Spin Energy  =      -1.8217406455946528 [Eh]
	 SCS Correlation Energy    =      -1.9931978795196412 [Eh]
	 SCS Total Energy          =   -3030.9258067239611592 [Eh]
	-----------------------------------------------------------

*** Psi4 exiting successfully. Buy a developer a beer!
