                               Psi4 1.8.2 release

  ==> Input File <==

--------------------------------------------------------------------------
MEMORY 60 GB

molecule dimer {
0 1
Gh(Br)     0.000000     0.000000     0.000000
Gh(O)     -2.781246     1.510084     1.569551
Gh(H)     -2.072540     1.009944     1.041255
Gh(H)     -3.635131     1.011783     1.573126
O         -1.440121    -2.331353    -1.915099
H         -1.006754    -1.730021    -1.255599
H         -1.064572    -3.197794    -1.969547
Gh(O)     -3.247932     0.467714    -1.516885
Gh(H)     -2.362877     0.540347    -1.151819
Gh(H)     -3.475365    -0.447640    -1.620254
Gh(O)      0.031526     3.421465    -0.300243
Gh(H)     -0.878325     3.780621    -0.011616
Gh(H)      0.054833     2.497967    -0.083518
Gh(O)      0.960104     0.920447    -2.955719
Gh(H)      0.402808     0.917896    -2.160409
Gh(H)      0.692381     1.632242    -3.631367

units ang
no_reorient
no_com
symmetry c1
}

set {
basis        aug-cc-pVTZ
scf_type     df
}

energy("mp2")
--------------------------------------------------------------------------

    Molecular point group: c1

    Geometry (in Angstrom), charge = 0, multiplicity = 1:

       Center              X                  Y                   Z               Mass
    ------------   -----------------  -----------------  -----------------  -----------------
      Gh(BR)          0.000000000000     0.000000000000     0.000000000000    78.918337600000
      Gh(O)          -2.781246000000     1.510084000000     1.569551000000    15.994914619570
      Gh(H)          -2.072540000000     1.009944000000     1.041255000000     1.007825032230
      Gh(H)          -3.635131000000     1.011783000000     1.573126000000     1.007825032230
         O           -1.440121000000    -2.331353000000    -1.915099000000    15.994914619570
         H           -1.006754000000    -1.730021000000    -1.255599000000     1.007825032230
         H           -1.064572000000    -3.197794000000    -1.969547000000     1.007825032230
      Gh(O)          -3.247932000000     0.467714000000    -1.516885000000    15.994914619570
      Gh(H)          -2.362877000000     0.540347000000    -1.151819000000     1.007825032230
      Gh(H)          -3.475365000000    -0.447640000000    -1.620254000000     1.007825032230
      Gh(O)           0.031526000000     3.421465000000    -0.300243000000    15.994914619570
      Gh(H)          -0.878325000000     3.780621000000    -0.011616000000     1.007825032230
      Gh(H)           0.054833000000     2.497967000000    -0.083518000000     1.007825032230
      Gh(O)           0.960104000000     0.920447000000    -2.955719000000    15.994914619570
      Gh(H)           0.402808000000     0.917896000000    -2.160409000000     1.007825032230
      Gh(H)           0.692381000000     1.632242000000    -3.631367000000     1.007825032230

  Charge       = 0
  Multiplicity = 1
  Basis Set: AUG-CC-PVTZ
    Blend: AUG-CC-PVTZ
  Basis Set: (AUG-CC-PVTZ AUX)
    Blend: AUG-CC-PVTZ-JKFIT

    Orbital Energies [Eh]
    ---------------------

    Doubly Occupied:

       1A    -20.564119     2A     -1.341096     3A     -0.729644
       4A     -0.562757     5A     -0.506159

  @DF-RHF Final Energy:   -76.05641495305920

   => Energetics <=

    Nuclear Repulsion Energy =              9.0665090320173984
    One-Electron Energy =                -122.8382952538933068
    Two-Electron Energy =                  37.7153712688167246
    Total Energy =                        -76.0564149530591891
 Dipole X            :         26.2379294          -25.6857131            0.5522163
 Dipole Y            :         44.3715203          -44.5571701           -0.1856498
 Dipole Z            :         35.4577979          -35.0467436            0.4110544
 Magnitude           :                                                    0.7130038
  Basis Set: (AUG-CC-PVTZ AUX)
    Blend: AUG-CC-PVTZ-RI
	 Reference Energy          =     -76.0564149530592033 [Eh]
	 Singles Energy            =      -0.0000000000000000 [Eh]
	 Same-Spin Energy          =      -0.0685138252528116 [Eh]
	 Opposite-Spin Energy      =      -0.2160178918827383 [Eh]
	 Correlation Energy        =      -0.2845317171355499 [Eh]
	 Total Energy              =     -76.3409466701947537 [Eh]

	 ================> DF-SCS-MP2 Energies <==================
	-----------------------------------------------------------
	 SCS Same-Spin Scale       =       0.3333333333333333 [-]
	 SCS Opposite-Spin Scale   =       1.2000000000000000 [-]
	 SCS Same-Spin Energy      =      -0.0228379417509372 [Eh]
	 SCS Opposite-Spin Energy  =      -0.2592214702592859 [Eh]
	 SCS Correlation Energy    =      -0.2820594120102231 [Eh]
	 SCS Total Energy          =     -76.3384743650694304 [Eh]
	-----------------------------------------------------------

*** Psi4 exiting successfully. Buy a developer a beer!
