                               Psi4 1.8.2 release

  ==> Input File <==

--------------------------------------------------------------------------
MEMORY 60 GB

molecule dimer {
-1 1
Br         0.000000     0.000000     0.000000
Gh(O)      1.945893     0.262012    -2.944461
Gh(H)      2.825168     0.000048    -2.764125
Gh(H)      1.492154     0.128599    -2.083365
Gh(O)      1.918090    -2.759463     0.110152
Gh(H)      2.249433    -3.068366     0.986392
Gh(H)      1.495298    -1.822514     0.139316
Gh(O)     -0.118445     3.259334     0.447045
Gh(H)      0.218183     2.360201     0.174258
Gh(H)     -0.788624     3.412072    -0.216775
Gh(O)     -1.467014     0.339355    -3.263026
Gh(H)     -2.372942     0.465663    -2.906747
Gh(H)     -0.878477     0.065588    -2.558990
Gh(O)     -3.316037    -0.369815     0.274592
Gh(H)     -2.663704    -1.042109     0.576311
Gh(H)     -3.997139    -0.433657     0.965591
Gh(O)      3.111664     0.648515     1.096188
Gh(H)      2.163031     0.405322     0.957248
Gh(H)      3.130519     1.210000     1.863659
Gh(O)     -1.031067    -3.136478    -0.817819
Gh(H)     -0.145501    -2.816616    -0.879827
Gh(H)     -1.232430    -3.165983     0.108864
Gh(O)      0.920696    -0.819222     3.154004
Gh(H)      1.852436    -0.484491     3.317884
Gh(H)      0.572531    -0.433290     2.303889

units ang
no_reorient
no_com
symmetry c1
}

set {
basis        aug-cc-pVTZ
scf_type     df
}

energy("mp2")
--------------------------------------------------------------------------

    Molecular point group: c1

    Geometry (in Angstrom), charge = -1, multiplicity = 1:

       Center              X                  Y                   Z               Mass
    ------------   -----------------  -----------------  -----------------  -----------------
         BR           0.000000000000     0.000000000000     0.000000000000    78.918337600000
      Gh(O)           1.945893000000     0.262012000000    -2.944461000000    15.994914619570
      Gh(H)           2.825168000000     0.000048000000    -2.764125000000     1.007825032230
      Gh(H)           1.492154000000     0.128599000000    -2.083365000000     1.007825032230
      Gh(O)           1.918090000000    -2.759463000000     0.110152000000    15.994914619570
      Gh(H)           2.249433000000    -3.068366000000     0.986392000000     1.007825032230
      Gh(H)           1.495298000000    -1.822514000000     0.139316000000     1.007825032230
      Gh(O)          -0.118445000000     3.259334000000     0.447045000000    15.994914619570
      Gh(H)           0.218183000000     2.360201000000     0.174258000000     1.007825032230
      Gh(H)          -0.788624000000     3.412072000000    -0.216775000000     1.007825032230
      Gh(O)          -1.467014000000     0.339355000000    -3.263026000000    15.994914619570
      Gh(H)          -2.372942000000     0.465663000000    -2.906747000000     1.007825032230
      Gh(H)          -0.878477000000     0.065588000000    -2.558990000000     1.007825032230
      Gh(O)          -3.316037000000    -0.369815000000     0.274592000000    15.994914619570
      Gh(H)          -2.663704000000    -1.042109000000     0.576311000000     1.007825032230
      Gh(H)          -3.997139000000    -0.433657000000     0.965591000000     1.007825032230
      Gh(O)           3.111664000000     0.648515000000     1.096188000000    15.994914619570
      Gh(H)           2.163031000000     0.405322000000     0.957248000000     1.007825032230
      Gh(H)           3.130519000000     1.210000000000     1.863659000000     1.007825032230
      Gh(O)          -1.031067000000    -3.136478000000    -0.817819000000    15.994914619570
      Gh(H)          -0.145501000000    -2.816616000000    -0.879827000000     1.007825032230
      Gh(H)          -1.232430000000    -3.165983000000     0.108864000000     1.007825032230
      Gh(O)           0.920696000000    -0.819222000000     3.154004000000    15.994914619570
      Gh(H)           1.852436000000    -0.484491000000     3.317884000000     1.007825032230
      Gh(H)           0.572531000000    -0.433290000000     2.303889000000     1.007825032230

  Charge       = -1
  Multiplicity = 1
  Basis Set: AUG-CC-PVTZ
    Blend: AUG-CC-PVTZ
  Basis Set: (AUG-CC-PVTZ AUX)
    Blend: AUG-CC-PVTZ-JKFIT

    Orbital Energies [Eh]
    ---------------------

    Doubly Occupied:

       1A   -489.722791     2A    -64.862239     3A    -58.216791
       4A    -58.216790     5A    -58.216788     6A     -9.533446
       7A     -7.140766     8A     -7.140761     9A     -7.140756
      10A     -2.882494    11A     -2.882474    12A     -2.882470
      13A     -2.882460    14A     -2.882440    15A     -0.685985
      16A     -0.139331    17A     -0.139328    18A     -0.139326

  @DF-RHF Final Energy: -2572.53375372442360

   => Energetics <=

    Nuclear Repulsion Energy =              0.0000000000000000
    One-Electron Energy =               -3593.6526386874006675
    Two-Electron Energy =                1021.1188849629772903
    Total Energy =                      -2572.5337537244231498
 Dipole X            :          0.0000620            0.0000000            0.0000620
 Dipole Y            :          0.0000025            0.0000000            0.0000025
 Dipole Z            :         -0.0000374            0.0000000           -0.0000374
 Magnitude           :                                                    0.0000724
  Basis Set: (AUG-CC-PVTZ AUX)
    Blend: AUG-CC-PVTZ-RI
	 Reference Energy          =   -2572.5337537244236046 [Eh]
	 Singles Energy            =      -0.0000000000000000 [Eh]
	 Same-Spin Energy          =      -0.0930835155710751 [Eh]
	 Opposite-Spin Energy      =      -0.2167847111311395 [Eh]
	 Correlation Energy        =      -0.3098682267022146 [Eh]
	 Total Energy              =   -2572.8436219511258969 [Eh]

	 ================> DF-SCS-MP2 Energies <==================
	-----------------------------------------------------------
	 SCS Same-Spin Scale       =       0.3333333333333333 [-]
	 SCS Opposite-Spin Scale   =       1.2000000000000000 [-]
	 SCS Same-Spin Energy      =      -0.0310278385236917 [Eh]
	 SCS Opposite-Spin Energy  =      -0.2601416533573674 [Eh]
	 SCS Correlation Energy    =      -0.2911694918810591 [Eh]
	 SCS Total Energy          =   -2572.8249232163047964 [Eh]
	-----------------------------------------------------------

*** Psi4 exiting successfully. Buy a developer a beer!
