                               Psi4 1.9 release

  ==> Input File <==

--------------------------------------------------------------------------
MEMORY 60 GB

molecule dimer {
-1 1
Br     0.000000     0.000000     0.000000
--
0 1
O     -1.098908    -3.071508    -0.487534
H     -0.293885    -3.421066    -1.019080
H     -0.905828    -2.104128    -0.516759
O      1.164874    -2.706180     2.071644
H      1.253804    -2.143184     2.914441
H      0.471840    -2.302890     1.514895
O      0.575450    -0.529067    -2.994827
H      0.141283    -0.085171    -2.247597
H      1.099265    -1.253083    -2.580112
O     -0.792664     1.020897     3.205548
H      0.118432     0.983099     2.910144
H     -0.793424     1.323019     4.123454
O      3.168574    -1.492021    -0.608818
H      3.582456    -1.338518     0.262661
H      2.354410    -0.982806    -0.504585

units ang
no_reorient
no_com
symmetry c1
}

set {
basis        aug-cc-pVTZ
scf_type     df
}

energy("mp2", bsse_type="cp")
--------------------------------------------------------------------------

                               Psi4 1.9 release
    Molecular point group: c1
  Charge       = 0
  Multiplicity = 1
  Basis Set: AUG-CC-PVTZ
    Blend: AUG-CC-PVTZ
  Basis Set: (AUG-CC-PVTZ AUX)
    Blend: AUG-CC-PVTZ-JKFIT
  @DF-RHF Final Energy:  -380.27879305469361
    Total Energy =                       -380.2787930546936082
 Dipole X            :        -58.2804818           58.8970205            0.6165386
 Dipole Y            :        125.2253958         -123.8673145            1.3580812
 Dipole Z            :        -25.4876262           27.1091909            1.6215647
 Magnitude           :                                                    2.2031742
  Basis Set: (AUG-CC-PVTZ AUX)
    Blend: AUG-CC-PVTZ-RI
	 Reference Energy          =    -380.2787930546936082 [Eh]
	 Singles Energy            =      -0.0000000000000000 [Eh]
	 Same-Spin Energy          =      -0.3461799181798053 [Eh]
	 Opposite-Spin Energy      =      -1.0878756940694030 [Eh]
	 Correlation Energy        =      -1.4340556122492083 [Eh]
	 Total Energy              =    -381.7128486669428185 [Eh]
	 SCS Total Energy          =    -381.6996371936368178 [Eh]
                               Psi4 1.9 release
    Molecular point group: c1
  Multiplicity = 1
  Basis Set: AUG-CC-PVTZ
    Blend: AUG-CC-PVTZ
  Basis Set: (AUG-CC-PVTZ AUX)
    Blend: AUG-CC-PVTZ-JKFIT
  @DF-RHF Final Energy: -2572.53372529824628
    Total Energy =                      -2572.5337252982462815
  Basis Set: (AUG-CC-PVTZ AUX)
	 Singles Energy            =      -0.0000000000000000 [Eh]
	 Same-Spin Energy          =      -0.0908268675730001 [Eh]
	 Opposite-Spin Energy      =      -0.2113498322802080 [Eh]
	 Correlation Energy        =      -0.3021766998532081 [Eh]
	 Total Energy              =   -2572.8359019980994162 [Eh]
	 SCS Total Energy          =   -2572.8176207195069765 [Eh]
                               Psi4 1.9 release
    Molecular point group: c1

    Geometry (in Bohr), charge = -1, multiplicity = 1:

       Center              X                  Y                   Z               Mass
    ------------   -----------------  -----------------  -----------------  -----------------
         BR           0.000000000000     0.000000000000     0.000000000000    78.918337600000
         O           -2.076635157075    -5.804308912153    -0.921305736849    15.994914619570
         H           -0.555362162380    -6.464877797116    -1.925782099932     1.007825032230
         H           -1.711766836771    -3.976225652907    -0.976532982865     1.007825032230
         O            2.201292830667    -5.113939046191     3.914839789448    15.994914619570
         H            2.369346175004    -4.050030796463     5.507495298805     1.007825032230
         H            0.891648375036    -4.351831397056     2.862736658825     1.007825032230
         O            1.087442898895    -0.999791732018    -5.659402823126    15.994914619570
         H            0.266986176183    -0.160949863831    -4.247342770401     1.007825032230
         H            2.077309789301    -2.367983682467    -4.875705053007     1.007825032230
         O           -1.497917869510     1.929215732302     6.057607802009    15.994914619570
         H            0.223804044490     1.857787864211     5.499375145644     1.007825032230
         H           -1.499354061365     2.500143568777     7.792198750924     1.007825032230
         O            5.987737068246    -2.819511063432    -1.150499280249    15.994914619570
         H            6.769860696503    -2.529432433996     0.496357353839     1.007825032230
         H            4.449190087039    -1.857234174457    -0.953527457014     1.007825032230

  Charge       = -1
  Multiplicity = 1
  Basis Set: AUG-CC-PVTZ
    Blend: AUG-CC-PVTZ
  Basis Set: (AUG-CC-PVTZ AUX)
    Blend: AUG-CC-PVTZ-JKFIT

    Orbital Energies [Eh]
    ---------------------

    Doubly Occupied:

       1A   -489.784412     2A    -64.925015     3A    -58.279516
       4A    -58.279487     5A    -58.279443     6A    -20.453275
       7A    -20.432155     8A    -20.427797     9A    -20.420427
      10A    -20.401427    11A     -9.597534    12A     -7.205185
      13A     -7.205033    14A     -7.204855    15A     -2.946838
      16A     -2.946825    17A     -2.946559    18A     -2.946378
      19A     -2.946324    20A     -1.235008    21A     -1.208726
      22A     -1.193939    23A     -1.181230    24A     -1.179804
      25A     -0.765530    26A     -0.606803    27A     -0.565602
      28A     -0.563497    29A     -0.544198    30A     -0.532356
      31A     -0.462505    32A     -0.454402    33A     -0.438283
      34A     -0.435883    35A     -0.425785    36A     -0.395042
      37A     -0.375364    38A     -0.364967    39A     -0.356781
      40A     -0.345793    41A     -0.212931    42A     -0.211824
      43A     -0.208994

  @DF-RHF Final Energy: -2952.85605644000134

   => Energetics <=

    Nuclear Repulsion Energy =            444.4681662269439357
    One-Electron Energy =               -5010.8609734646515790
    Two-Electron Energy =                1613.5367507977057357
    Total Energy =                      -2952.8560564400017938
 Dipole X            :        -58.6900339           58.8970205            0.2069866
 Dipole Y            :        125.9874508         -123.8673145            2.1201363
 Dipole Z            :        -25.2756479           27.1091909            1.8335429
 Magnitude           :                                                    2.8106407
  Basis Set: (AUG-CC-PVTZ AUX)
    Blend: AUG-CC-PVTZ-RI
	 Reference Energy          =   -2952.8560564400013391 [Eh]
	 Singles Energy            =      -0.0000000000000000 [Eh]
	 Same-Spin Energy          =      -0.4464526326549277 [Eh]
	 Opposite-Spin Energy      =      -1.3065596042204060 [Eh]
	 Correlation Energy        =      -1.7530122368753336 [Eh]
	 Total Energy              =   -2954.6090686768766318 [Eh]

	 ================> DF-SCS-MP2 Energies <==================
	-----------------------------------------------------------
	 SCS Same-Spin Scale       =       0.3333333333333333 [-]
	 SCS Opposite-Spin Scale   =       1.2000000000000000 [-]
	 SCS Same-Spin Energy      =      -0.1488175442183092 [Eh]
	 SCS Opposite-Spin Energy  =      -1.5678715250644870 [Eh]
	 SCS Correlation Energy    =      -1.7166890692827963 [Eh]
	 SCS Total Energy          =   -2954.5727455092842320 [Eh]
	-----------------------------------------------------------

*** Psi4 exiting successfully. Buy a developer a beer!
