                               Psi4 1.8.2 release

  ==> Input File <==

--------------------------------------------------------------------------
MEMORY 60 GB

molecule dimer {
0 1
Gh(Br)     0.000000     0.000000     0.000000
Gh(O)      2.452911    -0.995525     2.199232
Gh(H)      3.132083    -1.275402     2.790759
Gh(H)      2.338359    -1.739127     1.526334
Gh(O)     -3.040005     0.614667    -1.483514
Gh(H)     -2.166655     0.355003    -1.129877
Gh(H)     -2.955149     0.617711    -2.466047
O         -0.201879    -0.214965    -3.389215
H         -0.892087    -0.868485    -3.563227
H         -0.029122    -0.354479    -2.467663
Gh(O)      2.167253     1.963529    -1.986450
Gh(H)      1.432173     1.531595    -1.573186
Gh(H)      1.877952     2.248149    -2.830986
Gh(O)      1.737886     2.376316     1.902304
Gh(H)      1.869496     2.030453     2.758105
Gh(H)      1.995270     1.750043     1.235313
Gh(O)      1.036004    -2.754093    -1.296498
Gh(H)      1.857363    -2.562526    -1.734994
Gh(H)      0.655300    -2.037283    -0.779103

units ang
no_reorient
no_com
symmetry c1
}

set {
basis        aug-cc-pVTZ
scf_type     df
}

energy("mp2")
--------------------------------------------------------------------------

    Molecular point group: c1

    Geometry (in Angstrom), charge = 0, multiplicity = 1:

       Center              X                  Y                   Z               Mass
    ------------   -----------------  -----------------  -----------------  -----------------
      Gh(BR)          0.000000000000     0.000000000000     0.000000000000    78.918337600000
      Gh(O)           2.452911000000    -0.995525000000     2.199232000000    15.994914619570
      Gh(H)           3.132083000000    -1.275402000000     2.790759000000     1.007825032230
      Gh(H)           2.338359000000    -1.739127000000     1.526334000000     1.007825032230
      Gh(O)          -3.040005000000     0.614667000000    -1.483514000000    15.994914619570
      Gh(H)          -2.166655000000     0.355003000000    -1.129877000000     1.007825032230
      Gh(H)          -2.955149000000     0.617711000000    -2.466047000000     1.007825032230
         O           -0.201879000000    -0.214965000000    -3.389215000000    15.994914619570
         H           -0.892087000000    -0.868485000000    -3.563227000000     1.007825032230
         H           -0.029122000000    -0.354479000000    -2.467663000000     1.007825032230
      Gh(O)           2.167253000000     1.963529000000    -1.986450000000    15.994914619570
      Gh(H)           1.432173000000     1.531595000000    -1.573186000000     1.007825032230
      Gh(H)           1.877952000000     2.248149000000    -2.830986000000     1.007825032230
      Gh(O)           1.737886000000     2.376316000000     1.902304000000    15.994914619570
      Gh(H)           1.869496000000     2.030453000000     2.758105000000     1.007825032230
      Gh(H)           1.995270000000     1.750043000000     1.235313000000     1.007825032230
      Gh(O)           1.036004000000    -2.754093000000    -1.296498000000    15.994914619570
      Gh(H)           1.857363000000    -2.562526000000    -1.734994000000     1.007825032230
      Gh(H)           0.655300000000    -2.037283000000    -0.779103000000     1.007825032230

  Charge       = 0
  Multiplicity = 1
  Basis Set: AUG-CC-PVTZ
    Blend: AUG-CC-PVTZ
  Basis Set: (AUG-CC-PVTZ AUX)
    Blend: AUG-CC-PVTZ-JKFIT

    Orbital Energies [Eh]
    ---------------------

    Doubly Occupied:

       1A    -20.568180     2A     -1.355602     3A     -0.712627
       4A     -0.590059     5A     -0.511118

  @DF-RHF Final Energy:   -76.06018376942150

   => Energetics <=

    Nuclear Repulsion Energy =              9.2030127591876205
    One-Electron Energy =                -123.0512197868127657
    Two-Electron Energy =                  37.7880232582036655
    Total Energy =                        -76.0601837694214851
 Dipole X            :          4.4533258           -4.7928009           -0.3394751
 Dipole Y            :          5.0384086           -5.5608668           -0.5224582
 Dipole Z            :         63.1305787          -62.6342354            0.4963433
 Magnitude           :                                                    0.7965943
  Basis Set: (AUG-CC-PVTZ AUX)
    Blend: AUG-CC-PVTZ-RI
	 Reference Energy          =     -76.0601837694214993 [Eh]
	 Singles Energy            =      -0.0000000000000000 [Eh]
	 Same-Spin Energy          =      -0.0684659802415238 [Eh]
	 Opposite-Spin Energy      =      -0.2161620082394844 [Eh]
	 Correlation Energy        =      -0.2846279884810082 [Eh]
	 Total Energy              =     -76.3448117579025052 [Eh]

	 ================> DF-SCS-MP2 Energies <==================
	-----------------------------------------------------------
	 SCS Same-Spin Scale       =       0.3333333333333333 [-]
	 SCS Opposite-Spin Scale   =       1.2000000000000000 [-]
	 SCS Same-Spin Energy      =      -0.0228219934138413 [Eh]
	 SCS Opposite-Spin Energy  =      -0.2593944098873813 [Eh]
	 SCS Correlation Energy    =      -0.2822164033012226 [Eh]
	 SCS Total Energy          =     -76.3424001727227193 [Eh]
	-----------------------------------------------------------

*** Psi4 exiting successfully. Buy a developer a beer!
