                               Psi4 1.9 release

  ==> Input File <==

--------------------------------------------------------------------------
MEMORY 60 GB

molecule dimer {
-1 1
Br     0.000000     0.000000     0.000000
--
0 1
O      3.099023     0.340281     1.397133
H      2.306734     0.381405     0.878260
H      3.844115     0.047231     0.936605
O      1.127680     3.159671     0.522464
H      1.378824     3.076014     1.435986
H      0.893393     2.283071     0.250242
O      0.153067    -3.161383    -1.487612
H      0.216689    -2.247035    -1.168259
H      0.001661    -3.027025    -2.433230
O     -2.154109     1.418877    -2.303659
H     -2.330310     0.966645    -3.084746
H     -1.379206     0.970868    -1.937812
O     -0.699327     0.060744     3.039694
H     -0.594770     0.380454     2.170591
H      0.152358    -0.312270     3.329137
O      0.885237     0.524743    -3.039093
H      0.866842     0.462270    -2.115711
H      0.908147     1.420376    -3.360499

units ang
no_reorient
no_com
symmetry c1
}

set {
basis        aug-cc-pVTZ
scf_type     df
}

energy("mp2", bsse_type="cp")
--------------------------------------------------------------------------

                               Psi4 1.9 release
    Molecular point group: c1
  Charge       = 0
  Multiplicity = 1
  Basis Set: AUG-CC-PVTZ
    Blend: AUG-CC-PVTZ
  Basis Set: (AUG-CC-PVTZ AUX)
    Blend: AUG-CC-PVTZ-JKFIT
  @DF-RHF Final Energy:  -456.35006854711577
    Total Energy =                       -456.3500685471157681
 Dipole X            :        -47.2332984           48.2958156            1.0625173
 Dipole Y            :        -43.8728145           43.7385956           -0.1342190
 Dipole Z            :         36.9623118          -37.9230617           -0.9607499
 Magnitude           :                                                    1.4387488
  Basis Set: (AUG-CC-PVTZ AUX)
    Blend: AUG-CC-PVTZ-RI
	 Reference Energy          =    -456.3500685471157681 [Eh]
	 Singles Energy            =      -0.0000000000000000 [Eh]
	 Same-Spin Energy          =      -0.4110379941489743 [Eh]
	 Opposite-Spin Energy      =      -1.2938006398101627 [Eh]
	 Correlation Energy        =      -1.7048386339591370 [Eh]
	 Total Energy              =    -458.0549071810748956 [Eh]
	 SCS Total Energy          =    -458.0396419796043119 [Eh]
                               Psi4 1.9 release
    Molecular point group: c1
  Multiplicity = 1
  Basis Set: AUG-CC-PVTZ
    Blend: AUG-CC-PVTZ
  Basis Set: (AUG-CC-PVTZ AUX)
    Blend: AUG-CC-PVTZ-JKFIT
  @DF-RHF Final Energy: -2572.53374270663016
    Total Energy =                      -2572.5337427066297096
  Basis Set: (AUG-CC-PVTZ AUX)
	 Singles Energy            =      -0.0000000000000000 [Eh]
	 Same-Spin Energy          =      -0.0923525834075820 [Eh]
	 Opposite-Spin Energy      =      -0.2151446583101746 [Eh]
	 Correlation Energy        =      -0.3074972417177566 [Eh]
	 Total Energy              =   -2572.8412399483477202 [Eh]
	 SCS Total Energy          =   -2572.8227004910713731 [Eh]
                               Psi4 1.9 release
    Molecular point group: c1

    Geometry (in Bohr), charge = -1, multiplicity = 1:

       Center              X                  Y                   Z               Mass
    ------------   -----------------  -----------------  -----------------  -----------------
         BR           0.000000000000     0.000000000000     0.000000000000    78.918337600000
         O            5.856304726495     0.643037895697     2.640198730839    15.994914619570
         H            4.359095504282     0.720750992880     1.659670866945     1.007825032230
         H            7.264324544764     0.089253654631     1.769926937734     1.007825032230
         O            2.131006357156     5.970912836551     0.987313870411    15.994914619570
         H            2.605599735208     5.812824018074     2.713620259992     1.007825032230
         H            1.688268092401     4.314378914975     0.472888845087     1.007825032230
         O            0.289254708845    -5.974148047678    -2.811179260945    15.994914619570
         H            0.409482864399    -4.246280744318    -2.207689553601     1.007825032230
         H            0.003138835094    -5.720248224914    -4.598138300248     1.007825032230
         O           -4.070676054384     2.681288935711    -4.353284596446    15.994914619570
         H           -4.403647687416     1.826694310543    -5.829325106602     1.007825032230
         H           -2.606321610588     1.834674623971    -3.661933962626     1.007825032230
         O           -1.321536502138     0.114789523765     5.744189165197    15.994914619570
         H           -1.123952407639     0.718953863335     4.101822520384     1.007825032230
         H            0.287914893023    -0.590104777197     6.291157164128     1.007825032230
         O            1.672855486122     0.991620556251    -5.743053439796    15.994914619570
         H            1.638093974044     0.873563696015    -3.998114350619     1.007825032230
         H            1.716149111656     2.684121635173    -6.350422754875     1.007825032230

  Charge       = -1
  Multiplicity = 1
  Basis Set: AUG-CC-PVTZ
    Blend: AUG-CC-PVTZ
  Basis Set: (AUG-CC-PVTZ AUX)
    Blend: AUG-CC-PVTZ-JKFIT

    Orbital Energies [Eh]
    ---------------------

    Doubly Occupied:

       1A   -489.810329     2A    -64.951149     3A    -58.305631
       4A    -58.305611     5A    -58.305580     6A    -20.433335
       7A    -20.431412     8A    -20.430519     9A    -20.424941
      10A    -20.424022    11A    -20.412230    12A     -9.623735
      13A     -7.231433    14A     -7.231295    15A     -7.231076
      16A     -2.973011    17A     -2.973002    18A     -2.972746
      19A     -2.972613    20A     -2.972559    21A     -1.233386
      22A     -1.232802    23A     -1.224229    24A     -1.219107
      25A     -1.215028    26A     -1.205524    27A     -0.796908
      28A     -0.625228    29A     -0.621344    30A     -0.589230
      31A     -0.586608    32A     -0.580812    33A     -0.571746
      34A     -0.457839    35A     -0.455532    36A     -0.451839
      37A     -0.449366    38A     -0.448265    39A     -0.436154
      40A     -0.388025    41A     -0.386574    42A     -0.376454
      43A     -0.372228    44A     -0.372010    45A     -0.362784
      46A     -0.242938    47A     -0.239659    48A     -0.237706

  @DF-RHF Final Energy: -3028.94791392232128

   => Energetics <=

    Nuclear Repulsion Energy =            566.5257952785294719
    One-Electron Energy =               -5359.3563032578658749
    Two-Electron Energy =                1763.8825940570152397
    Total Energy =                      -3028.9479139223212769
 Dipole X            :        -47.7035464           48.2958156            0.5922692
 Dipole Y            :        -44.2148290           43.7385956           -0.4762335
 Dipole Z            :         37.2269664          -37.9230617           -0.6960953
 Magnitude           :                                                    1.0305968
  Basis Set: (AUG-CC-PVTZ AUX)
    Blend: AUG-CC-PVTZ-RI
	 Reference Energy          =   -3028.9479139223212769 [Eh]
	 Singles Energy            =      -0.0000000000000000 [Eh]
	 Same-Spin Energy          =      -0.5155591894759540 [Eh]
	 Opposite-Spin Energy      =      -1.5184184538521783 [Eh]
	 Correlation Energy        =      -2.0339776433281322 [Eh]
	 Total Energy              =   -3030.9818915656492209 [Eh]

	 ================> DF-SCS-MP2 Energies <==================
	-----------------------------------------------------------
	 SCS Same-Spin Scale       =       0.3333333333333333 [-]
	 SCS Opposite-Spin Scale   =       1.2000000000000000 [-]
	 SCS Same-Spin Energy      =      -0.1718530631586513 [Eh]
	 SCS Opposite-Spin Energy  =      -1.8221021446226140 [Eh]
	 SCS Correlation Energy    =      -1.9939552077812652 [Eh]
	 SCS Total Energy          =   -3030.9418691301025319 [Eh]
	-----------------------------------------------------------

*** Psi4 exiting successfully. Buy a developer a beer!
