                               Psi4 1.8.2 release

  ==> Input File <==

--------------------------------------------------------------------------
MEMORY 60 GB

molecule dimer {
-1 1
Br         0.000000     0.000000     0.000000
O         -1.940430    -2.565513     0.899073
H         -2.030209    -2.518827     1.877284
H         -1.295089    -1.914109     0.676999
O          0.553447     2.582178     2.321146
H          0.620745     1.665940     2.488208
H          1.397611     2.901012     2.170963
O         -1.302614    -1.622954    -2.889180
H         -1.645295    -0.838258    -3.392872
H         -0.914137    -1.279381    -2.076378
O          2.785557    -0.938036    -1.642619
H          3.238266    -1.550119    -1.047537
H          2.005838    -0.710489    -1.193734
O          0.626728     2.977561    -1.391010
H         -0.065650     2.917648    -2.116526
H          1.310986     2.330535    -1.671214

units ang
no_reorient
no_com
symmetry c1
}

set {
basis        aug-cc-pVTZ
scf_type     df
}

energy("mp2")
--------------------------------------------------------------------------

    Molecular point group: c1

    Geometry (in Angstrom), charge = -1, multiplicity = 1:

       Center              X                  Y                   Z               Mass
    ------------   -----------------  -----------------  -----------------  -----------------
         BR           0.000000000000     0.000000000000     0.000000000000    78.918337600000
         O           -1.940430000000    -2.565513000000     0.899073000000    15.994914619570
         H           -2.030209000000    -2.518827000000     1.877284000000     1.007825032230
         H           -1.295089000000    -1.914109000000     0.676999000000     1.007825032230
         O            0.553447000000     2.582178000000     2.321146000000    15.994914619570
         H            0.620745000000     1.665940000000     2.488208000000     1.007825032230
         H            1.397611000000     2.901012000000     2.170963000000     1.007825032230
         O           -1.302614000000    -1.622954000000    -2.889180000000    15.994914619570
         H           -1.645295000000    -0.838258000000    -3.392872000000     1.007825032230
         H           -0.914137000000    -1.279381000000    -2.076378000000     1.007825032230
         O            2.785557000000    -0.938036000000    -1.642619000000    15.994914619570
         H            3.238266000000    -1.550119000000    -1.047537000000     1.007825032230
         H            2.005838000000    -0.710489000000    -1.193734000000     1.007825032230
         O            0.626728000000     2.977561000000    -1.391010000000    15.994914619570
         H           -0.065650000000     2.917648000000    -2.116526000000     1.007825032230
         H            1.310986000000     2.330535000000    -1.671214000000     1.007825032230

  Charge       = -1
  Multiplicity = 1
  Basis Set: AUG-CC-PVTZ
    Blend: AUG-CC-PVTZ
  Basis Set: (AUG-CC-PVTZ AUX)
    Blend: AUG-CC-PVTZ-JKFIT

    Orbital Energies [Eh]
    ---------------------

    Doubly Occupied:

       1A   -489.772414     2A    -64.912841     3A    -58.267353
       4A    -58.267323     5A    -58.267281     6A    -20.437154
       7A    -20.423094     8A    -20.418321     9A    -20.417117
      10A    -20.410618    11A     -9.585209    12A     -7.192830
      13A     -7.192729    14A     -7.192451    15A     -2.934551
      16A     -2.934539    17A     -2.934172    18A     -2.934053
      19A     -2.933960    20A     -1.232950    21A     -1.213597
      22A     -1.200683    23A     -1.195795    24A     -1.191856
      25A     -0.749941    26A     -0.607225    27A     -0.579263
      28A     -0.563663    29A     -0.561664    30A     -0.560445
      31A     -0.450238    32A     -0.446020    33A     -0.445055
      34A     -0.431798    35A     -0.430976    36A     -0.378112
      37A     -0.372127    38A     -0.367202    39A     -0.359310
      40A     -0.356150    41A     -0.201137    42A     -0.199435
      43A     -0.194449

  @DF-RHF Final Energy: -2952.85985230593587

   => Energetics <=

    Nuclear Repulsion Energy =            427.2048373368439798
    One-Electron Energy =               -4976.6951649842558254
    Two-Electron Energy =                1596.6304753414758579
    Total Energy =                      -2952.8598523059354193
 Dipole X            :        -15.1927463           15.8823355            0.6895892
 Dipole Y            :         -7.8881182            8.4467734            0.5586552
 Dipole Z            :         49.9558468          -48.9543512            1.0014956
 Magnitude           :                                                    1.3381414
  Basis Set: (AUG-CC-PVTZ AUX)
    Blend: AUG-CC-PVTZ-RI
	 Reference Energy          =   -2952.8598523059358740 [Eh]
	 Singles Energy            =      -0.0000000000000000 [Eh]
	 Same-Spin Energy          =      -0.4413758557805745 [Eh]
	 Opposite-Spin Energy      =      -1.2971193917365518 [Eh]
	 Correlation Energy        =      -1.7384952475171263 [Eh]
	 Total Energy              =   -2954.5983475534530953 [Eh]

	 ================> DF-SCS-MP2 Energies <==================
	-----------------------------------------------------------
	 SCS Same-Spin Scale       =       0.3333333333333333 [-]
	 SCS Opposite-Spin Scale   =       1.2000000000000000 [-]
	 SCS Same-Spin Energy      =      -0.1471252852601915 [Eh]
	 SCS Opposite-Spin Energy  =      -1.5565432700838622 [Eh]
	 SCS Correlation Energy    =      -1.7036685553440536 [Eh]
	 SCS Total Energy          =   -2954.5635208612798124 [Eh]
	-----------------------------------------------------------

*** Psi4 exiting successfully. Buy a developer a beer!
