                               Psi4 1.9 release

  ==> Input File <==

--------------------------------------------------------------------------
MEMORY 60 GB

molecule dimer {
-1 1
Br     0.000000     0.000000     0.000000
--
0 1
O     -0.871621     3.438375     0.383857
H     -0.516984     2.572586     0.549013
H     -0.363617     4.028043     0.929764
O      1.138510     0.841363    -2.887618
H      0.694724     0.580199    -2.053917
H      2.017329     1.105167    -2.581160
O     -3.253094     1.026650    -0.425546
H     -3.390640     1.760968    -1.019761
H     -2.319946     0.849586    -0.372891
O     -0.964777    -1.798146    -2.591474
H     -0.682415    -1.413219    -1.710488
H     -1.809853    -2.198752    -2.407912
O      0.991667     1.473530     2.961882
H      1.085614     0.936924     2.131226
H      0.113098     1.201158     3.227799

units ang
no_reorient
no_com
symmetry c1
}

set {
basis        aug-cc-pVTZ
scf_type     df
}

energy("mp2", bsse_type="cp")
--------------------------------------------------------------------------

                               Psi4 1.9 release
    Molecular point group: c1
  Charge       = 0
  Multiplicity = 1
  Basis Set: AUG-CC-PVTZ
    Blend: AUG-CC-PVTZ
  Basis Set: (AUG-CC-PVTZ AUX)
    Blend: AUG-CC-PVTZ-JKFIT
  @DF-RHF Final Energy:  -380.28774180541478
    Total Energy =                       -380.2877418054147824
 Dipole X            :         54.9944822          -54.5133264            0.4811558
 Dipole Y            :        -93.3952967           93.1197244           -0.2755724
 Dipole Z            :         46.0798003          -44.9367783            1.1430220
 Magnitude           :                                                    1.2704134
  Basis Set: (AUG-CC-PVTZ AUX)
    Blend: AUG-CC-PVTZ-RI
	 Reference Energy          =    -380.2877418054147824 [Eh]
	 Singles Energy            =      -0.0000000000000000 [Eh]
	 Same-Spin Energy          =      -0.3441070655026191 [Eh]
	 Opposite-Spin Energy      =      -1.0831205087158469 [Eh]
	 Correlation Energy        =      -1.4272275742184659 [Eh]
	 Total Energy              =    -381.7149693796332599 [Eh]
	 SCS Total Energy          =    -381.7021887710413353 [Eh]
                               Psi4 1.9 release
    Molecular point group: c1
  Multiplicity = 1
  Basis Set: AUG-CC-PVTZ
    Blend: AUG-CC-PVTZ
  Basis Set: (AUG-CC-PVTZ AUX)
    Blend: AUG-CC-PVTZ-JKFIT
  @DF-RHF Final Energy: -2572.53373228615692
    Total Energy =                      -2572.5337322861569191
  Basis Set: (AUG-CC-PVTZ AUX)
	 Singles Energy            =      -0.0000000000000000 [Eh]
	 Same-Spin Energy          =      -0.0915177334121889 [Eh]
	 Opposite-Spin Energy      =      -0.2131143445133981 [Eh]
	 Correlation Energy        =      -0.3046320779255870 [Eh]
	 Total Energy              =   -2572.8383643640822811 [Eh]
	 SCS Total Energy          =   -2572.8199754107104127 [Eh]
                               Psi4 1.9 release
    Molecular point group: c1

    Geometry (in Bohr), charge = -1, multiplicity = 1:

       Center              X                  Y                   Z               Mass
    ------------   -----------------  -----------------  -----------------  -----------------
         BR           0.000000000000     0.000000000000     0.000000000000    78.918337600000
         O           -1.647124975198     6.497587066621     0.725384601340    15.994914619570
         H           -0.976958171244     4.861482974187     1.037484209316     1.007825032230
         H           -0.687136544561     7.611898091568     1.756999321310     1.007825032230
         O            2.151472091095     1.589945642094    -5.456807174942    15.994914619570
         H            1.312838092783     1.096417208265    -3.881340614422     1.007825032230
         H            3.812199314944     2.088462952894    -4.877685485987     1.007825032230
         O           -6.147456720370     1.940087326701    -0.804165393784    15.994914619570
         H           -6.407380990022     3.327747235695    -1.927069003423     1.007825032230
         H           -4.384062565851     1.605484860023    -0.704661864648     1.007825032230
         O           -1.823164302141    -3.398003473587    -4.897176121245    15.994914619570
         H           -1.289577453904    -2.670596865293    -3.232353860882     1.007825032230
         H           -3.420126497338    -4.155039097803    -4.550294214203     1.007825032230
         O            1.873979037654     2.784568137646     5.597145795923    15.994914619570
         H            2.051513137963     1.770529760368     4.027433451455     1.007825032230
         H            0.213724245337     2.269859653403     6.099656098027     1.007825032230

  Charge       = -1
  Multiplicity = 1
  Basis Set: AUG-CC-PVTZ
    Blend: AUG-CC-PVTZ
  Basis Set: (AUG-CC-PVTZ AUX)
    Blend: AUG-CC-PVTZ-JKFIT

    Orbital Energies [Eh]
    ---------------------

    Doubly Occupied:

       1A   -489.803812     2A    -64.944447     3A    -58.298940
       4A    -58.298917     5A    -58.298905     6A    -20.440263
       7A    -20.430459     8A    -20.415346     9A    -20.412430
      10A    -20.404795    11A     -9.616923    12A     -7.224651
      13A     -7.224338    14A     -7.224322    15A     -2.966220
      16A     -2.966110    17A     -2.966074    18A     -2.965764
      19A     -2.965752    20A     -1.223279    21A     -1.219419
      22A     -1.206104    23A     -1.190798    24A     -1.185714
      25A     -0.786424    26A     -0.591193    27A     -0.582136
      28A     -0.570763    29A     -0.556399    30A     -0.544368
      31A     -0.467430    32A     -0.454701    33A     -0.434703
      34A     -0.432719    35A     -0.429738    36A     -0.383435
      37A     -0.378072    38A     -0.363457    39A     -0.354949
      40A     -0.348649    41A     -0.234663    42A     -0.230827
      43A     -0.228587

  @DF-RHF Final Energy: -2952.88244114172130

   => Energetics <=

    Nuclear Repulsion Energy =            443.2377328994526806
    One-Electron Energy =               -5007.7063515111904053
    Two-Electron Energy =                1611.5861774700165370
    Total Energy =                      -2952.8824411417213014
 Dipole X            :         55.2126966          -54.5133264            0.6993702
 Dipole Y            :        -93.8122020           93.1197244           -0.6924776
 Dipole Z            :         46.4200361          -44.9367783            1.4832578
 Magnitude           :                                                    1.7800837
  Basis Set: (AUG-CC-PVTZ AUX)
    Blend: AUG-CC-PVTZ-RI
	 Reference Energy          =   -2952.8824411417213014 [Eh]
	 Singles Energy            =      -0.0000000000000000 [Eh]
	 Same-Spin Energy          =      -0.4458398511983659 [Eh]
	 Opposite-Spin Energy      =      -1.3036138453544917 [Eh]
	 Correlation Energy        =      -1.7494536965528575 [Eh]
	 Total Energy              =   -2954.6318948382740928 [Eh]

	 ================> DF-SCS-MP2 Energies <==================
	-----------------------------------------------------------
	 SCS Same-Spin Scale       =       0.3333333333333333 [-]
	 SCS Opposite-Spin Scale   =       1.2000000000000000 [-]
	 SCS Same-Spin Energy      =      -0.1486132837327886 [Eh]
	 SCS Opposite-Spin Energy  =      -1.5643366144253898 [Eh]
	 SCS Correlation Energy    =      -1.7129498981581786 [Eh]
	 SCS Total Energy          =   -2954.5953910398793596 [Eh]
	-----------------------------------------------------------

*** Psi4 exiting successfully. Buy a developer a beer!
