                               Psi4 1.8.2 release

  ==> Input File <==

--------------------------------------------------------------------------
MEMORY 60 GB

molecule dimer {
0 1
Gh(Br)     0.000000     0.000000     0.000000
Gh(O)     -0.046525    -2.172810     2.388371
Gh(H)      0.192961    -2.058591     3.276470
Gh(H)      0.227483    -1.447125     1.853069
Gh(O)     -3.001582    -1.688367    -0.659378
Gh(H)     -3.051597    -2.464025    -0.091192
Gh(H)     -2.107316    -1.279153    -0.589440
Gh(O)      1.202238     1.886794     2.696986
Gh(H)      0.703236     1.368206     2.070104
Gh(H)      0.555514     2.123391     3.374762
O          0.642071     3.088985    -0.348066
H          0.818347     3.560490     0.475379
H          0.241245     2.278483    -0.088040
Gh(O)     -1.743083     0.570150     2.511522
Gh(H)     -1.402890     0.297354     1.627315
Gh(H)     -2.233465    -0.240456     2.843953

units ang
no_reorient
no_com
symmetry c1
}

set {
basis        aug-cc-pVTZ
scf_type     df
}

energy("mp2")
--------------------------------------------------------------------------

    Molecular point group: c1

    Geometry (in Angstrom), charge = 0, multiplicity = 1:

       Center              X                  Y                   Z               Mass
    ------------   -----------------  -----------------  -----------------  -----------------
      Gh(BR)          0.000000000000     0.000000000000     0.000000000000    78.918337600000
      Gh(O)          -0.046525000000    -2.172810000000     2.388371000000    15.994914619570
      Gh(H)           0.192961000000    -2.058591000000     3.276470000000     1.007825032230
      Gh(H)           0.227483000000    -1.447125000000     1.853069000000     1.007825032230
      Gh(O)          -3.001582000000    -1.688367000000    -0.659378000000    15.994914619570
      Gh(H)          -3.051597000000    -2.464025000000    -0.091192000000     1.007825032230
      Gh(H)          -2.107316000000    -1.279153000000    -0.589440000000     1.007825032230
      Gh(O)           1.202238000000     1.886794000000     2.696986000000    15.994914619570
      Gh(H)           0.703236000000     1.368206000000     2.070104000000     1.007825032230
      Gh(H)           0.555514000000     2.123391000000     3.374762000000     1.007825032230
         O            0.642071000000     3.088985000000    -0.348066000000    15.994914619570
         H            0.818347000000     3.560490000000     0.475379000000     1.007825032230
         H            0.241245000000     2.278483000000    -0.088040000000     1.007825032230
      Gh(O)          -1.743083000000     0.570150000000     2.511522000000    15.994914619570
      Gh(H)          -1.402890000000     0.297354000000     1.627315000000     1.007825032230
      Gh(H)          -2.233465000000    -0.240456000000     2.843953000000     1.007825032230

  Charge       = 0
  Multiplicity = 1
  Basis Set: AUG-CC-PVTZ
    Blend: AUG-CC-PVTZ
  Basis Set: (AUG-CC-PVTZ AUX)
    Blend: AUG-CC-PVTZ-JKFIT

    Orbital Energies [Eh]
    ---------------------

    Doubly Occupied:

       1A    -20.565995     2A     -1.355364     3A     -0.721582
       4A     -0.584215     5A     -0.510498

  @DF-RHF Final Energy:   -76.06065856490356

   => Energetics <=

    Nuclear Repulsion Energy =              9.2354030151525315
    One-Electron Energy =                -123.1168121772856239
    Two-Electron Energy =                  37.8207505972295266
    Total Energy =                        -76.0606585649035765
 Dipole X            :        -11.8610492           11.7090454           -0.1520038
 Dipole Y            :        -57.9632440           57.7327451           -0.2304990
 Dipole Z            :          5.2529917           -4.5300307            0.7229611
 Magnitude           :                                                    0.7738912
  Basis Set: (AUG-CC-PVTZ AUX)
    Blend: AUG-CC-PVTZ-RI
	 Reference Energy          =     -76.0606585649035623 [Eh]
	 Singles Energy            =      -0.0000000000000000 [Eh]
	 Same-Spin Energy          =      -0.0683069886971349 [Eh]
	 Opposite-Spin Energy      =      -0.2156082099122242 [Eh]
	 Correlation Energy        =      -0.2839151986093591 [Eh]
	 Total Energy              =     -76.3445737635129262 [Eh]

	 ================> DF-SCS-MP2 Energies <==================
	-----------------------------------------------------------
	 SCS Same-Spin Scale       =       0.3333333333333333 [-]
	 SCS Opposite-Spin Scale   =       1.2000000000000000 [-]
	 SCS Same-Spin Energy      =      -0.0227689962323783 [Eh]
	 SCS Opposite-Spin Energy  =      -0.2587298518946690 [Eh]
	 SCS Correlation Energy    =      -0.2814988481270473 [Eh]
	 SCS Total Energy          =     -76.3421574130306055 [Eh]
	-----------------------------------------------------------

*** Psi4 exiting successfully. Buy a developer a beer!
