                               Psi4 1.8.2 release

  ==> Input File <==

--------------------------------------------------------------------------
MEMORY 60 GB

molecule dimer {
0 1
Gh(Br)     0.000000     0.000000     0.000000
Gh(O)     -2.035183     0.505931    -2.714884
Gh(H)     -1.976795     1.463081    -2.600066
Gh(H)     -1.297730     0.131163    -2.176587
Gh(O)      3.263034     0.338969    -1.106453
Gh(H)      2.366786     0.373527    -0.759632
Gh(H)      3.697550     0.015590    -0.296441
Gh(O)      2.178094    -2.034010     1.585940
Gh(H)      1.627600    -1.749935     0.822231
Gh(H)      1.500081    -2.085197     2.285919
O          1.183323    -2.765482    -1.699569
H          0.620307    -3.433026    -1.331715
H          0.809411    -1.929569    -1.365631

units ang
no_reorient
no_com
symmetry c1
}

set {
basis        aug-cc-pVTZ
scf_type     df
}

energy("mp2")
--------------------------------------------------------------------------

    Molecular point group: c1

    Geometry (in Angstrom), charge = 0, multiplicity = 1:

       Center              X                  Y                   Z               Mass
    ------------   -----------------  -----------------  -----------------  -----------------
      Gh(BR)          0.000000000000     0.000000000000     0.000000000000    78.918337600000
      Gh(O)          -2.035183000000     0.505931000000    -2.714884000000    15.994914619570
      Gh(H)          -1.976795000000     1.463081000000    -2.600066000000     1.007825032230
      Gh(H)          -1.297730000000     0.131163000000    -2.176587000000     1.007825032230
      Gh(O)           3.263034000000     0.338969000000    -1.106453000000    15.994914619570
      Gh(H)           2.366786000000     0.373527000000    -0.759632000000     1.007825032230
      Gh(H)           3.697550000000     0.015590000000    -0.296441000000     1.007825032230
      Gh(O)           2.178094000000    -2.034010000000     1.585940000000    15.994914619570
      Gh(H)           1.627600000000    -1.749935000000     0.822231000000     1.007825032230
      Gh(H)           1.500081000000    -2.085197000000     2.285919000000     1.007825032230
         O            1.183323000000    -2.765482000000    -1.699569000000    15.994914619570
         H            0.620307000000    -3.433026000000    -1.331715000000     1.007825032230
         H            0.809411000000    -1.929569000000    -1.365631000000     1.007825032230

  Charge       = 0
  Multiplicity = 1
  Basis Set: AUG-CC-PVTZ
    Blend: AUG-CC-PVTZ
  Basis Set: (AUG-CC-PVTZ AUX)
    Blend: AUG-CC-PVTZ-JKFIT

    Orbital Energies [Eh]
    ---------------------

    Doubly Occupied:

       1A    -20.567942     2A     -1.351998     3A     -0.714844
       4A     -0.584909     5A     -0.510154

  @DF-RHF Final Energy:   -76.06001491401815

   => Energetics <=

    Nuclear Repulsion Energy =              9.1599404645257057
    One-Electron Energy =                -122.9802125796572341
    Two-Electron Energy =                  37.7602572011133759
    Total Energy =                        -76.0600149140181543
 Dipole X            :        -21.2128189           20.5910266           -0.6217924
 Dipole Y            :         52.0490105          -51.9418646            0.1071459
 Dipole Z            :         31.2561451          -30.7910047            0.4651404
 Magnitude           :                                                    0.7838760
  Basis Set: (AUG-CC-PVTZ AUX)
    Blend: AUG-CC-PVTZ-RI
	 Reference Energy          =     -76.0600149140181543 [Eh]
	 Singles Energy            =      -0.0000000000000000 [Eh]
	 Same-Spin Energy          =      -0.0684707297459859 [Eh]
	 Opposite-Spin Energy      =      -0.2161246236683144 [Eh]
	 Correlation Energy        =      -0.2845953534143003 [Eh]
	 Total Energy              =     -76.3446102674324578 [Eh]

	 ================> DF-SCS-MP2 Energies <==================
	-----------------------------------------------------------
	 SCS Same-Spin Scale       =       0.3333333333333333 [-]
	 SCS Opposite-Spin Scale   =       1.2000000000000000 [-]
	 SCS Same-Spin Energy      =      -0.0228235765819953 [Eh]
	 SCS Opposite-Spin Energy  =      -0.2593495484019773 [Eh]
	 SCS Correlation Energy    =      -0.2821731249839726 [Eh]
	 SCS Total Energy          =     -76.3421880390021244 [Eh]
	-----------------------------------------------------------

*** Psi4 exiting successfully. Buy a developer a beer!
