                               Psi4 1.8.2 release

  ==> Input File <==

--------------------------------------------------------------------------
MEMORY 60 GB

molecule dimer {
-1 1
Br         0.000000     0.000000     0.000000
O         -0.389734    -0.598419    -3.176388
H         -0.465508     0.292966    -3.519841
H          0.113003    -0.512129    -2.347686
O          1.397414     3.038515     0.513452
H          0.940691     3.150955     1.319867
H          1.055355     2.289705     0.200989
O          1.276458    -2.240841     2.084055
H          2.053789    -2.628877     1.781351
H          0.942450    -1.517205     1.560668
O          2.870105    -1.015920    -1.248286
H          3.514743    -0.967933    -0.518971
H          2.050698    -0.852438    -0.717526
O         -1.016719     3.064452    -1.085676
H         -1.384642     2.386952    -1.618609
H         -0.007287     3.049352    -1.229396

units ang
no_reorient
no_com
symmetry c1
}

set {
basis        aug-cc-pVTZ
scf_type     df
}

energy("mp2")
--------------------------------------------------------------------------

    Molecular point group: c1

    Geometry (in Angstrom), charge = -1, multiplicity = 1:

       Center              X                  Y                   Z               Mass
    ------------   -----------------  -----------------  -----------------  -----------------
         BR           0.000000000000     0.000000000000     0.000000000000    78.918337600000
         O           -0.389734000000    -0.598419000000    -3.176388000000    15.994914619570
         H           -0.465508000000     0.292966000000    -3.519841000000     1.007825032230
         H            0.113003000000    -0.512129000000    -2.347686000000     1.007825032230
         O            1.397414000000     3.038515000000     0.513452000000    15.994914619570
         H            0.940691000000     3.150955000000     1.319867000000     1.007825032230
         H            1.055355000000     2.289705000000     0.200989000000     1.007825032230
         O            1.276458000000    -2.240841000000     2.084055000000    15.994914619570
         H            2.053789000000    -2.628877000000     1.781351000000     1.007825032230
         H            0.942450000000    -1.517205000000     1.560668000000     1.007825032230
         O            2.870105000000    -1.015920000000    -1.248286000000    15.994914619570
         H            3.514743000000    -0.967933000000    -0.518971000000     1.007825032230
         H            2.050698000000    -0.852438000000    -0.717526000000     1.007825032230
         O           -1.016719000000     3.064452000000    -1.085676000000    15.994914619570
         H           -1.384642000000     2.386952000000    -1.618609000000     1.007825032230
         H           -0.007287000000     3.049352000000    -1.229396000000     1.007825032230

  Charge       = -1
  Multiplicity = 1
  Basis Set: AUG-CC-PVTZ
    Blend: AUG-CC-PVTZ
  Basis Set: (AUG-CC-PVTZ AUX)
    Blend: AUG-CC-PVTZ-JKFIT

    Orbital Energies [Eh]
    ---------------------

    Doubly Occupied:

       1A   -489.789166     2A    -64.929802     3A    -58.284292
       4A    -58.284271     5A    -58.284243     6A    -20.434119
       7A    -20.426290     8A    -20.421951     9A    -20.417788
      10A    -20.412480    11A     -9.602308    12A     -7.209915
      13A     -7.209869    14A     -7.209639    15A     -2.951563
      16A     -2.951552    17A     -2.951300    18A     -2.951219
      19A     -2.951160    20A     -1.251270    21A     -1.214588
      22A     -1.210032    23A     -1.202973    24A     -1.201838
      25A     -0.771932    26A     -0.614614    27A     -0.608160
      28A     -0.578919    29A     -0.569379    30A     -0.550414
      31A     -0.470384    32A     -0.454795    33A     -0.446054
      34A     -0.438716    35A     -0.428277    36A     -0.389778
      37A     -0.371066    38A     -0.367980    39A     -0.366565
      40A     -0.363708    41A     -0.218528    42A     -0.217619
      43A     -0.215164

  @DF-RHF Final Energy: -2952.86012614891570

   => Energetics <=

    Nuclear Repulsion Energy =            449.5622461676082366
    One-Electron Energy =               -5020.4533769179633964
    Two-Electron Energy =                1618.0310046014392356
    Total Energy =                      -2952.8601261489156968
 Dipole X            :        -79.5138303           79.2050057           -0.3088246
 Dipole Y            :        -42.6837804           42.8469774            0.1631970
 Dipole Z            :         54.3690841          -53.6529114            0.7161727
 Magnitude           :                                                    0.7968119
  Basis Set: (AUG-CC-PVTZ AUX)
    Blend: AUG-CC-PVTZ-RI
	 Reference Energy          =   -2952.8601261489156968 [Eh]
	 Singles Energy            =      -0.0000000000000000 [Eh]
	 Same-Spin Energy          =      -0.4451625436140580 [Eh]
	 Opposite-Spin Energy      =      -1.3011088674381170 [Eh]
	 Correlation Energy        =      -1.7462714110521751 [Eh]
	 Total Energy              =   -2954.6063975599677178 [Eh]

	 ================> DF-SCS-MP2 Energies <==================
	-----------------------------------------------------------
	 SCS Same-Spin Scale       =       0.3333333333333333 [-]
	 SCS Opposite-Spin Scale   =       1.2000000000000000 [-]
	 SCS Same-Spin Energy      =      -0.1483875145380193 [Eh]
	 SCS Opposite-Spin Energy  =      -1.5613306409257404 [Eh]
	 SCS Correlation Energy    =      -1.7097181554637597 [Eh]
	 SCS Total Energy          =   -2954.5698443043793304 [Eh]
	-----------------------------------------------------------

*** Psi4 exiting successfully. Buy a developer a beer!
