                               Psi4 1.9 release

  ==> Input File <==

--------------------------------------------------------------------------
MEMORY 60 GB

molecule dimer {
-1 1
Br     0.000000     0.000000     0.000000
--
0 1
O     -2.849832     1.193942    -1.826212
H     -1.931928     1.207032    -1.575616
H     -2.940118     0.369058    -2.291841
O      3.301686    -0.334450    -0.377123
H      2.396533    -0.045027    -0.274515
H      3.799968     0.084606     0.318721
O     -0.087440     3.511872     0.501620
H      0.781254     4.031099     0.240035
H     -0.046340     2.573718     0.235001
O      0.762499     2.499028    -2.179473
H      0.529887     2.070563    -3.000811
H      0.722495     1.889826    -1.445165
O     -1.395787    -1.285353    -2.578759
H     -0.708440    -1.470841    -3.234854
H     -0.928793    -0.644101    -2.033967

units ang
no_reorient
no_com
symmetry c1
}

set {
basis        aug-cc-pVTZ
scf_type     df
}

energy("mp2", bsse_type="cp")
--------------------------------------------------------------------------

                               Psi4 1.9 release
    Molecular point group: c1
  Charge       = 0
  Multiplicity = 1
  Basis Set: AUG-CC-PVTZ
    Blend: AUG-CC-PVTZ
  Basis Set: (AUG-CC-PVTZ AUX)
    Blend: AUG-CC-PVTZ-JKFIT
  @DF-RHF Final Energy:  -380.27430081867851
    Total Energy =                       -380.2743008186785119
 Dipole X            :          2.3504030           -0.9004054            1.4499976
 Dipole Y            :       -104.1727372          103.4554094           -0.7173277
 Dipole Z            :        122.1158544         -122.3457600           -0.2299056
 Magnitude           :                                                    1.6339855
  Basis Set: (AUG-CC-PVTZ AUX)
    Blend: AUG-CC-PVTZ-RI
	 Reference Energy          =    -380.2743008186785119 [Eh]
	 Singles Energy            =      -0.0000000000000000 [Eh]
	 Same-Spin Energy          =      -0.3456528457323441 [Eh]
	 Opposite-Spin Energy      =      -1.0851690152324700 [Eh]
	 Correlation Energy        =      -1.4308218609648140 [Eh]
	 Total Energy              =    -381.7051226796433525 [Eh]
	 SCS Total Energy          =    -381.6917212522016030 [Eh]
                               Psi4 1.9 release
    Molecular point group: c1
  Multiplicity = 1
  Basis Set: AUG-CC-PVTZ
    Blend: AUG-CC-PVTZ
  Basis Set: (AUG-CC-PVTZ AUX)
    Blend: AUG-CC-PVTZ-JKFIT
  @DF-RHF Final Energy: -2572.53372945219417
    Total Energy =                      -2572.5337294521946205
  Basis Set: (AUG-CC-PVTZ AUX)
	 Singles Energy            =      -0.0000000000000000 [Eh]
	 Same-Spin Energy          =      -0.0913029971439708 [Eh]
	 Opposite-Spin Energy      =      -0.2125793168615778 [Eh]
	 Correlation Energy        =      -0.3038823140055487 [Eh]
	 Total Energy              =   -2572.8376117661996432 [Eh]
	 SCS Total Energy          =   -2572.8192589648092508 [Eh]
                               Psi4 1.9 release
    Molecular point group: c1

    Geometry (in Bohr), charge = -1, multiplicity = 1:

       Center              X                  Y                   Z               Mass
    ------------   -----------------  -----------------  -----------------  -----------------
         BR           0.000000000000     0.000000000000     0.000000000000    78.918337600000
         O           -5.385401983566     2.256223389681    -3.451040527025    15.994914619570
         H           -3.650814814103     2.280959904664    -2.977482718889     1.007825032230
         H           -5.556017796529     0.697418544409    -4.330951813095     1.007825032230
         O            6.239282292258    -0.632018902659    -0.712659185611    15.994914619570
         H            4.528791020622    -0.085088698251    -0.518758167330     1.007825032230
         H            7.180898805504     0.159882168570     0.602295400432     1.007825032230
         O           -0.165237652410     6.636476267664     0.947924419052    15.994914619570
         H            1.476356094418     7.617673094607     0.453600410524     1.007825032230
         H           -0.087569908654     4.863622144161     0.444087529209     1.007825032230
         O            1.440914280935     4.722478499851    -4.118607067830    15.994914619570
         H            1.001341307440     3.912796995506    -5.670710944261     1.007825032230
         H            1.365317677013     3.571253564769    -2.730966056097     1.007825032230
         O           -2.637655159474    -2.428965144536    -4.873148253560    15.994914619570
         H           -1.338757576319    -2.779486664095    -6.112988115842     1.007825032230
         H           -1.755164397242    -1.217174487134    -3.843640578219     1.007825032230

  Charge       = -1
  Multiplicity = 1
  Basis Set: AUG-CC-PVTZ
    Blend: AUG-CC-PVTZ
  Basis Set: (AUG-CC-PVTZ AUX)
    Blend: AUG-CC-PVTZ-JKFIT

    Orbital Energies [Eh]
    ---------------------

    Doubly Occupied:

       1A   -489.795898     2A    -64.936378     3A    -58.290891
       4A    -58.290844     5A    -58.290826     6A    -20.435605
       7A    -20.427310     8A    -20.424313     9A    -20.423700
      10A    -20.412789    11A     -9.608747    12A     -7.216391
      13A     -7.216232    14A     -7.216035    15A     -2.958047
      16A     -2.958018    17A     -2.957801    18A     -2.957564
      19A     -2.957537    20A     -1.225153    21A     -1.218443
      22A     -1.214718    23A     -1.205788    24A     -1.178720
      25A     -0.776754    26A     -0.603345    27A     -0.585571
      28A     -0.577706    29A     -0.569482    30A     -0.557557
      31A     -0.468858    32A     -0.446708    33A     -0.446315
      34A     -0.441468    35A     -0.417669    36A     -0.380453
      37A     -0.379434    38A     -0.371618    39A     -0.361016
      40A     -0.355665    41A     -0.224797    42A     -0.223362
      43A     -0.220482

  @DF-RHF Final Energy: -2952.86624944060441

   => Energetics <=

    Nuclear Repulsion Energy =            450.7163002032713734
    One-Electron Energy =               -5022.7130733038229664
    Two-Electron Energy =                1619.1305236599473574
    Total Energy =                      -2952.8662494406044061
 Dipole X            :          2.1160559           -0.9004054            1.2156506
 Dipole Y            :       -104.8255662          103.4554094           -1.3701567
 Dipole Z            :        122.9349845         -122.3457600            0.5892245
 Magnitude           :                                                    1.9241417
  Basis Set: (AUG-CC-PVTZ AUX)
    Blend: AUG-CC-PVTZ-RI
	 Reference Energy          =   -2952.8662494406044061 [Eh]
	 Singles Energy            =      -0.0000000000000000 [Eh]
	 Same-Spin Energy          =      -0.4465765200392257 [Eh]
	 Opposite-Spin Energy      =      -1.3050838415551393 [Eh]
	 Correlation Energy        =      -1.7516603615943649 [Eh]
	 Total Energy              =   -2954.6179098021989375 [Eh]

	 ================> DF-SCS-MP2 Energies <==================
	-----------------------------------------------------------
	 SCS Same-Spin Scale       =       0.3333333333333333 [-]
	 SCS Opposite-Spin Scale   =       1.2000000000000000 [-]
	 SCS Same-Spin Energy      =      -0.1488588400130752 [Eh]
	 SCS Opposite-Spin Energy  =      -1.5661006098661672 [Eh]
	 SCS Correlation Energy    =      -1.7149594498792424 [Eh]
	 SCS Total Energy          =   -2954.5812088904835946 [Eh]
	-----------------------------------------------------------

*** Psi4 exiting successfully. Buy a developer a beer!
