                               Psi4 1.8.2 release

  ==> Input File <==

--------------------------------------------------------------------------
MEMORY 60 GB

molecule dimer {
-1 1
Br         0.000000     0.000000     0.000000
O         -1.555931    -2.410735     1.903242
H         -1.336158    -1.685951     1.329705
H         -1.202065    -2.143102     2.753233
O          1.417048     1.968120    -2.039520
H          1.167136     1.401234    -1.339808
H          2.306972     2.196646    -1.827799
O         -2.508795     2.074873    -1.101146
H         -3.092353     1.814461    -0.316996
H         -1.909740     1.348917    -1.007525
O          2.328483    -2.470186    -0.546566
H          1.861807    -3.293107    -0.316598
H          1.615156    -1.824846    -0.512308
O         -1.332291    -0.652158    -3.288020
H         -0.891184    -0.465234    -2.411088
H         -0.886797    -0.114013    -3.927637

units ang
no_reorient
no_com
symmetry c1
}

set {
basis        aug-cc-pVTZ
scf_type     df
}

energy("mp2")
--------------------------------------------------------------------------

    Molecular point group: c1

    Geometry (in Angstrom), charge = -1, multiplicity = 1:

       Center              X                  Y                   Z               Mass
    ------------   -----------------  -----------------  -----------------  -----------------
         BR           0.000000000000     0.000000000000     0.000000000000    78.918337600000
         O           -1.555931000000    -2.410735000000     1.903242000000    15.994914619570
         H           -1.336158000000    -1.685951000000     1.329705000000     1.007825032230
         H           -1.202065000000    -2.143102000000     2.753233000000     1.007825032230
         O            1.417048000000     1.968120000000    -2.039520000000    15.994914619570
         H            1.167136000000     1.401234000000    -1.339808000000     1.007825032230
         H            2.306972000000     2.196646000000    -1.827799000000     1.007825032230
         O           -2.508795000000     2.074873000000    -1.101146000000    15.994914619570
         H           -3.092353000000     1.814461000000    -0.316996000000     1.007825032230
         H           -1.909740000000     1.348917000000    -1.007525000000     1.007825032230
         O            2.328483000000    -2.470186000000    -0.546566000000    15.994914619570
         H            1.861807000000    -3.293107000000    -0.316598000000     1.007825032230
         H            1.615156000000    -1.824846000000    -0.512308000000     1.007825032230
         O           -1.332291000000    -0.652158000000    -3.288020000000    15.994914619570
         H           -0.891184000000    -0.465234000000    -2.411088000000     1.007825032230
         H           -0.886797000000    -0.114013000000    -3.927637000000     1.007825032230

  Charge       = -1
  Multiplicity = 1
  Basis Set: AUG-CC-PVTZ
    Blend: AUG-CC-PVTZ
  Basis Set: (AUG-CC-PVTZ AUX)
    Blend: AUG-CC-PVTZ-JKFIT

    Orbital Energies [Eh]
    ---------------------

    Doubly Occupied:

       1A   -489.801439     2A    -64.941999     3A    -58.296499
       4A    -58.296488     5A    -58.296452     6A    -20.432342
       7A    -20.426344     8A    -20.425586     9A    -20.421474
      10A    -20.413993    11A     -9.614407    12A     -7.222037
      13A     -7.221910    14A     -7.221799    15A     -2.963631
      16A     -2.963615    17A     -2.963456    18A     -2.963346
      19A     -2.963309    20A     -1.223352    21A     -1.218082
      22A     -1.208882    23A     -1.203675    24A     -1.200069
      25A     -0.782774    26A     -0.587089    27A     -0.580927
      28A     -0.568871    29A     -0.566512    30A     -0.543360
      31A     -0.459078    32A     -0.455664    33A     -0.451346
      34A     -0.448614    35A     -0.436849    36A     -0.379876
      37A     -0.370227    38A     -0.368669    39A     -0.366532
      40A     -0.361518    41A     -0.231710    42A     -0.229102
      43A     -0.226971

  @DF-RHF Final Energy: -2952.88123403984719

   => Energetics <=

    Nuclear Repulsion Energy =            436.0061207201126194
    One-Electron Energy =               -4993.1349572211647683
    Two-Electron Energy =                1604.2476024612055880
    Total Energy =                      -2952.8812340398467313
 Dipole X            :         30.1943939          -29.4402587            0.7541352
 Dipole Y            :         28.1024583          -27.7519188            0.3505394
 Dipole Z            :         93.0629035          -90.9957950            2.0671085
 Magnitude           :                                                    2.2281237
  Basis Set: (AUG-CC-PVTZ AUX)
    Blend: AUG-CC-PVTZ-RI
	 Reference Energy          =   -2952.8812340398471861 [Eh]
	 Singles Energy            =      -0.0000000000000000 [Eh]
	 Same-Spin Energy          =      -0.4444937468806906 [Eh]
	 Opposite-Spin Energy      =      -1.3020808729054905 [Eh]
	 Correlation Energy        =      -1.7465746197861811 [Eh]
	 Total Energy              =   -2954.6278086596335015 [Eh]

	 ================> DF-SCS-MP2 Energies <==================
	-----------------------------------------------------------
	 SCS Same-Spin Scale       =       0.3333333333333333 [-]
	 SCS Opposite-Spin Scale   =       1.2000000000000000 [-]
	 SCS Same-Spin Energy      =      -0.1481645822935635 [Eh]
	 SCS Opposite-Spin Energy  =      -1.5624970474865885 [Eh]
	 SCS Correlation Energy    =      -1.7106616297801520 [Eh]
	 SCS Total Energy          =   -2954.5918956696273199 [Eh]
	-----------------------------------------------------------

*** Psi4 exiting successfully. Buy a developer a beer!
