                               Psi4 1.8.2 release

  ==> Input File <==

--------------------------------------------------------------------------
MEMORY 60 GB

molecule dimer {
-1 1
Br         0.000000     0.000000     0.000000
O          1.578311    -2.750057     1.129134
H          2.275052    -2.856220     0.456785
H          1.365926    -1.831382     1.132918
O          1.294967     2.190981     1.966174
H          0.633025     2.183210     2.649956
H          0.974462     1.512747     1.303727
O         -0.142327     0.019548     3.444487
H          0.556138    -0.565782     3.737245
H         -0.248290     0.125821     2.436320
O         -1.175057    -3.092866     0.072592
H         -1.948415    -2.982136    -0.544682
H         -0.845584    -2.244508     0.354573
O         -2.669208    -0.113958     2.008018
H         -3.296598     0.445070     1.489547
H         -1.952017    -0.165603     1.402326
O          3.253588     1.021586    -0.786884
H          2.951647     1.725248    -1.377890
H          2.551185     0.537784    -0.424420

units ang
no_reorient
no_com
symmetry c1
}

set {
basis        aug-cc-pVTZ
scf_type     df
}

energy("mp2")
--------------------------------------------------------------------------

    Molecular point group: c1

    Geometry (in Angstrom), charge = -1, multiplicity = 1:

       Center              X                  Y                   Z               Mass
    ------------   -----------------  -----------------  -----------------  -----------------
         BR           0.000000000000     0.000000000000     0.000000000000    78.918337600000
         O            1.578311000000    -2.750057000000     1.129134000000    15.994914619570
         H            2.275052000000    -2.856220000000     0.456785000000     1.007825032230
         H            1.365926000000    -1.831382000000     1.132918000000     1.007825032230
         O            1.294967000000     2.190981000000     1.966174000000    15.994914619570
         H            0.633025000000     2.183210000000     2.649956000000     1.007825032230
         H            0.974462000000     1.512747000000     1.303727000000     1.007825032230
         O           -0.142327000000     0.019548000000     3.444487000000    15.994914619570
         H            0.556138000000    -0.565782000000     3.737245000000     1.007825032230
         H           -0.248290000000     0.125821000000     2.436320000000     1.007825032230
         O           -1.175057000000    -3.092866000000     0.072592000000    15.994914619570
         H           -1.948415000000    -2.982136000000    -0.544682000000     1.007825032230
         H           -0.845584000000    -2.244508000000     0.354573000000     1.007825032230
         O           -2.669208000000    -0.113958000000     2.008018000000    15.994914619570
         H           -3.296598000000     0.445070000000     1.489547000000     1.007825032230
         H           -1.952017000000    -0.165603000000     1.402326000000     1.007825032230
         O            3.253588000000     1.021586000000    -0.786884000000    15.994914619570
         H            2.951647000000     1.725248000000    -1.377890000000     1.007825032230
         H            2.551185000000     0.537784000000    -0.424420000000     1.007825032230

  Charge       = -1
  Multiplicity = 1
  Basis Set: AUG-CC-PVTZ
    Blend: AUG-CC-PVTZ
  Basis Set: (AUG-CC-PVTZ AUX)
    Blend: AUG-CC-PVTZ-JKFIT

    Orbital Energies [Eh]
    ---------------------

    Doubly Occupied:

       1A   -489.817421     2A    -64.958216     3A    -58.312692
       4A    -58.312687     5A    -58.312633     6A    -20.429713
       7A    -20.429225     8A    -20.426445     9A    -20.418262
      10A    -20.414583    11A    -20.403624    12A     -9.630811
      13A     -7.238467    14A     -7.238396    15A     -7.238128
      16A     -2.980130    17A     -2.980109    18A     -2.979766
      19A     -2.979692    20A     -2.979586    21A     -1.223414
      22A     -1.217604    23A     -1.215706    24A     -1.192212
      25A     -1.191354    26A     -1.182876    27A     -0.803559
      28A     -0.609648    29A     -0.589419    30A     -0.586176
      31A     -0.571101    32A     -0.564272    33A     -0.551786
      34A     -0.457989    35A     -0.448583    36A     -0.445027
      37A     -0.433034    38A     -0.423231    39A     -0.417007
      40A     -0.379381    41A     -0.375901    42A     -0.375212
      43A     -0.363965    44A     -0.355210    45A     -0.342754
      46A     -0.248970    47A     -0.245375    48A     -0.242072

  @DF-RHF Final Energy: -3028.91981359361398

   => Energetics <=

    Nuclear Repulsion Energy =            583.3431140383040656
    One-Electron Energy =               -5393.4590037170328287
    Two-Electron Energy =                1781.1960760851154646
    Total Energy =                      -3028.9198135936139806
 Dipole X            :        -39.0292169           38.0566710           -0.9725459
 Dipole Y            :         49.8511372          -48.9701342            0.8810031
 Dipole Z            :       -144.9662540          142.2672244           -2.6990296
 Magnitude           :                                                    3.0011286
  Basis Set: (AUG-CC-PVTZ AUX)
    Blend: AUG-CC-PVTZ-RI
	 Reference Energy          =   -3028.9198135936139806 [Eh]
	 Singles Energy            =      -0.0000000000000000 [Eh]
	 Same-Spin Energy          =      -0.5198053693914099 [Eh]
	 Opposite-Spin Energy      =      -1.5277025655855689 [Eh]
	 Correlation Energy        =      -2.0475079349769789 [Eh]
	 Total Energy              =   -3030.9673215285911283 [Eh]

	 ================> DF-SCS-MP2 Energies <==================
	-----------------------------------------------------------
	 SCS Same-Spin Scale       =       0.3333333333333333 [-]
	 SCS Opposite-Spin Scale   =       1.2000000000000000 [-]
	 SCS Same-Spin Energy      =      -0.1732684564638033 [Eh]
	 SCS Opposite-Spin Energy  =      -1.8332430787026825 [Eh]
	 SCS Correlation Energy    =      -2.0065115351664859 [Eh]
	 SCS Total Energy          =   -3030.9263251287802632 [Eh]
	-----------------------------------------------------------

*** Psi4 exiting successfully. Buy a developer a beer!
