                               Psi4 1.8.2 release

  ==> Input File <==

--------------------------------------------------------------------------
MEMORY 60 GB

molecule dimer {
-1 1
Br         0.000000     0.000000     0.000000
O          0.781449    -0.807907    -3.361660
H          1.592848    -1.345644    -3.304069
H          0.648406    -0.568569    -2.400584
O          2.510193    -1.908503     0.397343
H          1.800244    -1.321266     0.041421
H          2.224768    -2.811754     0.197244
O          1.731416    -0.150931     2.710083
H          2.460238     0.314986     2.378625
H          1.139946    -0.218518     1.919575
O          2.207844     2.294641     0.275850
H          1.617671     1.545812     0.305669
H          2.353701     2.388285    -0.692227

units ang
no_reorient
no_com
symmetry c1
}

set {
basis        aug-cc-pVTZ
scf_type     df
}

energy("mp2")
--------------------------------------------------------------------------

    Molecular point group: c1

    Geometry (in Angstrom), charge = -1, multiplicity = 1:

       Center              X                  Y                   Z               Mass
    ------------   -----------------  -----------------  -----------------  -----------------
         BR           0.000000000000     0.000000000000     0.000000000000    78.918337600000
         O            0.781449000000    -0.807907000000    -3.361660000000    15.994914619570
         H            1.592848000000    -1.345644000000    -3.304069000000     1.007825032230
         H            0.648406000000    -0.568569000000    -2.400584000000     1.007825032230
         O            2.510193000000    -1.908503000000     0.397343000000    15.994914619570
         H            1.800244000000    -1.321266000000     0.041421000000     1.007825032230
         H            2.224768000000    -2.811754000000     0.197244000000     1.007825032230
         O            1.731416000000    -0.150931000000     2.710083000000    15.994914619570
         H            2.460238000000     0.314986000000     2.378625000000     1.007825032230
         H            1.139946000000    -0.218518000000     1.919575000000     1.007825032230
         O            2.207844000000     2.294641000000     0.275850000000    15.994914619570
         H            1.617671000000     1.545812000000     0.305669000000     1.007825032230
         H            2.353701000000     2.388285000000    -0.692227000000     1.007825032230

  Charge       = -1
  Multiplicity = 1
  Basis Set: AUG-CC-PVTZ
    Blend: AUG-CC-PVTZ
  Basis Set: (AUG-CC-PVTZ AUX)
    Blend: AUG-CC-PVTZ-JKFIT

    Orbital Energies [Eh]
    ---------------------

    Doubly Occupied:

       1A   -489.795519     2A    -64.936251     3A    -58.290735
       4A    -58.290694     5A    -58.290681     6A    -20.437614
       7A    -20.414614     8A    -20.412484     9A    -20.385912
      10A     -9.608872    11A     -7.216489    12A     -7.216423
      13A     -7.216198    14A     -2.958139    15A     -2.958106
      16A     -2.957885    17A     -2.957751    18A     -2.957688
      19A     -1.208073    20A     -1.199469    21A     -1.192227
      22A     -1.179873    23A     -0.780747    24A     -0.562410
      25A     -0.561132    26A     -0.557462    27A     -0.541153
      28A     -0.457091    29A     -0.443993    30A     -0.432753
      31A     -0.420600    32A     -0.376473    33A     -0.362073
      34A     -0.360019    35A     -0.330186    36A     -0.224406
      37A     -0.223772    38A     -0.220388

  @DF-RHF Final Energy: -2876.80503941280540

   => Energetics <=

    Nuclear Repulsion Energy =            348.5390604871745381
    One-Electron Energy =               -4712.8154802740209561
    Two-Electron Energy =                1487.4713803740407911
    Total Energy =                      -2876.8050394128058542
 Dipole X            :       -136.8361423          135.4650891           -1.3710532
 Dipole Y            :         12.0199567          -12.4689194           -0.4489627
 Dipole Z            :          1.6018482           -2.6105017           -1.0086535
 Magnitude           :                                                    1.7603228
  Basis Set: (AUG-CC-PVTZ AUX)
    Blend: AUG-CC-PVTZ-RI
	 Reference Energy          =   -2876.8050394128053995 [Eh]
	 Singles Energy            =      -0.0000000000000000 [Eh]
	 Same-Spin Energy          =      -0.3781848933249106 [Eh]
	 Opposite-Spin Energy      =      -1.0900012068283818 [Eh]
	 Correlation Energy        =      -1.4681861001532923 [Eh]
	 Total Energy              =   -2878.2732255129585610 [Eh]

	 ================> DF-SCS-MP2 Energies <==================
	-----------------------------------------------------------
	 SCS Same-Spin Scale       =       0.3333333333333333 [-]
	 SCS Opposite-Spin Scale   =       1.2000000000000000 [-]
	 SCS Same-Spin Energy      =      -0.1260616311083035 [Eh]
	 SCS Opposite-Spin Energy  =      -1.3080014481940581 [Eh]
	 SCS Correlation Energy    =      -1.4340630793023617 [Eh]
	 SCS Total Energy          =   -2878.2391024921075768 [Eh]
	-----------------------------------------------------------

*** Psi4 exiting successfully. Buy a developer a beer!
