                               Psi4 1.8.2 release

  ==> Input File <==

--------------------------------------------------------------------------
MEMORY 60 GB

molecule dimer {
0 1
Gh(Br)     0.000000     0.000000     0.000000
Gh(O)     -0.379237     2.882694    -2.014268
Gh(H)      0.562370     3.245775    -1.893921
Gh(H)     -0.429436     2.146345    -1.405238
O          0.265547    -2.152641    -2.556446
H          0.109230    -1.512354    -1.853273
H         -0.395724    -2.804868    -2.310221
Gh(O)      2.476012     1.824756     1.189733
Gh(H)      1.692344     1.651069     0.621015
Gh(H)      2.748789     2.618981     0.811553
Gh(O)      2.562109    -2.156767    -0.903197
Gh(H)      2.064666    -2.905687    -1.220072
Gh(H)      1.839878    -1.556832    -0.648916

units ang
no_reorient
no_com
symmetry c1
}

set {
basis        aug-cc-pVTZ
scf_type     df
}

energy("mp2")
--------------------------------------------------------------------------

    Molecular point group: c1

    Geometry (in Angstrom), charge = 0, multiplicity = 1:

       Center              X                  Y                   Z               Mass
    ------------   -----------------  -----------------  -----------------  -----------------
      Gh(BR)          0.000000000000     0.000000000000     0.000000000000    78.918337600000
      Gh(O)          -0.379237000000     2.882694000000    -2.014268000000    15.994914619570
      Gh(H)           0.562370000000     3.245775000000    -1.893921000000     1.007825032230
      Gh(H)          -0.429436000000     2.146345000000    -1.405238000000     1.007825032230
         O            0.265547000000    -2.152641000000    -2.556446000000    15.994914619570
         H            0.109230000000    -1.512354000000    -1.853273000000     1.007825032230
         H           -0.395724000000    -2.804868000000    -2.310221000000     1.007825032230
      Gh(O)           2.476012000000     1.824756000000     1.189733000000    15.994914619570
      Gh(H)           1.692344000000     1.651069000000     0.621015000000     1.007825032230
      Gh(H)           2.748789000000     2.618981000000     0.811553000000     1.007825032230
      Gh(O)           2.562109000000    -2.156767000000    -0.903197000000    15.994914619570
      Gh(H)           2.064666000000    -2.905687000000    -1.220072000000     1.007825032230
      Gh(H)           1.839878000000    -1.556832000000    -0.648916000000     1.007825032230

  Charge       = 0
  Multiplicity = 1
  Basis Set: AUG-CC-PVTZ
    Blend: AUG-CC-PVTZ
  Basis Set: (AUG-CC-PVTZ AUX)
    Blend: AUG-CC-PVTZ-JKFIT

    Orbital Energies [Eh]
    ---------------------

    Doubly Occupied:

       1A    -20.570372     2A     -1.355115     3A     -0.703453
       4A     -0.595205     5A     -0.511578

  @DF-RHF Final Energy:   -76.05911344236686

   => Energetics <=

    Nuclear Repulsion Energy =              9.1605036705311456
    One-Electron Energy =                -122.9677848628062264
    Two-Electron Energy =                  37.7481677499082124
    Total Energy =                        -76.0591134423668791
 Dipole X            :         -4.0067988            3.4730936           -0.5337052
 Dipole Y            :         40.6936029          -40.7015827           -0.0079798
 Dipole Z            :         47.1346978          -46.5157257            0.6189720
 Magnitude           :                                                    0.8173318
  Basis Set: (AUG-CC-PVTZ AUX)
    Blend: AUG-CC-PVTZ-RI
	 Reference Energy          =     -76.0591134423668649 [Eh]
	 Singles Energy            =      -0.0000000000000000 [Eh]
	 Same-Spin Energy          =      -0.0686592764675685 [Eh]
	 Opposite-Spin Energy      =      -0.2167099900138126 [Eh]
	 Correlation Energy        =      -0.2853692664813812 [Eh]
	 Total Energy              =     -76.3444827088482469 [Eh]

	 ================> DF-SCS-MP2 Energies <==================
	-----------------------------------------------------------
	 SCS Same-Spin Scale       =       0.3333333333333333 [-]
	 SCS Opposite-Spin Scale   =       1.2000000000000000 [-]
	 SCS Same-Spin Energy      =      -0.0228864254891895 [Eh]
	 SCS Opposite-Spin Energy  =      -0.2600519880165751 [Eh]
	 SCS Correlation Energy    =      -0.2829384135057647 [Eh]
	 SCS Total Energy          =     -76.3420518558726258 [Eh]
	-----------------------------------------------------------

*** Psi4 exiting successfully. Buy a developer a beer!
