                               Psi4 1.8.2 release

  ==> Input File <==

--------------------------------------------------------------------------
MEMORY 60 GB

molecule dimer {
-1 1
Br         0.000000     0.000000     0.000000
O          2.943776    -1.291586    -0.717929
H          3.240026    -1.464467     0.202400
H          1.978967    -1.068027    -0.600416
O         -0.095928    -0.517762     3.548290
H         -0.814866    -1.197163     3.491646
H         -0.072377    -0.113912     2.693842
O          0.527750    -0.312189    -3.389362
H          0.441500     0.034753    -2.536104
H          1.092442     0.303107    -3.915709
O         -1.833587     2.369462     2.018259
H         -2.428429     3.194020     1.901604
H         -1.874762     2.017001     1.165854
O         -0.596122    -3.194149    -0.160636
H         -1.524899    -3.188801     0.101012
H         -0.342956    -2.240154    -0.160816
O          2.451296     2.621292    -0.011617
H          1.651985     2.047015    -0.019684
H          3.130850     2.123247    -0.509532

units ang
no_reorient
no_com
symmetry c1
}

set {
basis        aug-cc-pVTZ
scf_type     df
}

energy("mp2")
--------------------------------------------------------------------------

    Molecular point group: c1

    Geometry (in Angstrom), charge = -1, multiplicity = 1:

       Center              X                  Y                   Z               Mass
    ------------   -----------------  -----------------  -----------------  -----------------
         BR           0.000000000000     0.000000000000     0.000000000000    78.918337600000
         O            2.943776000000    -1.291586000000    -0.717929000000    15.994914619570
         H            3.240026000000    -1.464467000000     0.202400000000     1.007825032230
         H            1.978967000000    -1.068027000000    -0.600416000000     1.007825032230
         O           -0.095928000000    -0.517762000000     3.548290000000    15.994914619570
         H           -0.814866000000    -1.197163000000     3.491646000000     1.007825032230
         H           -0.072377000000    -0.113912000000     2.693842000000     1.007825032230
         O            0.527750000000    -0.312189000000    -3.389362000000    15.994914619570
         H            0.441500000000     0.034753000000    -2.536104000000     1.007825032230
         H            1.092442000000     0.303107000000    -3.915709000000     1.007825032230
         O           -1.833587000000     2.369462000000     2.018259000000    15.994914619570
         H           -2.428429000000     3.194020000000     1.901604000000     1.007825032230
         H           -1.874762000000     2.017001000000     1.165854000000     1.007825032230
         O           -0.596122000000    -3.194149000000    -0.160636000000    15.994914619570
         H           -1.524899000000    -3.188801000000     0.101012000000     1.007825032230
         H           -0.342956000000    -2.240154000000    -0.160816000000     1.007825032230
         O            2.451296000000     2.621292000000    -0.011617000000    15.994914619570
         H            1.651985000000     2.047015000000    -0.019684000000     1.007825032230
         H            3.130850000000     2.123247000000    -0.509532000000     1.007825032230

  Charge       = -1
  Multiplicity = 1
  Basis Set: AUG-CC-PVTZ
    Blend: AUG-CC-PVTZ
  Basis Set: (AUG-CC-PVTZ AUX)
    Blend: AUG-CC-PVTZ-JKFIT

    Orbital Energies [Eh]
    ---------------------

    Doubly Occupied:

       1A   -489.807412     2A    -64.948023     3A    -58.302518
       4A    -58.302505     5A    -58.302481     6A    -20.457465
       7A    -20.431766     8A    -20.429734     9A    -20.427917
      10A    -20.420265    11A    -20.417151    12A     -9.620450
      13A     -7.228108    14A     -7.228014    15A     -7.227780
      16A     -2.969739    17A     -2.969719    18A     -2.969458
      19A     -2.969355    20A     -2.969299    21A     -1.236659
      22A     -1.218316    23A     -1.208729    24A     -1.204070
      25A     -1.196179    26A     -1.190165    27A     -0.789486
      28A     -0.592477    29A     -0.587901    30A     -0.574631
      31A     -0.570175    32A     -0.560439    33A     -0.550598
      34A     -0.475668    35A     -0.447282    36A     -0.445931
      37A     -0.445292    38A     -0.439042    39A     -0.438975
      40A     -0.396942    41A     -0.375947    42A     -0.372509
      43A     -0.371149    44A     -0.360676    45A     -0.360236
      46A     -0.237322    47A     -0.236082    48A     -0.232081

  @DF-RHF Final Energy: -3028.93409610185154

   => Energetics <=

    Nuclear Repulsion Energy =            546.4013476551023132
    One-Electron Energy =               -5319.6426476517171977
    Two-Electron Energy =                1744.3072038947630062
    Total Energy =                      -3028.9340961018515372
 Dipole X            :        -61.6423641           59.8192068           -1.8231573
 Dipole Y            :          4.9971850           -4.0682723            0.9289127
 Dipole Z            :        -23.3212444           22.8848423           -0.4364021
 Magnitude           :                                                    2.0921826
  Basis Set: (AUG-CC-PVTZ AUX)
    Blend: AUG-CC-PVTZ-RI
	 Reference Energy          =   -3028.9340961018515372 [Eh]
	 Singles Energy            =      -0.0000000000000000 [Eh]
	 Same-Spin Energy          =      -0.5154774615459460 [Eh]
	 Opposite-Spin Energy      =      -1.5230046311925152 [Eh]
	 Correlation Energy        =      -2.0384820927384610 [Eh]
	 Total Energy              =   -3030.9725781945899143 [Eh]

	 ================> DF-SCS-MP2 Energies <==================
	-----------------------------------------------------------
	 SCS Same-Spin Scale       =       0.3333333333333333 [-]
	 SCS Opposite-Spin Scale   =       1.2000000000000000 [-]
	 SCS Same-Spin Energy      =      -0.1718258205153153 [Eh]
	 SCS Opposite-Spin Energy  =      -1.8276055574310182 [Eh]
	 SCS Correlation Energy    =      -1.9994313779463335 [Eh]
	 SCS Total Energy          =   -3030.9335274797977036 [Eh]
	-----------------------------------------------------------

*** Psi4 exiting successfully. Buy a developer a beer!
