                               Psi4 1.8.2 release

  ==> Input File <==

--------------------------------------------------------------------------
MEMORY 60 GB

molecule dimer {
-1 1
Br         0.000000     0.000000     0.000000
Gh(O)      0.781449    -0.807907    -3.361660
Gh(H)      1.592848    -1.345644    -3.304069
Gh(H)      0.648406    -0.568569    -2.400584
Gh(O)      2.510193    -1.908503     0.397343
Gh(H)      1.800244    -1.321266     0.041421
Gh(H)      2.224768    -2.811754     0.197244
Gh(O)      1.731416    -0.150931     2.710083
Gh(H)      2.460238     0.314986     2.378625
Gh(H)      1.139946    -0.218518     1.919575
Gh(O)      2.207844     2.294641     0.275850
Gh(H)      1.617671     1.545812     0.305669
Gh(H)      2.353701     2.388285    -0.692227

units ang
no_reorient
no_com
symmetry c1
}

set {
basis        aug-cc-pVTZ
scf_type     df
}

energy("mp2")
--------------------------------------------------------------------------

    Molecular point group: c1

    Geometry (in Angstrom), charge = -1, multiplicity = 1:

       Center              X                  Y                   Z               Mass
    ------------   -----------------  -----------------  -----------------  -----------------
         BR           0.000000000000     0.000000000000     0.000000000000    78.918337600000
      Gh(O)           0.781449000000    -0.807907000000    -3.361660000000    15.994914619570
      Gh(H)           1.592848000000    -1.345644000000    -3.304069000000     1.007825032230
      Gh(H)           0.648406000000    -0.568569000000    -2.400584000000     1.007825032230
      Gh(O)           2.510193000000    -1.908503000000     0.397343000000    15.994914619570
      Gh(H)           1.800244000000    -1.321266000000     0.041421000000     1.007825032230
      Gh(H)           2.224768000000    -2.811754000000     0.197244000000     1.007825032230
      Gh(O)           1.731416000000    -0.150931000000     2.710083000000    15.994914619570
      Gh(H)           2.460238000000     0.314986000000     2.378625000000     1.007825032230
      Gh(H)           1.139946000000    -0.218518000000     1.919575000000     1.007825032230
      Gh(O)           2.207844000000     2.294641000000     0.275850000000    15.994914619570
      Gh(H)           1.617671000000     1.545812000000     0.305669000000     1.007825032230
      Gh(H)           2.353701000000     2.388285000000    -0.692227000000     1.007825032230

  Charge       = -1
  Multiplicity = 1
  Basis Set: AUG-CC-PVTZ
    Blend: AUG-CC-PVTZ
  Basis Set: (AUG-CC-PVTZ AUX)
    Blend: AUG-CC-PVTZ-JKFIT

    Orbital Energies [Eh]
    ---------------------

    Doubly Occupied:

       1A   -489.722241     2A    -64.861810     3A    -58.216347
       4A    -58.216346     5A    -58.216345     6A     -9.533297
       7A     -7.140629     8A     -7.140625     9A     -7.140612
      10A     -2.882343    11A     -2.882340    12A     -2.882327
      13A     -2.882311    14A     -2.882303    15A     -0.685994
      16A     -0.139338    17A     -0.139336    18A     -0.139334

  @DF-RHF Final Energy: -2572.53372761928586

   => Energetics <=

    Nuclear Repulsion Energy =              0.0000000000000000
    One-Electron Energy =               -3593.6597038415734460
    Two-Electron Energy =                1021.1259762222877043
    Total Energy =                      -2572.5337276192858553
 Dipole X            :          0.0002487            0.0000000            0.0002487
 Dipole Y            :         -0.0000073            0.0000000           -0.0000073
 Dipole Z            :         -0.0000101            0.0000000           -0.0000101
 Magnitude           :                                                    0.0002491
  Basis Set: (AUG-CC-PVTZ AUX)
    Blend: AUG-CC-PVTZ-RI
	 Reference Energy          =   -2572.5337276192858553 [Eh]
	 Singles Energy            =      -0.0000000000000000 [Eh]
	 Same-Spin Energy          =      -0.0913745017797369 [Eh]
	 Opposite-Spin Energy      =      -0.2129151865698717 [Eh]
	 Correlation Energy        =      -0.3042896883496086 [Eh]
	 Total Energy              =   -2572.8380173076352548 [Eh]

	 ================> DF-SCS-MP2 Energies <==================
	-----------------------------------------------------------
	 SCS Same-Spin Scale       =       0.3333333333333333 [-]
	 SCS Opposite-Spin Scale   =       1.2000000000000000 [-]
	 SCS Same-Spin Energy      =      -0.0304581672599123 [Eh]
	 SCS Opposite-Spin Energy  =      -0.2554982238838460 [Eh]
	 SCS Correlation Energy    =      -0.2859563911437583 [Eh]
	 SCS Total Energy          =   -2572.8196840104296825 [Eh]
	-----------------------------------------------------------

*** Psi4 exiting successfully. Buy a developer a beer!
