                               Psi4 1.9 release

  ==> Input File <==

--------------------------------------------------------------------------
MEMORY 60 GB

molecule dimer {
-1 1
Br     0.000000     0.000000     0.000000
--
0 1
O     -2.548049    -2.354520     0.519339
H     -2.666770    -2.821685    -0.323927
H     -1.695142    -1.848878     0.456973
O     -1.457981     0.902302     2.719317
H     -1.294948     0.555730     1.798206
H     -0.692664     1.324571     3.139780
O     -3.298663     0.026340    -1.099442
H     -2.351904     0.032069    -0.730133
H     -3.819150     0.744102    -0.672524
O      3.011971     1.575496    -0.920955
H      2.415873     2.197453    -0.478182
H      3.797578     1.977003    -0.551870
O      0.351201    -2.642806    -2.030331
H      0.280321    -2.081072    -1.262730
H      0.561185    -3.499150    -1.619153

units ang
no_reorient
no_com
symmetry c1
}

set {
basis        aug-cc-pVTZ
scf_type     df
}

energy("mp2", bsse_type="cp")
--------------------------------------------------------------------------

                               Psi4 1.9 release
    Molecular point group: c1
  Charge       = 0
  Multiplicity = 1
  Basis Set: AUG-CC-PVTZ
    Blend: AUG-CC-PVTZ
  Basis Set: (AUG-CC-PVTZ AUX)
    Blend: AUG-CC-PVTZ-JKFIT
  @DF-RHF Final Energy:  -380.27018717135405
    Total Energy =                       -380.2701871713540527
 Dipole X            :         71.4061763          -69.9156885            1.4904879
 Dipole Y            :         45.1267023          -44.1541331            0.9725692
 Dipole Z            :         13.5970002          -12.7370111            0.8599891
 Magnitude           :                                                    1.9766199
  Basis Set: (AUG-CC-PVTZ AUX)
    Blend: AUG-CC-PVTZ-RI
	 Reference Energy          =    -380.2701871713540527 [Eh]
	 Singles Energy            =      -0.0000000000000000 [Eh]
	 Same-Spin Energy          =      -0.3454400471897408 [Eh]
	 Opposite-Spin Energy      =      -1.0862264241450879 [Eh]
	 Correlation Energy        =      -1.4316664713348286 [Eh]
	 Total Energy              =    -381.7018536426888886 [Eh]
	 SCS Total Energy          =    -381.6888055627247240 [Eh]
                               Psi4 1.9 release
    Molecular point group: c1
  Multiplicity = 1
  Basis Set: AUG-CC-PVTZ
    Blend: AUG-CC-PVTZ
  Basis Set: (AUG-CC-PVTZ AUX)
    Blend: AUG-CC-PVTZ-JKFIT
  @DF-RHF Final Energy: -2572.53372500454270
    Total Energy =                      -2572.5337250045427027
  Basis Set: (AUG-CC-PVTZ AUX)
	 Singles Energy            =      -0.0000000000000000 [Eh]
	 Same-Spin Energy          =      -0.0909350427842284 [Eh]
	 Opposite-Spin Energy      =      -0.2116750225335539 [Eh]
	 Correlation Energy        =      -0.3026100653177823 [Eh]
	 Total Energy              =   -2572.8363350698605245 [Eh]
	 SCS Total Energy          =   -2572.8180467125112045 [Eh]
                               Psi4 1.9 release
    Molecular point group: c1

    Geometry (in Bohr), charge = -1, multiplicity = 1:

       Center              X                  Y                   Z               Mass
    ------------   -----------------  -----------------  -----------------  -----------------
         BR           0.000000000000     0.000000000000     0.000000000000    78.918337600000
         O           -4.815114764247    -4.449397956913     0.981408476269    15.994914619570
         H           -5.039464939587    -5.332211862312    -0.612133314641     1.007825032230
         H           -3.203354123761    -3.493873059384     0.863553816729     1.007825032230
         O           -2.755184786121     1.705103662453     5.138764378302    15.994914619570
         H           -2.447097066709     1.050177499701     3.398116857155     1.007825032230
         H           -1.308945256964     2.503076423724     5.933324294190     1.007825032230
         O           -6.233569650181     0.049775386145    -2.077644270826    15.994914619570
         H           -4.444454433369     0.060601627117    -1.379751405159     1.007825032230
         H           -7.217147532042     1.406148989405    -1.270886172797     1.007825032230
         O            5.691800287821     2.977255951754    -1.740352723871    15.994914619570
         H            4.565338323888     4.152584343566    -0.903633018124     1.007825032230
         H            7.176382360064     3.735994219209    -1.042883156856     1.007825032230
         O            0.663673704987    -4.994179542717    -3.836769534027    15.994914619570
         H            0.529729917214    -3.932656127359    -2.386213870399     1.007825032230
         H            1.060485955715    -6.612435171896    -3.059755725213     1.007825032230

  Charge       = -1
  Multiplicity = 1
  Basis Set: AUG-CC-PVTZ
    Blend: AUG-CC-PVTZ
  Basis Set: (AUG-CC-PVTZ AUX)
    Blend: AUG-CC-PVTZ-JKFIT

    Orbital Energies [Eh]
    ---------------------

    Doubly Occupied:

       1A   -489.784155     2A    -64.924667     3A    -58.279167
       4A    -58.279151     5A    -58.279101     6A    -20.456110
       7A    -20.421580     8A    -20.408796     9A    -20.407870
      10A    -20.404344    11A     -9.597081    12A     -7.204701
      13A     -7.204624    14A     -7.204339    15A     -2.946409
      16A     -2.946390    17A     -2.946041    18A     -2.945940
      19A     -2.945846    20A     -1.242724    21A     -1.207398
      22A     -1.182694    23A     -1.176825    24A     -1.169510
      25A     -0.764558    26A     -0.574900    27A     -0.567249
      28A     -0.562490    29A     -0.553990    30A     -0.544630
      31A     -0.488107    32A     -0.447805    33A     -0.421237
      34A     -0.412169    35A     -0.409592    36A     -0.396124
      37A     -0.365958    38A     -0.363134    39A     -0.348299
      40A     -0.333011    41A     -0.213165    42A     -0.211493
      43A     -0.206934

  @DF-RHF Final Energy: -2952.84905728716558

   => Energetics <=

    Nuclear Repulsion Energy =            435.0824681886940652
    One-Electron Energy =               -4992.3624204428033408
    Two-Electron Energy =                1604.4308949669430149
    Total Energy =                      -2952.8490572871660333
 Dipole X            :         72.2035930          -69.9156885            2.2879045
 Dipole Y            :         45.4788738          -44.1541331            1.3247406
 Dipole Z            :         13.4186756          -12.7370111            0.6816645
 Magnitude           :                                                    2.7302218
  Basis Set: (AUG-CC-PVTZ AUX)
    Blend: AUG-CC-PVTZ-RI
	 Reference Energy          =   -2952.8490572871655786 [Eh]
	 Singles Energy            =      -0.0000000000000000 [Eh]
	 Same-Spin Energy          =      -0.4462594114280157 [Eh]
	 Opposite-Spin Energy      =      -1.3057783634208875 [Eh]
	 Correlation Energy        =      -1.7520377748489033 [Eh]
	 Total Energy              =   -2954.6010950620143376 [Eh]

	 ================> DF-SCS-MP2 Energies <==================
	-----------------------------------------------------------
	 SCS Same-Spin Scale       =       0.3333333333333333 [-]
	 SCS Opposite-Spin Scale   =       1.2000000000000000 [-]
	 SCS Same-Spin Energy      =      -0.1487531371426719 [Eh]
	 SCS Opposite-Spin Energy  =      -1.5669340361050650 [Eh]
	 SCS Correlation Energy    =      -1.7156871732477370 [Eh]
	 SCS Total Energy          =   -2954.5647444604132943 [Eh]
	-----------------------------------------------------------

*** Psi4 exiting successfully. Buy a developer a beer!
