                               Psi4 1.8.2 release

  ==> Input File <==

--------------------------------------------------------------------------
MEMORY 60 GB

molecule dimer {
0 1
Gh(Br)     0.000000     0.000000     0.000000
Gh(O)      0.936162     3.028793    -0.863611
Gh(H)      0.135253     3.528226    -1.165330
Gh(H)      0.572521     2.216892    -0.482163
O         -1.364496     1.694909     2.400741
H         -0.940522     1.130278     1.692609
H         -1.147774     2.625449     2.143951
Gh(O)     -2.003382    -2.394680     1.418725
Gh(H)     -1.477915    -3.075593     1.809731
Gh(H)     -1.317858    -1.699563     1.204630
Gh(O)      3.353864     0.790785     0.363253
Gh(H)      3.773818     0.759128    -0.518565
Gh(H)      2.429244     0.812169     0.202249

units ang
no_reorient
no_com
symmetry c1
}

set {
basis        aug-cc-pVTZ
scf_type     df
}

energy("mp2")
--------------------------------------------------------------------------

    Molecular point group: c1

    Geometry (in Angstrom), charge = 0, multiplicity = 1:

       Center              X                  Y                   Z               Mass
    ------------   -----------------  -----------------  -----------------  -----------------
      Gh(BR)          0.000000000000     0.000000000000     0.000000000000    78.918337600000
      Gh(O)           0.936162000000     3.028793000000    -0.863611000000    15.994914619570
      Gh(H)           0.135253000000     3.528226000000    -1.165330000000     1.007825032230
      Gh(H)           0.572521000000     2.216892000000    -0.482163000000     1.007825032230
         O           -1.364496000000     1.694909000000     2.400741000000    15.994914619570
         H           -0.940522000000     1.130278000000     1.692609000000     1.007825032230
         H           -1.147774000000     2.625449000000     2.143951000000     1.007825032230
      Gh(O)          -2.003382000000    -2.394680000000     1.418725000000    15.994914619570
      Gh(H)          -1.477915000000    -3.075593000000     1.809731000000     1.007825032230
      Gh(H)          -1.317858000000    -1.699563000000     1.204630000000     1.007825032230
      Gh(O)           3.353864000000     0.790785000000     0.363253000000    15.994914619570
      Gh(H)           3.773818000000     0.759128000000    -0.518565000000     1.007825032230
      Gh(H)           2.429244000000     0.812169000000     0.202249000000     1.007825032230

  Charge       = 0
  Multiplicity = 1
  Basis Set: AUG-CC-PVTZ
    Blend: AUG-CC-PVTZ
  Basis Set: (AUG-CC-PVTZ AUX)
    Blend: AUG-CC-PVTZ-JKFIT

    Orbital Energies [Eh]
    ---------------------

    Doubly Occupied:

       1A    -20.573512     2A     -1.334947     3A     -0.698180
       4A     -0.577275     5A     -0.507331

  @DF-RHF Final Energy:   -76.05562221124549

   => Energetics <=

    Nuclear Repulsion Energy =              8.8482562041054074
    One-Electron Energy =                -122.4252641350594359
    Two-Electron Energy =                  37.5213857197085403
    Total Energy =                        -76.0556222112454918
 Dipole X            :         24.9911910          -24.5744974            0.4166936
 Dipole Y            :        -32.4810052           32.7206060            0.2396008
 Dipole Z            :        -44.1714768           43.5439916           -0.6274852
 Magnitude           :                                                    0.7904301
  Basis Set: (AUG-CC-PVTZ AUX)
    Blend: AUG-CC-PVTZ-RI
	 Reference Energy          =     -76.0556222112454918 [Eh]
	 Singles Energy            =      -0.0000000000000000 [Eh]
	 Same-Spin Energy          =      -0.0690332121772257 [Eh]
	 Opposite-Spin Energy      =      -0.2178352966053889 [Eh]
	 Correlation Energy        =      -0.2868685087826146 [Eh]
	 Total Energy              =     -76.3424907200281098 [Eh]

	 ================> DF-SCS-MP2 Energies <==================
	-----------------------------------------------------------
	 SCS Same-Spin Scale       =       0.3333333333333333 [-]
	 SCS Opposite-Spin Scale   =       1.2000000000000000 [-]
	 SCS Same-Spin Energy      =      -0.0230110707257419 [Eh]
	 SCS Opposite-Spin Energy  =      -0.2614023559264667 [Eh]
	 SCS Correlation Energy    =      -0.2844134266522086 [Eh]
	 SCS Total Energy          =     -76.3400356378976994 [Eh]
	-----------------------------------------------------------

*** Psi4 exiting successfully. Buy a developer a beer!
