                               Psi4 1.8.2 release

  ==> Input File <==

--------------------------------------------------------------------------
MEMORY 60 GB

molecule dimer {
-1 1
Br         0.000000     0.000000     0.000000
O          2.939852    -1.915562    -0.533554
H          2.801389    -2.458442     0.258757
H          2.150074    -1.360069    -0.546123
O         -0.164365    -1.885111     2.805646
H         -1.005559    -2.298100     3.035198
H         -0.322087    -1.441707     1.915505
O         -2.601132    -1.503362     0.550397
H         -2.065997    -0.913649     0.005071
H         -2.354269    -2.450518     0.300106
O         -0.284074    -1.956940    -2.736350
H         -0.384603    -1.150899    -3.277467
H         -0.378144    -1.636309    -1.835516
O          2.821932     0.987818     1.931994
H          2.380055     0.594532     2.724836
H          2.119721     1.303065     1.324861
O         -1.781380     1.694666    -2.572642
H         -1.551471     1.421173    -1.702222
H         -1.550553     2.618521    -2.578283

units ang
no_reorient
no_com
symmetry c1
}

set {
basis        aug-cc-pVTZ
scf_type     df
}

energy("mp2")
--------------------------------------------------------------------------

    Molecular point group: c1

    Geometry (in Angstrom), charge = -1, multiplicity = 1:

       Center              X                  Y                   Z               Mass
    ------------   -----------------  -----------------  -----------------  -----------------
         BR           0.000000000000     0.000000000000     0.000000000000    78.918337600000
         O            2.939852000000    -1.915562000000    -0.533554000000    15.994914619570
         H            2.801389000000    -2.458442000000     0.258757000000     1.007825032230
         H            2.150074000000    -1.360069000000    -0.546123000000     1.007825032230
         O           -0.164365000000    -1.885111000000     2.805646000000    15.994914619570
         H           -1.005559000000    -2.298100000000     3.035198000000     1.007825032230
         H           -0.322087000000    -1.441707000000     1.915505000000     1.007825032230
         O           -2.601132000000    -1.503362000000     0.550397000000    15.994914619570
         H           -2.065997000000    -0.913649000000     0.005071000000     1.007825032230
         H           -2.354269000000    -2.450518000000     0.300106000000     1.007825032230
         O           -0.284074000000    -1.956940000000    -2.736350000000    15.994914619570
         H           -0.384603000000    -1.150899000000    -3.277467000000     1.007825032230
         H           -0.378144000000    -1.636309000000    -1.835516000000     1.007825032230
         O            2.821932000000     0.987818000000     1.931994000000    15.994914619570
         H            2.380055000000     0.594532000000     2.724836000000     1.007825032230
         H            2.119721000000     1.303065000000     1.324861000000     1.007825032230
         O           -1.781380000000     1.694666000000    -2.572642000000    15.994914619570
         H           -1.551471000000     1.421173000000    -1.702222000000     1.007825032230
         H           -1.550553000000     2.618521000000    -2.578283000000     1.007825032230

  Charge       = -1
  Multiplicity = 1
  Basis Set: AUG-CC-PVTZ
    Blend: AUG-CC-PVTZ
  Basis Set: (AUG-CC-PVTZ AUX)
    Blend: AUG-CC-PVTZ-JKFIT

    Orbital Energies [Eh]
    ---------------------

    Doubly Occupied:

       1A   -489.807617     2A    -64.948315     3A    -58.302810
       4A    -58.302792     5A    -58.302741     6A    -20.447893
       7A    -20.433690     8A    -20.431633     9A    -20.428523
      10A    -20.423633    11A    -20.417927    12A     -9.620826
      13A     -7.228481    14A     -7.228417    15A     -7.228120
      16A     -2.970162    17A     -2.970148    18A     -2.969753
      19A     -2.969727    20A     -2.969595    21A     -1.243802
      22A     -1.206244    23A     -1.204607    24A     -1.202710
      25A     -1.199778    26A     -1.199451    27A     -0.791095
      28A     -0.605316    29A     -0.576321    30A     -0.573920
      31A     -0.569505    32A     -0.565818    33A     -0.559290
      34A     -0.476233    35A     -0.448641    36A     -0.445801
      37A     -0.444215    38A     -0.441344    39A     -0.441102
      40A     -0.396350    41A     -0.374989    42A     -0.374150
      43A     -0.369490    44A     -0.368608    45A     -0.359296
      46A     -0.238015    47A     -0.236117    48A     -0.232173

  @DF-RHF Final Energy: -3028.93900949731096

   => Energetics <=

    Nuclear Repulsion Energy =            558.5921480861585451
    One-Electron Energy =               -5343.9679435371917862
    Two-Electron Energy =                1756.4367859537221648
    Total Energy =                      -3028.9390094973105079
 Dipole X            :        -14.9768682           13.7670706           -1.2097977
 Dipole Y            :         85.3164301          -83.9044636            1.4119665
 Dipole Z            :          9.5943777           -9.0921319            0.5022458
 Magnitude           :                                                    1.9260090
  Basis Set: (AUG-CC-PVTZ AUX)
    Blend: AUG-CC-PVTZ-RI
	 Reference Energy          =   -3028.9390094973109626 [Eh]
	 Singles Energy            =      -0.0000000000000000 [Eh]
	 Same-Spin Energy          =      -0.5166720474339100 [Eh]
	 Opposite-Spin Energy      =      -1.5235518521017848 [Eh]
	 Correlation Energy        =      -2.0402238995356949 [Eh]
	 Total Energy              =   -3030.9792333968466664 [Eh]

	 ================> DF-SCS-MP2 Energies <==================
	-----------------------------------------------------------
	 SCS Same-Spin Scale       =       0.3333333333333333 [-]
	 SCS Opposite-Spin Scale   =       1.2000000000000000 [-]
	 SCS Same-Spin Energy      =      -0.1722240158113033 [Eh]
	 SCS Opposite-Spin Energy  =      -1.8282622225221417 [Eh]
	 SCS Correlation Energy    =      -2.0004862383334450 [Eh]
	 SCS Total Energy          =   -3030.9394957356444138 [Eh]
	-----------------------------------------------------------

*** Psi4 exiting successfully. Buy a developer a beer!
