                               Psi4 1.8.2 release

  ==> Input File <==

--------------------------------------------------------------------------
MEMORY 60 GB

molecule dimer {
-1 1
Br         0.000000     0.000000     0.000000
O         -1.375620     3.047926    -1.337998
H         -0.877399     3.716957    -0.861773
H         -0.951090     2.166142    -1.171486
O          2.709632    -1.863457     0.517570
H          2.540301    -2.686032     0.113931
H          1.960279    -1.257251     0.338176
O         -1.907275    -2.478936    -1.045372
H         -1.364393    -1.760338    -0.788272
H         -2.530730    -2.108684    -1.652647

units ang
no_reorient
no_com
symmetry c1
}

set {
basis        aug-cc-pVTZ
scf_type     df
}

energy("mp2")
--------------------------------------------------------------------------

    Molecular point group: c1

    Geometry (in Angstrom), charge = -1, multiplicity = 1:

       Center              X                  Y                   Z               Mass
    ------------   -----------------  -----------------  -----------------  -----------------
         BR           0.000000000000     0.000000000000     0.000000000000    78.918337600000
         O           -1.375620000000     3.047926000000    -1.337998000000    15.994914619570
         H           -0.877399000000     3.716957000000    -0.861773000000     1.007825032230
         H           -0.951090000000     2.166142000000    -1.171486000000     1.007825032230
         O            2.709632000000    -1.863457000000     0.517570000000    15.994914619570
         H            2.540301000000    -2.686032000000     0.113931000000     1.007825032230
         H            1.960279000000    -1.257251000000     0.338176000000     1.007825032230
         O           -1.907275000000    -2.478936000000    -1.045372000000    15.994914619570
         H           -1.364393000000    -1.760338000000    -0.788272000000     1.007825032230
         H           -2.530730000000    -2.108684000000    -1.652647000000     1.007825032230

  Charge       = -1
  Multiplicity = 1
  Basis Set: AUG-CC-PVTZ
    Blend: AUG-CC-PVTZ
  Basis Set: (AUG-CC-PVTZ AUX)
    Blend: AUG-CC-PVTZ-JKFIT

    Orbital Energies [Eh]
    ---------------------

    Doubly Occupied:

       1A   -489.773258     2A    -64.913632     3A    -58.268133
       4A    -58.268113     5A    -58.268106     6A    -20.425215
       7A    -20.406364     8A    -20.401805     9A     -9.586003
      10A     -7.193620    11A     -7.193488    12A     -7.193295
      13A     -2.935284    14A     -2.935244    15A     -2.935048
      16A     -2.934882    17A     -2.934847    18A     -1.207191
      19A     -1.200512    20A     -1.192801    21A     -0.749765
      22A     -0.574634    23A     -0.573557    24A     -0.568560
      25A     -0.437728    26A     -0.436743    27A     -0.422400
      28A     -0.367641    29A     -0.358296    30A     -0.351137
      31A     -0.201754    32A     -0.199692    33A     -0.194465

  @DF-RHF Final Energy: -2800.75241130651784

   => Energetics <=

    Nuclear Repulsion Energy =            224.5640907794842462
    One-Electron Energy =               -4359.4265787021722645
    Two-Electron Energy =                1334.1100766161700903
    Total Energy =                      -2800.7524113065182974
 Dipole X            :         10.9283458          -10.9776761           -0.0493302
 Dipole Y            :         23.8537899          -23.2151758            0.6386141
 Dipole Z            :         35.8783176          -35.8074207            0.0708969
 Magnitude           :                                                    0.6444283
  Basis Set: (AUG-CC-PVTZ AUX)
    Blend: AUG-CC-PVTZ-RI
	 Reference Energy          =   -2800.7524113065178426 [Eh]
	 Singles Energy            =      -0.0000000000000000 [Eh]
	 Same-Spin Energy          =      -0.3011758573485660 [Eh]
	 Opposite-Spin Energy      =      -0.8603997857270969 [Eh]
	 Correlation Energy        =      -1.1615756430756630 [Eh]
	 Total Energy              =   -2801.9139869495934363 [Eh]

	 ================> DF-SCS-MP2 Energies <==================
	-----------------------------------------------------------
	 SCS Same-Spin Scale       =       0.3333333333333333 [-]
	 SCS Opposite-Spin Scale   =       1.2000000000000000 [-]
	 SCS Same-Spin Energy      =      -0.1003919524495220 [Eh]
	 SCS Opposite-Spin Energy  =      -1.0324797428725161 [Eh]
	 SCS Correlation Energy    =      -1.1328716953220381 [Eh]
	 SCS Total Energy          =   -2801.8852830018399800 [Eh]
	-----------------------------------------------------------

*** Psi4 exiting successfully. Buy a developer a beer!
