                               Psi4 1.8.2 release

  ==> Input File <==

--------------------------------------------------------------------------
MEMORY 60 GB

molecule dimer {
0 1
Gh(Br)     0.000000     0.000000     0.000000
Gh(O)      2.005998     2.469794    -1.548747
Gh(H)      2.809869     2.228331    -1.965091
Gh(H)      1.560168     1.628217    -1.200553
O          0.529123     3.007364     1.321262
H          1.470211     3.161375     1.107058
H          0.395327     2.119154     0.958626
Gh(O)     -1.660321     0.052137    -3.166204
Gh(H)     -2.229712     0.623741    -2.655572
Gh(H)     -1.973837     0.013299    -4.074220
Gh(O)      2.794752     0.356441     1.755247
Gh(H)      3.260746    -0.479172     1.544679
Gh(H)      1.859188     0.213200     1.467202

units ang
no_reorient
no_com
symmetry c1
}

set {
basis        aug-cc-pVTZ
scf_type     df
}

energy("mp2")
--------------------------------------------------------------------------

    Molecular point group: c1

    Geometry (in Angstrom), charge = 0, multiplicity = 1:

       Center              X                  Y                   Z               Mass
    ------------   -----------------  -----------------  -----------------  -----------------
      Gh(BR)          0.000000000000     0.000000000000     0.000000000000    78.918337600000
      Gh(O)           2.005998000000     2.469794000000    -1.548747000000    15.994914619570
      Gh(H)           2.809869000000     2.228331000000    -1.965091000000     1.007825032230
      Gh(H)           1.560168000000     1.628217000000    -1.200553000000     1.007825032230
         O            0.529123000000     3.007364000000     1.321262000000    15.994914619570
         H            1.470211000000     3.161375000000     1.107058000000     1.007825032230
         H            0.395327000000     2.119154000000     0.958626000000     1.007825032230
      Gh(O)          -1.660321000000     0.052137000000    -3.166204000000    15.994914619570
      Gh(H)          -2.229712000000     0.623741000000    -2.655572000000     1.007825032230
      Gh(H)          -1.973837000000     0.013299000000    -4.074220000000     1.007825032230
      Gh(O)           2.794752000000     0.356441000000     1.755247000000    15.994914619570
      Gh(H)           3.260746000000    -0.479172000000     1.544679000000     1.007825032230
      Gh(H)           1.859188000000     0.213200000000     1.467202000000     1.007825032230

  Charge       = 0
  Multiplicity = 1
  Basis Set: AUG-CC-PVTZ
    Blend: AUG-CC-PVTZ
  Basis Set: (AUG-CC-PVTZ AUX)
    Blend: AUG-CC-PVTZ-JKFIT

    Orbital Energies [Eh]
    ---------------------

    Doubly Occupied:

       1A    -20.571319     2A     -1.347845     3A     -0.702969
       4A     -0.588189     5A     -0.510020

  @DF-RHF Final Energy:   -76.05875195389241

   => Energetics <=

    Nuclear Repulsion Energy =              9.0535018370905345
    One-Electron Energy =                -122.7838210310981140
    Two-Electron Energy =                  37.6715672401151664
    Total Energy =                        -76.0587519538924113
 Dipole X            :        -10.9989023           11.5245364            0.5256340
 Dipole Y            :        -55.9240764           55.4435082           -0.4805682
 Dipole Z            :        -24.2548759           23.8781636           -0.3767123
 Magnitude           :                                                    0.8056979
  Basis Set: (AUG-CC-PVTZ AUX)
    Blend: AUG-CC-PVTZ-RI
	 Reference Energy          =     -76.0587519538924113 [Eh]
	 Singles Energy            =      -0.0000000000000000 [Eh]
	 Same-Spin Energy          =      -0.0687501460667612 [Eh]
	 Opposite-Spin Energy      =      -0.2169960977029146 [Eh]
	 Correlation Energy        =      -0.2857462437696758 [Eh]
	 Total Energy              =     -76.3444981976620909 [Eh]

	 ================> DF-SCS-MP2 Energies <==================
	-----------------------------------------------------------
	 SCS Same-Spin Scale       =       0.3333333333333333 [-]
	 SCS Opposite-Spin Scale   =       1.2000000000000000 [-]
	 SCS Same-Spin Energy      =      -0.0229167153555871 [Eh]
	 SCS Opposite-Spin Energy  =      -0.2603953172434976 [Eh]
	 SCS Correlation Energy    =      -0.2833120325990846 [Eh]
	 SCS Total Energy          =     -76.3420639864914961 [Eh]
	-----------------------------------------------------------

*** Psi4 exiting successfully. Buy a developer a beer!
