                               Psi4 1.8.2 release

  ==> Input File <==

--------------------------------------------------------------------------
MEMORY 60 GB

molecule dimer {
0 1
Gh(Br)     0.000000     0.000000     0.000000
Gh(O)     -2.018814     1.297243     2.271203
Gh(H)     -1.624924     1.929481     2.858206
Gh(H)     -1.319651     1.058009     1.655548
O          2.992256     0.142962     1.185442
H          2.076229    -0.027513     0.900949
H          3.011154     0.890364     1.822388
Gh(O)      1.638357    -0.919045    -3.055647
Gh(H)      2.042760    -0.288329    -3.647520
Gh(H)      1.415696    -0.537243    -2.199502

units ang
no_reorient
no_com
symmetry c1
}

set {
basis        aug-cc-pVTZ
scf_type     df
}

energy("mp2")
--------------------------------------------------------------------------

    Molecular point group: c1

    Geometry (in Angstrom), charge = 0, multiplicity = 1:

       Center              X                  Y                   Z               Mass
    ------------   -----------------  -----------------  -----------------  -----------------
      Gh(BR)          0.000000000000     0.000000000000     0.000000000000    78.918337600000
      Gh(O)          -2.018814000000     1.297243000000     2.271203000000    15.994914619570
      Gh(H)          -1.624924000000     1.929481000000     2.858206000000     1.007825032230
      Gh(H)          -1.319651000000     1.058009000000     1.655548000000     1.007825032230
         O            2.992256000000     0.142962000000     1.185442000000    15.994914619570
         H            2.076229000000    -0.027513000000     0.900949000000     1.007825032230
         H            3.011154000000     0.890364000000     1.822388000000     1.007825032230
      Gh(O)           1.638357000000    -0.919045000000    -3.055647000000    15.994914619570
      Gh(H)           2.042760000000    -0.288329000000    -3.647520000000     1.007825032230
      Gh(H)           1.415696000000    -0.537243000000    -2.199502000000     1.007825032230

  Charge       = 0
  Multiplicity = 1
  Basis Set: AUG-CC-PVTZ
    Blend: AUG-CC-PVTZ
  Basis Set: (AUG-CC-PVTZ AUX)
    Blend: AUG-CC-PVTZ-JKFIT

    Orbital Energies [Eh]
    ---------------------

    Doubly Occupied:

       1A    -20.568254     2A     -1.339362     3A     -0.716133
       4A     -0.570498     5A     -0.506964

  @DF-RHF Final Energy:   -76.05782521055073

   => Energetics <=

    Nuclear Repulsion Energy =              8.9860676254510263
    One-Electron Energy =                -122.6853610692580787
    Two-Electron Energy =                  37.6414682332563117
    Total Energy =                        -76.0578252105507318
 Dipole X            :        -55.4501505           54.8501153           -0.6000352
 Dipole Y            :         -3.4073973            3.7918243            0.3844270
 Dipole Z            :        -22.8328735           23.0676468            0.2347733
 Magnitude           :                                                    0.7502965
  Basis Set: (AUG-CC-PVTZ AUX)
    Blend: AUG-CC-PVTZ-RI
	 Reference Energy          =     -76.0578252105507318 [Eh]
	 Singles Energy            =      -0.0000000000000000 [Eh]
	 Same-Spin Energy          =      -0.0686680439915646 [Eh]
	 Opposite-Spin Energy      =      -0.2166036991516007 [Eh]
	 Correlation Energy        =      -0.2852717431431654 [Eh]
	 Total Energy              =     -76.3430969536939017 [Eh]

	 ================> DF-SCS-MP2 Energies <==================
	-----------------------------------------------------------
	 SCS Same-Spin Scale       =       0.3333333333333333 [-]
	 SCS Opposite-Spin Scale   =       1.2000000000000000 [-]
	 SCS Same-Spin Energy      =      -0.0228893479971882 [Eh]
	 SCS Opposite-Spin Energy  =      -0.2599244389819209 [Eh]
	 SCS Correlation Energy    =      -0.2828137869791091 [Eh]
	 SCS Total Energy          =     -76.3406389975298367 [Eh]
	-----------------------------------------------------------

*** Psi4 exiting successfully. Buy a developer a beer!
