                               Psi4 1.8.2 release

  ==> Input File <==

--------------------------------------------------------------------------
MEMORY 60 GB

molecule dimer {
-1 1
Br         0.000000     0.000000     0.000000
O         -2.333005    -2.573527    -0.291127
H         -3.133171    -2.528310     0.371069
H         -1.787717    -1.837861    -0.137174
O          1.371021     2.985621    -0.728227
H          1.616172     3.427381     0.066995
H          1.180208     2.097681    -0.432288
O         -2.377910     2.369996     0.456820
H         -1.695206     2.554222     1.124779
H         -1.990682     1.663103    -0.153605
O         -2.461469    -0.687997     2.047974
H         -1.760234    -0.273058     1.493838
H         -3.296296    -0.283233     1.747665
O         -0.226095     0.748349    -3.395531
H          0.694620     0.580593    -3.071989
H         -0.938329     0.679073    -2.701236

units ang
no_reorient
no_com
symmetry c1
}

set {
basis        aug-cc-pVTZ
scf_type     df
}

energy("mp2")
--------------------------------------------------------------------------

    Molecular point group: c1

    Geometry (in Angstrom), charge = -1, multiplicity = 1:

       Center              X                  Y                   Z               Mass
    ------------   -----------------  -----------------  -----------------  -----------------
         BR           0.000000000000     0.000000000000     0.000000000000    78.918337600000
         O           -2.333005000000    -2.573527000000    -0.291127000000    15.994914619570
         H           -3.133171000000    -2.528310000000     0.371069000000     1.007825032230
         H           -1.787717000000    -1.837861000000    -0.137174000000     1.007825032230
         O            1.371021000000     2.985621000000    -0.728227000000    15.994914619570
         H            1.616172000000     3.427381000000     0.066995000000     1.007825032230
         H            1.180208000000     2.097681000000    -0.432288000000     1.007825032230
         O           -2.377910000000     2.369996000000     0.456820000000    15.994914619570
         H           -1.695206000000     2.554222000000     1.124779000000     1.007825032230
         H           -1.990682000000     1.663103000000    -0.153605000000     1.007825032230
         O           -2.461469000000    -0.687997000000     2.047974000000    15.994914619570
         H           -1.760234000000    -0.273058000000     1.493838000000     1.007825032230
         H           -3.296296000000    -0.283233000000     1.747665000000     1.007825032230
         O           -0.226095000000     0.748349000000    -3.395531000000    15.994914619570
         H            0.694620000000     0.580593000000    -3.071989000000     1.007825032230
         H           -0.938329000000     0.679073000000    -2.701236000000     1.007825032230

  Charge       = -1
  Multiplicity = 1
  Basis Set: AUG-CC-PVTZ
    Blend: AUG-CC-PVTZ
  Basis Set: (AUG-CC-PVTZ AUX)
    Blend: AUG-CC-PVTZ-JKFIT

    Orbital Energies [Eh]
    ---------------------

    Doubly Occupied:

       1A   -489.797412     2A    -64.937957     3A    -58.292471
       4A    -58.292420     5A    -58.292406     6A    -20.433945
       7A    -20.426854     8A    -20.425597     9A    -20.424388
      10A    -20.418375    11A     -9.610403    12A     -7.218141
      13A     -7.217783    14A     -7.217761    15A     -2.959756
      16A     -2.959622    17A     -2.959591    18A     -2.959170
      19A     -2.959163    20A     -1.222928    21A     -1.204701
      22A     -1.200787    23A     -1.190420    24A     -1.186857
      25A     -0.777809    26A     -0.584822    27A     -0.575286
      28A     -0.571615    29A     -0.569035    30A     -0.560866
      31A     -0.456337    32A     -0.449090    33A     -0.443037
      34A     -0.433568    35A     -0.421048    36A     -0.377525
      37A     -0.372677    38A     -0.364888    39A     -0.362927
      40A     -0.358282    41A     -0.229029    42A     -0.222683
      43A     -0.221833

  @DF-RHF Final Energy: -2952.86214069846392

   => Energetics <=

    Nuclear Repulsion Energy =            445.8262496079252060
    One-Electron Energy =               -5013.0542500964338615
    Two-Electron Energy =                1614.3658597900446239
    Total Energy =                      -2952.8621406984639179
 Dipole X            :        113.3784618         -112.1180161            1.2604458
 Dipole Y            :        -54.4706491           54.4602572           -0.0103919
 Dipole Z            :         33.5002258          -32.0737055            1.4265203
 Magnitude           :                                                    1.9036259
  Basis Set: (AUG-CC-PVTZ AUX)
    Blend: AUG-CC-PVTZ-RI
	 Reference Energy          =   -2952.8621406984639179 [Eh]
	 Singles Energy            =      -0.0000000000000000 [Eh]
	 Same-Spin Energy          =      -0.4460229882258506 [Eh]
	 Opposite-Spin Energy      =      -1.3051609695515347 [Eh]
	 Correlation Energy        =      -1.7511839577773853 [Eh]
	 Total Energy              =   -2954.6133246562412751 [Eh]

	 ================> DF-SCS-MP2 Energies <==================
	-----------------------------------------------------------
	 SCS Same-Spin Scale       =       0.3333333333333333 [-]
	 SCS Opposite-Spin Scale   =       1.2000000000000000 [-]
	 SCS Same-Spin Energy      =      -0.1486743294086169 [Eh]
	 SCS Opposite-Spin Energy  =      -1.5661931634618416 [Eh]
	 SCS Correlation Energy    =      -1.7148674928704584 [Eh]
	 SCS Total Energy          =   -2954.5770081913342437 [Eh]
	-----------------------------------------------------------

*** Psi4 exiting successfully. Buy a developer a beer!
