                               Psi4 1.9 release

  ==> Input File <==

--------------------------------------------------------------------------
MEMORY 60 GB

molecule dimer {
-1 1
Br     0.000000     0.000000     0.000000
--
0 1
O     -0.046525    -2.172810     2.388371
H      0.192961    -2.058591     3.276470
H      0.227483    -1.447125     1.853069
O     -3.001582    -1.688367    -0.659378
H     -3.051597    -2.464025    -0.091192
H     -2.107316    -1.279153    -0.589440
O      1.202238     1.886794     2.696986
H      0.703236     1.368206     2.070104
H      0.555514     2.123391     3.374762
O      0.642071     3.088985    -0.348066
H      0.818347     3.560490     0.475379
H      0.241245     2.278483    -0.088040
O     -1.743083     0.570150     2.511522
H     -1.402890     0.297354     1.627315
H     -2.233465    -0.240456     2.843953

units ang
no_reorient
no_com
symmetry c1
}

set {
basis        aug-cc-pVTZ
scf_type     df
}

energy("mp2", bsse_type="cp")
--------------------------------------------------------------------------

                               Psi4 1.9 release
    Molecular point group: c1
  Charge       = 0
  Multiplicity = 1
  Basis Set: AUG-CC-PVTZ
    Blend: AUG-CC-PVTZ
  Basis Set: (AUG-CC-PVTZ AUX)
    Blend: AUG-CC-PVTZ-JKFIT
  @DF-RHF Final Energy:  -380.29147121462802
    Total Energy =                       -380.2914712146280181
 Dipole X            :         55.8323564          -55.9954764           -0.1631200
 Dipole Y            :        -30.3504089           29.5110781           -0.8393308
 Dipole Z            :       -126.2810428          127.4957777            1.2147348
 Magnitude           :                                                    1.4854848
  Basis Set: (AUG-CC-PVTZ AUX)
    Blend: AUG-CC-PVTZ-RI
	 Reference Energy          =    -380.2914712146280181 [Eh]
	 Singles Energy            =      -0.0000000000000000 [Eh]
	 Same-Spin Energy          =      -0.3445406425539748 [Eh]
	 Opposite-Spin Energy      =      -1.0826617138305565 [Eh]
	 Correlation Energy        =      -1.4272023563845313 [Eh]
	 Total Energy              =    -381.7186735710125731 [Eh]
	 SCS Total Energy          =    -381.7055121520759826 [Eh]
                               Psi4 1.9 release
    Molecular point group: c1
  Multiplicity = 1
  Basis Set: AUG-CC-PVTZ
    Blend: AUG-CC-PVTZ
  Basis Set: (AUG-CC-PVTZ AUX)
    Blend: AUG-CC-PVTZ-JKFIT
  @DF-RHF Final Energy: -2572.53373649490595
    Total Energy =                      -2572.5337364949059520
  Basis Set: (AUG-CC-PVTZ AUX)
	 Singles Energy            =      -0.0000000000000000 [Eh]
	 Same-Spin Energy          =      -0.0920093248882482 [Eh]
	 Opposite-Spin Energy      =      -0.2143948635132645 [Eh]
	 Correlation Energy        =      -0.3064041884015127 [Eh]
	 Total Energy              =   -2572.8401406833072542 [Eh]
	 SCS Total Energy          =   -2572.8216801060848411 [Eh]
                               Psi4 1.9 release
    Molecular point group: c1

    Geometry (in Bohr), charge = -1, multiplicity = 1:

       Center              X                  Y                   Z               Mass
    ------------   -----------------  -----------------  -----------------  -----------------
         BR           0.000000000000     0.000000000000     0.000000000000    78.918337600000
         O           -0.087919507987    -4.106015822656     4.513367075986    15.994914619570
         H            0.364643442894    -3.890173194332     6.191630958279     1.007825032230
         H            0.429880568198    -2.734669919303     3.501792901576     1.007825032230
         O           -5.672167923104    -3.190551229261    -1.246043833152    15.994914619570
         H           -5.766682575269    -4.656332416281    -0.172327904833     1.007825032230
         H           -3.982250099795    -2.417248842558    -1.113880167390     1.007825032230
         O            2.271900557618     3.565523915157     5.096564904194    15.994914619570
         H            1.328923441562     2.585534623208     3.911929611215     1.007825032230
         H            1.049769318858     4.012627447262     6.377375918602     1.007825032230
         O            1.213338343099     5.837335655647    -0.657749413584    15.994914619570
         H            1.546451705590     6.728350972431     0.898336115794     1.007825032230
         H            0.455886979136     4.305708851512    -0.166371488085     1.007825032230
         O           -3.293949483941     1.077427350430     4.746088738062    15.994914619570
         H           -2.651077884144     0.561917622309     3.075179669849     1.007825032230
         H           -4.220637160796    -0.454395985223     5.374292283674     1.007825032230

  Charge       = -1
  Multiplicity = 1
  Basis Set: AUG-CC-PVTZ
    Blend: AUG-CC-PVTZ
  Basis Set: (AUG-CC-PVTZ AUX)
    Blend: AUG-CC-PVTZ-JKFIT

    Orbital Energies [Eh]
    ---------------------

    Doubly Occupied:

       1A   -489.796107     2A    -64.936914     3A    -58.291388
       4A    -58.291378     5A    -58.291340     6A    -20.426758
       7A    -20.425552     8A    -20.419746     9A    -20.419667
      10A    -20.402088    11A     -9.609538    12A     -7.217179
      13A     -7.217023    14A     -7.216982    15A     -2.958734
      16A     -2.958714    17A     -2.958621    18A     -2.958441
      19A     -2.958425    20A     -1.224043    21A     -1.214217
      22A     -1.202170    23A     -1.195619    24A     -1.189012
      25A     -0.783289    26A     -0.609161    27A     -0.580366
      28A     -0.577832    29A     -0.563992    30A     -0.553754
      31A     -0.454247    32A     -0.442356    33A     -0.437430
      34A     -0.434193    35A     -0.430431    36A     -0.378607
      37A     -0.372510    38A     -0.368947    39A     -0.356685
      40A     -0.351359    41A     -0.227225    42A     -0.225507
      43A     -0.223614

  @DF-RHF Final Energy: -2952.87554620231231

   => Energetics <=

    Nuclear Repulsion Energy =            460.6732397886406716
    One-Electron Energy =               -5042.7952393141213179
    Two-Electron Energy =                1629.2464533231682253
    Total Energy =                      -2952.8755462023123073
 Dipole X            :         56.3294701          -55.9954764            0.3339937
 Dipole Y            :        -30.4760275           29.5110781           -0.9649494
 Dipole Z            :       -127.2117099          127.4957777            0.2840677
 Magnitude           :                                                    1.0598932
  Basis Set: (AUG-CC-PVTZ AUX)
    Blend: AUG-CC-PVTZ-RI
	 Reference Energy          =   -2952.8755462023123073 [Eh]
	 Singles Energy            =      -0.0000000000000000 [Eh]
	 Same-Spin Energy          =      -0.4483941987898877 [Eh]
	 Opposite-Spin Energy      =      -1.3066319986384096 [Eh]
	 Correlation Energy        =      -1.7550261974282972 [Eh]
	 Total Energy              =   -2954.6305723997406858 [Eh]

	 ================> DF-SCS-MP2 Energies <==================
	-----------------------------------------------------------
	 SCS Same-Spin Scale       =       0.3333333333333333 [-]
	 SCS Opposite-Spin Scale   =       1.2000000000000000 [-]
	 SCS Same-Spin Energy      =      -0.1494647329299626 [Eh]
	 SCS Opposite-Spin Energy  =      -1.5679583983660914 [Eh]
	 SCS Correlation Energy    =      -1.7174231312960540 [Eh]
	 SCS Total Energy          =   -2954.5929693336083801 [Eh]
	-----------------------------------------------------------

*** Psi4 exiting successfully. Buy a developer a beer!
