                               Psi4 1.8.2 release

  ==> Input File <==

--------------------------------------------------------------------------
MEMORY 60 GB

molecule dimer {
0 1
Gh(Br)     0.000000     0.000000     0.000000
Gh(O)      2.964962     1.491294    -0.232552
Gh(H)      3.167346     2.329112     0.134912
Gh(H)      2.039397     1.199057     0.005168
Gh(O)      2.467355    -1.133067     2.039740
Gh(H)      1.833343    -1.067852     1.347526
Gh(H)      2.278611    -1.962652     2.509428
Gh(O)      1.685230    -2.489969    -1.505692
Gh(H)      1.129809    -1.865417    -1.040823
Gh(H)      2.217802    -1.919562    -2.100617
O         -1.693532    -0.769404     2.754182
H         -2.198821    -0.054616     3.172365
H         -1.091690    -0.339489     2.159721

units ang
no_reorient
no_com
symmetry c1
}

set {
basis        aug-cc-pVTZ
scf_type     df
}

energy("mp2")
--------------------------------------------------------------------------

    Molecular point group: c1

    Geometry (in Angstrom), charge = 0, multiplicity = 1:

       Center              X                  Y                   Z               Mass
    ------------   -----------------  -----------------  -----------------  -----------------
      Gh(BR)          0.000000000000     0.000000000000     0.000000000000    78.918337600000
      Gh(O)           2.964962000000     1.491294000000    -0.232552000000    15.994914619570
      Gh(H)           3.167346000000     2.329112000000     0.134912000000     1.007825032230
      Gh(H)           2.039397000000     1.199057000000     0.005168000000     1.007825032230
      Gh(O)           2.467355000000    -1.133067000000     2.039740000000    15.994914619570
      Gh(H)           1.833343000000    -1.067852000000     1.347526000000     1.007825032230
      Gh(H)           2.278611000000    -1.962652000000     2.509428000000     1.007825032230
      Gh(O)           1.685230000000    -2.489969000000    -1.505692000000    15.994914619570
      Gh(H)           1.129809000000    -1.865417000000    -1.040823000000     1.007825032230
      Gh(H)           2.217802000000    -1.919562000000    -2.100617000000     1.007825032230
         O           -1.693532000000    -0.769404000000     2.754182000000    15.994914619570
         H           -2.198821000000    -0.054616000000     3.172365000000     1.007825032230
         H           -1.091690000000    -0.339489000000     2.159721000000     1.007825032230

  Charge       = 0
  Multiplicity = 1
  Basis Set: AUG-CC-PVTZ
    Blend: AUG-CC-PVTZ
  Basis Set: (AUG-CC-PVTZ AUX)
    Blend: AUG-CC-PVTZ-JKFIT

    Orbital Energies [Eh]
    ---------------------

    Doubly Occupied:

       1A    -20.567122     2A     -1.351831     3A     -0.718428
       4A     -0.582580     5A     -0.509898

  @DF-RHF Final Energy:   -76.06030255248223

   => Energetics <=

    Nuclear Repulsion Energy =              9.1717109815980020
    One-Electron Energy =                -123.0043064592098716
    Two-Electron Energy =                  37.7722929251296549
    Total Energy =                        -76.0603025524822272
 Dipole X            :         31.8879745          -31.8206579            0.0673165
 Dipole Y            :         13.1390104          -12.3764532            0.7625571
 Dipole Z            :        -51.8332351           51.7133797           -0.1198555
 Magnitude           :                                                    0.7748485
  Basis Set: (AUG-CC-PVTZ AUX)
    Blend: AUG-CC-PVTZ-RI
	 Reference Energy          =     -76.0603025524822272 [Eh]
	 Singles Energy            =      -0.0000000000000000 [Eh]
	 Same-Spin Energy          =      -0.0683965318849994 [Eh]
	 Opposite-Spin Energy      =      -0.2156768426816783 [Eh]
	 Correlation Energy        =      -0.2840733745666776 [Eh]
	 Total Energy              =     -76.3443759270489011 [Eh]

	 ================> DF-SCS-MP2 Energies <==================
	-----------------------------------------------------------
	 SCS Same-Spin Scale       =       0.3333333333333333 [-]
	 SCS Opposite-Spin Scale   =       1.2000000000000000 [-]
	 SCS Same-Spin Energy      =      -0.0227988439616665 [Eh]
	 SCS Opposite-Spin Energy  =      -0.2588122112180139 [Eh]
	 SCS Correlation Energy    =      -0.2816110551796803 [Eh]
	 SCS Total Energy          =     -76.3419136076619083 [Eh]
	-----------------------------------------------------------

*** Psi4 exiting successfully. Buy a developer a beer!
