                               Psi4 1.8.2 release

  ==> Input File <==

--------------------------------------------------------------------------
MEMORY 60 GB

molecule dimer {
-1 1
Br         0.000000     0.000000     0.000000
Gh(O)     -0.999022    -2.679634    -1.724013
Gh(H)     -0.678718    -2.037465    -1.171070
Gh(H)     -1.864558    -2.807700    -1.354503
Gh(O)      2.580843    -1.796834    -1.300260
Gh(H)      2.444330    -2.737774    -1.082597
Gh(H)      1.984606    -1.292710    -0.800320
Gh(O)      0.716653    -2.040909     2.401316
Gh(H)      0.606530    -1.564525     1.571865
Gh(H)      0.320539    -1.488156     3.042768

units ang
no_reorient
no_com
symmetry c1
}

set {
basis        aug-cc-pVTZ
scf_type     df
}

energy("mp2")
--------------------------------------------------------------------------

    Molecular point group: c1

    Geometry (in Angstrom), charge = -1, multiplicity = 1:

       Center              X                  Y                   Z               Mass
    ------------   -----------------  -----------------  -----------------  -----------------
         BR           0.000000000000     0.000000000000     0.000000000000    78.918337600000
      Gh(O)          -0.999022000000    -2.679634000000    -1.724013000000    15.994914619570
      Gh(H)          -0.678718000000    -2.037465000000    -1.171070000000     1.007825032230
      Gh(H)          -1.864558000000    -2.807700000000    -1.354503000000     1.007825032230
      Gh(O)           2.580843000000    -1.796834000000    -1.300260000000    15.994914619570
      Gh(H)           2.444330000000    -2.737774000000    -1.082597000000     1.007825032230
      Gh(H)           1.984606000000    -1.292710000000    -0.800320000000     1.007825032230
      Gh(O)           0.716653000000    -2.040909000000     2.401316000000    15.994914619570
      Gh(H)           0.606530000000    -1.564525000000     1.571865000000     1.007825032230
      Gh(H)           0.320539000000    -1.488156000000     3.042768000000     1.007825032230

  Charge       = -1
  Multiplicity = 1
  Basis Set: AUG-CC-PVTZ
    Blend: AUG-CC-PVTZ
  Basis Set: (AUG-CC-PVTZ AUX)
    Blend: AUG-CC-PVTZ-JKFIT

    Orbital Energies [Eh]
    ---------------------

    Doubly Occupied:

       1A   -489.721678     2A    -64.861393     3A    -58.215912
       4A    -58.215911     5A    -58.215911     6A     -9.533154
       7A     -7.140494     8A     -7.140487     9A     -7.140482
      10A     -2.882196    11A     -2.882195    12A     -2.882187
      13A     -2.882167    14A     -2.882162    15A     -0.685996
      16A     -0.139339    17A     -0.139338    18A     -0.139335

  @DF-RHF Final Energy: -2572.53370969606158

   => Energetics <=

    Nuclear Repulsion Energy =              0.0000000000000000
    One-Electron Energy =               -3593.6667466297521969
    Two-Electron Energy =                1021.1330369336908461
    Total Energy =                      -2572.5337096960611234
 Dipole X            :          0.0002503            0.0000000            0.0002503
 Dipole Y            :         -0.0001910            0.0000000           -0.0001910
 Dipole Z            :         -0.0001709            0.0000000           -0.0001709
 Magnitude           :                                                    0.0003583
  Basis Set: (AUG-CC-PVTZ AUX)
    Blend: AUG-CC-PVTZ-RI
	 Reference Energy          =   -2572.5337096960615781 [Eh]
	 Singles Energy            =      -0.0000000000000000 [Eh]
	 Same-Spin Energy          =      -0.0899011368816613 [Eh]
	 Opposite-Spin Energy      =      -0.2091504726685182 [Eh]
	 Correlation Energy        =      -0.2990516095501795 [Eh]
	 Total Energy              =   -2572.8327613056117116 [Eh]

	 ================> DF-SCS-MP2 Energies <==================
	-----------------------------------------------------------
	 SCS Same-Spin Scale       =       0.3333333333333333 [-]
	 SCS Opposite-Spin Scale   =       1.2000000000000000 [-]
	 SCS Same-Spin Energy      =      -0.0299670456272204 [Eh]
	 SCS Opposite-Spin Energy  =      -0.2509805672022218 [Eh]
	 SCS Correlation Energy    =      -0.2809476128294422 [Eh]
	 SCS Total Energy          =   -2572.8146573088911282 [Eh]
	-----------------------------------------------------------

*** Psi4 exiting successfully. Buy a developer a beer!
