                               Psi4 1.9 release

  ==> Input File <==

--------------------------------------------------------------------------
MEMORY 60 GB

molecule dimer {
-1 1
Br     0.000000     0.000000     0.000000
--
0 1
O     -0.039065     1.360465    -3.062156
H     -0.212638     0.478259    -3.493798
H      0.045206     1.278611    -2.107441
O     -2.989528     1.408932     0.945248
H     -2.062048     1.043559     0.850710
H     -2.903099     2.019723     1.687443
O     -2.974629    -1.593570    -0.781374
H     -2.231751    -1.030002    -0.687159
H     -2.758326    -2.380343    -0.265965
O      0.721300     2.711650     2.171943
H      1.708723     2.884228     1.993117
H      0.459653     1.920161     1.656005

units ang
no_reorient
no_com
symmetry c1
}

set {
basis        aug-cc-pVTZ
scf_type     df
}

energy("mp2", bsse_type="cp")
--------------------------------------------------------------------------

                               Psi4 1.9 release
    Molecular point group: c1
  Charge       = 0
  Multiplicity = 1
  Basis Set: AUG-CC-PVTZ
    Blend: AUG-CC-PVTZ
  Basis Set: (AUG-CC-PVTZ AUX)
    Blend: AUG-CC-PVTZ-JKFIT
  @DF-RHF Final Energy:  -304.22126608470870
    Total Energy =                       -304.2212660847087591
 Dipole X            :         96.5128860          -94.8824987            1.6303873
 Dipole Y            :        -71.4784059           70.5132633           -0.9651426
 Dipole Z            :         12.4104527          -11.6743501            0.7361026
 Magnitude           :                                                    2.0326117
  Basis Set: (AUG-CC-PVTZ AUX)
    Blend: AUG-CC-PVTZ-RI
	 Reference Energy          =    -304.2212660847087022 [Eh]
	 Singles Energy            =      -0.0000000000000000 [Eh]
	 Same-Spin Energy          =      -0.2755604433211163 [Eh]
	 Opposite-Spin Energy      =      -0.8680591284818155 [Eh]
	 Correlation Energy        =      -1.1436195718029318 [Eh]
	 Total Energy              =    -305.3648856565116603 [Eh]
	 SCS Total Energy          =    -305.3547905199939123 [Eh]
                               Psi4 1.9 release
    Molecular point group: c1
  Multiplicity = 1
  Basis Set: AUG-CC-PVTZ
    Blend: AUG-CC-PVTZ
  Basis Set: (AUG-CC-PVTZ AUX)
    Blend: AUG-CC-PVTZ-JKFIT
  @DF-RHF Final Energy: -2572.53371847066501
    Total Energy =                      -2572.5337184706650078
  Basis Set: (AUG-CC-PVTZ AUX)
	 Singles Energy            =      -0.0000000000000000 [Eh]
	 Same-Spin Energy          =      -0.0903852076843409 [Eh]
	 Opposite-Spin Energy      =      -0.2102538362159611 [Eh]
	 Correlation Energy        =      -0.3006390439003020 [Eh]
	 Total Energy              =   -2572.8343575145654540 [Eh]
	 SCS Total Energy          =   -2572.8161514766857181 [Eh]
                               Psi4 1.9 release
    Molecular point group: c1

    Geometry (in Bohr), charge = -1, multiplicity = 1:

       Center              X                  Y                   Z               Mass
    ------------   -----------------  -----------------  -----------------  -----------------
         BR           0.000000000000     0.000000000000     0.000000000000    78.918337600000
         O           -0.073822151091     2.570906253271    -5.786636193427    15.994914619570
         H           -0.401827583865     0.903778527035    -6.602321357672     1.007825032230
         H            0.085426959227     2.416224610998    -3.982486315561     1.007825032230
         O           -5.649389164388     2.662495609394     1.786259840637    15.994914619570
         H           -3.896705977548     1.972040705757     1.607608912188     1.007825032230
         H           -5.486062025090     3.816723319288     3.188805122321     1.007825032230
         O           -5.621234134844    -3.011410861746    -1.476582861553    15.994914619570
         H           -4.217398170217    -1.946421688674    -1.298542314643     1.007825032230
         H           -5.212480704730    -4.498196354651    -0.502601008957     1.007825032230
         O            1.363059454293     5.124275848098     4.104377430105    15.994914619570
         H            3.229018494271     5.450401003377     3.766445265994     1.007825032230
         H            0.868618282745     3.628578406785     3.129395912389     1.007825032230

  Charge       = -1
  Multiplicity = 1
  Basis Set: AUG-CC-PVTZ
    Blend: AUG-CC-PVTZ
  Basis Set: (AUG-CC-PVTZ AUX)
    Blend: AUG-CC-PVTZ-JKFIT

    Orbital Energies [Eh]
    ---------------------

    Doubly Occupied:

       1A   -489.787994     2A    -64.928358     3A    -58.282866
       4A    -58.282843     5A    -58.282830     6A    -20.435375
       7A    -20.414441     8A    -20.412981     9A    -20.412539
      10A     -9.600668    11A     -7.208237    12A     -7.208139
      13A     -7.208028    14A     -2.949888    15A     -2.949859
      16A     -2.949725    17A     -2.949590    18A     -2.949570
      19A     -1.205379    20A     -1.196281    21A     -1.187807
      22A     -1.186175    23A     -0.764965    24A     -0.572736
      25A     -0.568406    26A     -0.566811    27A     -0.547193
      28A     -0.440345    29A     -0.438015    30A     -0.431833
      31A     -0.420878    32A     -0.372189    33A     -0.361531
      34A     -0.355803    35A     -0.353551    36A     -0.215238
      37A     -0.213976    38A     -0.211743

  @DF-RHF Final Energy: -2876.80911779777034

   => Energetics <=

    Nuclear Repulsion Energy =            325.8835475330112672
    One-Electron Energy =               -4667.7357575876940246
    Two-Electron Energy =                1465.0430922569123595
    Total Energy =                      -2876.8091177977703410
 Dipole X            :         97.0181774          -94.8824987            2.1356787
 Dipole Y            :        -71.9303424           70.5132633           -1.4170791
 Dipole Z            :         12.4043342          -11.6743501            0.7299842
 Magnitude           :                                                    2.6649791
  Basis Set: (AUG-CC-PVTZ AUX)
    Blend: AUG-CC-PVTZ-RI
	 Reference Energy          =   -2876.8091177977703410 [Eh]
	 Singles Energy            =      -0.0000000000000000 [Eh]
	 Same-Spin Energy          =      -0.3733231710897453 [Eh]
	 Opposite-Spin Energy      =      -1.0835698483108875 [Eh]
	 Correlation Energy        =      -1.4568930194006329 [Eh]
	 Total Energy              =   -2878.2660108171708089 [Eh]

	 ================> DF-SCS-MP2 Energies <==================
	-----------------------------------------------------------
	 SCS Same-Spin Scale       =       0.3333333333333333 [-]
	 SCS Opposite-Spin Scale   =       1.2000000000000000 [-]
	 SCS Same-Spin Energy      =      -0.1244410570299151 [Eh]
	 SCS Opposite-Spin Energy  =      -1.3002838179730649 [Eh]
	 SCS Correlation Energy    =      -1.4247248750029800 [Eh]
	 SCS Total Energy          =   -2878.2338426727733349 [Eh]
	-----------------------------------------------------------

*** Psi4 exiting successfully. Buy a developer a beer!
