                               Psi4 1.8.2 release

  ==> Input File <==

--------------------------------------------------------------------------
MEMORY 60 GB

molecule dimer {
0 1
Gh(Br)     0.000000     0.000000     0.000000
Gh(O)      0.781449    -0.807907    -3.361660
Gh(H)      1.592848    -1.345644    -3.304069
Gh(H)      0.648406    -0.568569    -2.400584
O          2.510193    -1.908503     0.397343
H          1.800244    -1.321266     0.041421
H          2.224768    -2.811754     0.197244
Gh(O)      1.731416    -0.150931     2.710083
Gh(H)      2.460238     0.314986     2.378625
Gh(H)      1.139946    -0.218518     1.919575
Gh(O)      2.207844     2.294641     0.275850
Gh(H)      1.617671     1.545812     0.305669
Gh(H)      2.353701     2.388285    -0.692227

units ang
no_reorient
no_com
symmetry c1
}

set {
basis        aug-cc-pVTZ
scf_type     df
}

energy("mp2")
--------------------------------------------------------------------------

    Molecular point group: c1

    Geometry (in Angstrom), charge = 0, multiplicity = 1:

       Center              X                  Y                   Z               Mass
    ------------   -----------------  -----------------  -----------------  -----------------
      Gh(BR)          0.000000000000     0.000000000000     0.000000000000    78.918337600000
      Gh(O)           0.781449000000    -0.807907000000    -3.361660000000    15.994914619570
      Gh(H)           1.592848000000    -1.345644000000    -3.304069000000     1.007825032230
      Gh(H)           0.648406000000    -0.568569000000    -2.400584000000     1.007825032230
         O            2.510193000000    -1.908503000000     0.397343000000    15.994914619570
         H            1.800244000000    -1.321266000000     0.041421000000     1.007825032230
         H            2.224768000000    -2.811754000000     0.197244000000     1.007825032230
      Gh(O)           1.731416000000    -0.150931000000     2.710083000000    15.994914619570
      Gh(H)           2.460238000000     0.314986000000     2.378625000000     1.007825032230
      Gh(H)           1.139946000000    -0.218518000000     1.919575000000     1.007825032230
      Gh(O)           2.207844000000     2.294641000000     0.275850000000    15.994914619570
      Gh(H)           1.617671000000     1.545812000000     0.305669000000     1.007825032230
      Gh(H)           2.353701000000     2.388285000000    -0.692227000000     1.007825032230

  Charge       = 0
  Multiplicity = 1
  Basis Set: AUG-CC-PVTZ
    Blend: AUG-CC-PVTZ
  Basis Set: (AUG-CC-PVTZ AUX)
    Blend: AUG-CC-PVTZ-JKFIT

    Orbital Energies [Eh]
    ---------------------

    Doubly Occupied:

       1A    -20.570182     2A     -1.342429     3A     -0.708519
       4A     -0.578819     5A     -0.508347

  @DF-RHF Final Energy:   -76.05837716963910

   => Energetics <=

    Nuclear Repulsion Energy =              8.9984309636669497
    One-Electron Energy =                -122.6970185026005140
    Two-Electron Energy =                  37.6402103692944721
    Total Energy =                        -76.0583771696391011
 Dipole X            :        -46.2097327           45.5547887           -0.6549440
 Dipole Y            :         36.4515095          -36.6626597           -0.2111502
 Dipole Z            :         -6.8241403            6.4579671           -0.3661733
 Magnitude           :                                                    0.7794992
  Basis Set: (AUG-CC-PVTZ AUX)
    Blend: AUG-CC-PVTZ-RI
	 Reference Energy          =     -76.0583771696391011 [Eh]
	 Singles Energy            =      -0.0000000000000000 [Eh]
	 Same-Spin Energy          =      -0.0687507823354710 [Eh]
	 Opposite-Spin Energy      =      -0.2170063347877291 [Eh]
	 Correlation Energy        =      -0.2857571171232001 [Eh]
	 Total Energy              =     -76.3441342867622978 [Eh]

	 ================> DF-SCS-MP2 Energies <==================
	-----------------------------------------------------------
	 SCS Same-Spin Scale       =       0.3333333333333333 [-]
	 SCS Opposite-Spin Scale   =       1.2000000000000000 [-]
	 SCS Same-Spin Energy      =      -0.0229169274451570 [Eh]
	 SCS Opposite-Spin Energy  =      -0.2604076017452749 [Eh]
	 SCS Correlation Energy    =      -0.2833245291904319 [Eh]
	 SCS Total Energy          =     -76.3417016988295387 [Eh]
	-----------------------------------------------------------

*** Psi4 exiting successfully. Buy a developer a beer!
