                               Psi4 1.8.2 release

  ==> Input File <==

--------------------------------------------------------------------------
MEMORY 60 GB

molecule dimer {
-1 1
Br         0.000000     0.000000     0.000000
O          1.690071    -2.304698    -1.707218
H          0.923760    -1.889361    -1.295223
H          2.207196    -2.384531    -0.909199
O         -2.116359    -2.882091    -0.092047
H         -1.511941    -2.175131    -0.067796
H         -2.983098    -2.506316    -0.045785
O         -1.756879    -0.866651    -2.837326
H         -1.528892    -0.222600    -3.499136
H         -1.133474    -0.763599    -2.057592
O         -0.689909     3.407484     0.493107
H         -0.675507     2.563674     0.915122
H         -1.403101     3.910690     0.895747
O          1.276028     1.109954    -2.736063
H          0.804335     0.872600    -1.938167
H          1.482357     2.068714    -2.758216
O          3.028986    -1.727961     0.695151
H          2.515532    -2.183866     1.360892
H          2.379498    -1.251815     0.131620

units ang
no_reorient
no_com
symmetry c1
}

set {
basis        aug-cc-pVTZ
scf_type     df
}

energy("mp2")
--------------------------------------------------------------------------

    Molecular point group: c1

    Geometry (in Angstrom), charge = -1, multiplicity = 1:

       Center              X                  Y                   Z               Mass
    ------------   -----------------  -----------------  -----------------  -----------------
         BR           0.000000000000     0.000000000000     0.000000000000    78.918337600000
         O            1.690071000000    -2.304698000000    -1.707218000000    15.994914619570
         H            0.923760000000    -1.889361000000    -1.295223000000     1.007825032230
         H            2.207196000000    -2.384531000000    -0.909199000000     1.007825032230
         O           -2.116359000000    -2.882091000000    -0.092047000000    15.994914619570
         H           -1.511941000000    -2.175131000000    -0.067796000000     1.007825032230
         H           -2.983098000000    -2.506316000000    -0.045785000000     1.007825032230
         O           -1.756879000000    -0.866651000000    -2.837326000000    15.994914619570
         H           -1.528892000000    -0.222600000000    -3.499136000000     1.007825032230
         H           -1.133474000000    -0.763599000000    -2.057592000000     1.007825032230
         O           -0.689909000000     3.407484000000     0.493107000000    15.994914619570
         H           -0.675507000000     2.563674000000     0.915122000000     1.007825032230
         H           -1.403101000000     3.910690000000     0.895747000000     1.007825032230
         O            1.276028000000     1.109954000000    -2.736063000000    15.994914619570
         H            0.804335000000     0.872600000000    -1.938167000000     1.007825032230
         H            1.482357000000     2.068714000000    -2.758216000000     1.007825032230
         O            3.028986000000    -1.727961000000     0.695151000000    15.994914619570
         H            2.515532000000    -2.183866000000     1.360892000000     1.007825032230
         H            2.379498000000    -1.251815000000     0.131620000000     1.007825032230

  Charge       = -1
  Multiplicity = 1
  Basis Set: AUG-CC-PVTZ
    Blend: AUG-CC-PVTZ
  Basis Set: (AUG-CC-PVTZ AUX)
    Blend: AUG-CC-PVTZ-JKFIT

    Orbital Energies [Eh]
    ---------------------

    Doubly Occupied:

       1A   -489.807399     2A    -64.947982     3A    -58.302489
       4A    -58.302448     5A    -58.302443     6A    -20.449714
       7A    -20.448816     8A    -20.424453     9A    -20.414602
      10A    -20.411694    11A    -20.406065    12A     -9.620383
      13A     -7.228087    14A     -7.227844    15A     -7.227742
      16A     -2.969688    17A     -2.969610    18A     -2.969517
      19A     -2.969203    20A     -2.969197    21A     -1.239490
      22A     -1.237420    23A     -1.225588    24A     -1.200261
      25A     -1.193296    26A     -1.190677    27A     -0.789563
      28A     -0.610259    29A     -0.607735    30A     -0.598469
      31A     -0.576365    32A     -0.566628    33A     -0.544296
      34A     -0.475966    35A     -0.467457    36A     -0.450623
      37A     -0.445848    38A     -0.427348    39A     -0.422591
      40A     -0.395741    41A     -0.387017    42A     -0.375441
      43A     -0.359343    44A     -0.357658    45A     -0.352911
      46A     -0.238058    47A     -0.234285    48A     -0.232749

  @DF-RHF Final Energy: -3028.93219299935254

   => Energetics <=

    Nuclear Repulsion Energy =            564.7479021863383650
    One-Electron Energy =               -5356.2152660122592351
    Two-Electron Energy =                1762.5351708265682191
    Total Energy =                      -3028.9321929993529920
 Dipole X            :        -24.8515902           23.6823672           -1.1692230
 Dipole Y            :         58.8949519          -56.8301968            2.0647551
 Dipole Z            :        113.6248157         -111.0079947            2.6168210
 Magnitude           :                                                    3.5324281
  Basis Set: (AUG-CC-PVTZ AUX)
    Blend: AUG-CC-PVTZ-RI
	 Reference Energy          =   -3028.9321929993525373 [Eh]
	 Singles Energy            =      -0.0000000000000000 [Eh]
	 Same-Spin Energy          =      -0.5172705491979366 [Eh]
	 Opposite-Spin Energy      =      -1.5226881362186191 [Eh]
	 Correlation Energy        =      -2.0399586854165559 [Eh]
	 Total Energy              =   -3030.9721516847689600 [Eh]

	 ================> DF-SCS-MP2 Energies <==================
	-----------------------------------------------------------
	 SCS Same-Spin Scale       =       0.3333333333333333 [-]
	 SCS Opposite-Spin Scale   =       1.2000000000000000 [-]
	 SCS Same-Spin Energy      =      -0.1724235163993122 [Eh]
	 SCS Opposite-Spin Energy  =      -1.8272257634623428 [Eh]
	 SCS Correlation Energy    =      -1.9996492798616550 [Eh]
	 SCS Total Energy          =   -3030.9318422792143792 [Eh]
	-----------------------------------------------------------

*** Psi4 exiting successfully. Buy a developer a beer!
