                               Psi4 1.8.2 release

  ==> Input File <==

--------------------------------------------------------------------------
MEMORY 60 GB

molecule dimer {
0 1
Gh(Br)     0.000000     0.000000     0.000000
Gh(O)     -0.871621     3.438375     0.383857
Gh(H)     -0.516984     2.572586     0.549013
Gh(H)     -0.363617     4.028043     0.929764
Gh(O)      1.138510     0.841363    -2.887618
Gh(H)      0.694724     0.580199    -2.053917
Gh(H)      2.017329     1.105167    -2.581160
Gh(O)     -3.253094     1.026650    -0.425546
Gh(H)     -3.390640     1.760968    -1.019761
Gh(H)     -2.319946     0.849586    -0.372891
Gh(O)     -0.964777    -1.798146    -2.591474
Gh(H)     -0.682415    -1.413219    -1.710488
Gh(H)     -1.809853    -2.198752    -2.407912
O          0.991667     1.473530     2.961882
H          1.085614     0.936924     2.131226
H          0.113098     1.201158     3.227799

units ang
no_reorient
no_com
symmetry c1
}

set {
basis        aug-cc-pVTZ
scf_type     df
}

energy("mp2")
--------------------------------------------------------------------------

    Molecular point group: c1

    Geometry (in Angstrom), charge = 0, multiplicity = 1:

       Center              X                  Y                   Z               Mass
    ------------   -----------------  -----------------  -----------------  -----------------
      Gh(BR)          0.000000000000     0.000000000000     0.000000000000    78.918337600000
      Gh(O)          -0.871621000000     3.438375000000     0.383857000000    15.994914619570
      Gh(H)          -0.516984000000     2.572586000000     0.549013000000     1.007825032230
      Gh(H)          -0.363617000000     4.028043000000     0.929764000000     1.007825032230
      Gh(O)           1.138510000000     0.841363000000    -2.887618000000    15.994914619570
      Gh(H)           0.694724000000     0.580199000000    -2.053917000000     1.007825032230
      Gh(H)           2.017329000000     1.105167000000    -2.581160000000     1.007825032230
      Gh(O)          -3.253094000000     1.026650000000    -0.425546000000    15.994914619570
      Gh(H)          -3.390640000000     1.760968000000    -1.019761000000     1.007825032230
      Gh(H)          -2.319946000000     0.849586000000    -0.372891000000     1.007825032230
      Gh(O)          -0.964777000000    -1.798146000000    -2.591474000000    15.994914619570
      Gh(H)          -0.682415000000    -1.413219000000    -1.710488000000     1.007825032230
      Gh(H)          -1.809853000000    -2.198752000000    -2.407912000000     1.007825032230
         O            0.991667000000     1.473530000000     2.961882000000    15.994914619570
         H            1.085614000000     0.936924000000     2.131226000000     1.007825032230
         H            0.113098000000     1.201158000000     3.227799000000     1.007825032230

  Charge       = 0
  Multiplicity = 1
  Basis Set: AUG-CC-PVTZ
    Blend: AUG-CC-PVTZ
  Basis Set: (AUG-CC-PVTZ AUX)
    Blend: AUG-CC-PVTZ-JKFIT

    Orbital Energies [Eh]
    ---------------------

    Doubly Occupied:

       1A    -20.572418     2A     -1.348199     3A     -0.698401
       4A     -0.591022     5A     -0.510381

  @DF-RHF Final Energy:   -76.05745664896011

   => Energetics <=

    Nuclear Repulsion Energy =              9.0384182504339350
    One-Electron Energy =                -122.7509041523118754
    Two-Electron Energy =                  37.6550292529178279
    Total Energy =                        -76.0574566489601125
 Dipole X            :        -17.7704575           17.2570697           -0.5133878
 Dipole Y            :        -26.8406440           26.3169345           -0.5237095
 Dipole Z            :        -55.2655500           54.9042559           -0.3612941
 Magnitude           :                                                    0.8175402
  Basis Set: (AUG-CC-PVTZ AUX)
    Blend: AUG-CC-PVTZ-RI
	 Reference Energy          =     -76.0574566489601125 [Eh]
	 Singles Energy            =      -0.0000000000000000 [Eh]
	 Same-Spin Energy          =      -0.0688203371747620 [Eh]
	 Opposite-Spin Energy      =      -0.2169131092619767 [Eh]
	 Correlation Energy        =      -0.2857334464367387 [Eh]
	 Total Energy              =     -76.3431900953968494 [Eh]

	 ================> DF-SCS-MP2 Energies <==================
	-----------------------------------------------------------
	 SCS Same-Spin Scale       =       0.3333333333333333 [-]
	 SCS Opposite-Spin Scale   =       1.2000000000000000 [-]
	 SCS Same-Spin Energy      =      -0.0229401123915873 [Eh]
	 SCS Opposite-Spin Energy  =      -0.2602957311143720 [Eh]
	 SCS Correlation Energy    =      -0.2832358435059593 [Eh]
	 SCS Total Energy          =     -76.3406924924660757 [Eh]
	-----------------------------------------------------------

*** Psi4 exiting successfully. Buy a developer a beer!
