                               Psi4 1.8.2 release

  ==> Input File <==

--------------------------------------------------------------------------
MEMORY 60 GB

molecule dimer {
0 1
Gh(Br)     0.000000     0.000000     0.000000
O          0.475829    -3.025000    -1.272041
H          0.055212    -3.372620    -0.471336
H          0.533315    -2.072946    -1.193364
Gh(O)      1.556372    -1.998430     2.295902
Gh(H)      1.091818    -1.647091     1.556228
Gh(H)      1.428739    -1.429902     3.042221
Gh(O)     -1.645126    -1.882973     1.903576
Gh(H)     -1.530895    -2.707178     1.398897
Gh(H)     -1.093437    -1.199086     1.499601
Gh(O)      1.518153     2.079534     2.428210
Gh(H)      1.233613     2.008716     3.366920
Gh(H)      1.307645     1.205860     1.999083

units ang
no_reorient
no_com
symmetry c1
}

set {
basis        aug-cc-pVTZ
scf_type     df
}

energy("mp2")
--------------------------------------------------------------------------

    Molecular point group: c1

    Geometry (in Angstrom), charge = 0, multiplicity = 1:

       Center              X                  Y                   Z               Mass
    ------------   -----------------  -----------------  -----------------  -----------------
      Gh(BR)          0.000000000000     0.000000000000     0.000000000000    78.918337600000
         O            0.475829000000    -3.025000000000    -1.272041000000    15.994914619570
         H            0.055212000000    -3.372620000000    -0.471336000000     1.007825032230
         H            0.533315000000    -2.072946000000    -1.193364000000     1.007825032230
      Gh(O)           1.556372000000    -1.998430000000     2.295902000000    15.994914619570
      Gh(H)           1.091818000000    -1.647091000000     1.556228000000     1.007825032230
      Gh(H)           1.428739000000    -1.429902000000     3.042221000000     1.007825032230
      Gh(O)          -1.645126000000    -1.882973000000     1.903576000000    15.994914619570
      Gh(H)          -1.530895000000    -2.707178000000     1.398897000000     1.007825032230
      Gh(H)          -1.093437000000    -1.199086000000     1.499601000000     1.007825032230
      Gh(O)           1.518153000000     2.079534000000     2.428210000000    15.994914619570
      Gh(H)           1.233613000000     2.008716000000     3.366920000000     1.007825032230
      Gh(H)           1.307645000000     1.205860000000     1.999083000000     1.007825032230

  Charge       = 0
  Multiplicity = 1
  Basis Set: AUG-CC-PVTZ
    Blend: AUG-CC-PVTZ
  Basis Set: (AUG-CC-PVTZ AUX)
    Blend: AUG-CC-PVTZ-JKFIT

    Orbital Energies [Eh]
    ---------------------

    Doubly Occupied:

       1A    -20.566419     2A     -1.347944     3A     -0.721865
       4A     -0.576326     5A     -0.508702

  @DF-RHF Final Energy:   -76.05997661807002

   => Energetics <=

    Nuclear Repulsion Energy =              9.1313680790518958
    One-Electron Energy =                -122.9401734420828092
    Two-Electron Energy =                  37.7488287449608890
    Total Energy =                        -76.0599766180700243
 Dipole X            :         -8.5486530            8.3056468           -0.2430063
 Dipole Y            :         56.4290907          -56.0220006            0.4070902
 Dipole Z            :         22.9653315          -22.3763000            0.5890315
 Magnitude           :                                                    0.7561300
  Basis Set: (AUG-CC-PVTZ AUX)
    Blend: AUG-CC-PVTZ-RI
	 Reference Energy          =     -76.0599766180700243 [Eh]
	 Singles Energy            =      -0.0000000000000000 [Eh]
	 Same-Spin Energy          =      -0.0684232973337109 [Eh]
	 Opposite-Spin Energy      =      -0.2158849555653262 [Eh]
	 Correlation Energy        =      -0.2843082528990372 [Eh]
	 Total Energy              =     -76.3442848709690622 [Eh]

	 ================> DF-SCS-MP2 Energies <==================
	-----------------------------------------------------------
	 SCS Same-Spin Scale       =       0.3333333333333333 [-]
	 SCS Opposite-Spin Scale   =       1.2000000000000000 [-]
	 SCS Same-Spin Energy      =      -0.0228077657779036 [Eh]
	 SCS Opposite-Spin Energy  =      -0.2590619466783915 [Eh]
	 SCS Correlation Energy    =      -0.2818697124562951 [Eh]
	 SCS Total Energy          =     -76.3418463305263231 [Eh]
	-----------------------------------------------------------

*** Psi4 exiting successfully. Buy a developer a beer!
