                               Psi4 1.8.2 release

  ==> Input File <==

--------------------------------------------------------------------------
MEMORY 60 GB

molecule dimer {
0 1
Gh(Br)     0.000000     0.000000     0.000000
Gh(O)      0.735787    -1.007456    -3.069810
Gh(H)      0.644497    -0.834554    -2.122033
Gh(H)      0.006923    -0.466036    -3.438270
Gh(O)     -1.018718    -3.113955    -0.290668
Gh(H)     -0.721929    -2.218123    -0.066292
Gh(H)     -1.485195    -3.443926     0.484674
Gh(O)      0.210699    -0.756624     3.212958
Gh(H)     -0.457413    -0.410318     3.755700
Gh(H)     -0.069501    -0.614574     2.311108
O         -2.962023    -1.017792    -1.096322
H         -3.354668    -1.449903    -0.277945
H         -2.162494    -0.558488    -0.874702
Gh(O)      2.892807    -1.828066    -0.264556
Gh(H)      2.681291    -1.012210     0.216583
Gh(H)      2.150125    -2.389570    -0.124064

units ang
no_reorient
no_com
symmetry c1
}

set {
basis        aug-cc-pVTZ
scf_type     df
}

energy("mp2")
--------------------------------------------------------------------------

    Molecular point group: c1

    Geometry (in Angstrom), charge = 0, multiplicity = 1:

       Center              X                  Y                   Z               Mass
    ------------   -----------------  -----------------  -----------------  -----------------
      Gh(BR)          0.000000000000     0.000000000000     0.000000000000    78.918337600000
      Gh(O)           0.735787000000    -1.007456000000    -3.069810000000    15.994914619570
      Gh(H)           0.644497000000    -0.834554000000    -2.122033000000     1.007825032230
      Gh(H)           0.006923000000    -0.466036000000    -3.438270000000     1.007825032230
      Gh(O)          -1.018718000000    -3.113955000000    -0.290668000000    15.994914619570
      Gh(H)          -0.721929000000    -2.218123000000    -0.066292000000     1.007825032230
      Gh(H)          -1.485195000000    -3.443926000000     0.484674000000     1.007825032230
      Gh(O)           0.210699000000    -0.756624000000     3.212958000000    15.994914619570
      Gh(H)          -0.457413000000    -0.410318000000     3.755700000000     1.007825032230
      Gh(H)          -0.069501000000    -0.614574000000     2.311108000000     1.007825032230
         O           -2.962023000000    -1.017792000000    -1.096322000000    15.994914619570
         H           -3.354668000000    -1.449903000000    -0.277945000000     1.007825032230
         H           -2.162494000000    -0.558488000000    -0.874702000000     1.007825032230
      Gh(O)           2.892807000000    -1.828066000000    -0.264556000000    15.994914619570
      Gh(H)           2.681291000000    -1.012210000000     0.216583000000     1.007825032230
      Gh(H)           2.150125000000    -2.389570000000    -0.124064000000     1.007825032230

  Charge       = 0
  Multiplicity = 1
  Basis Set: AUG-CC-PVTZ
    Blend: AUG-CC-PVTZ
  Basis Set: (AUG-CC-PVTZ AUX)
    Blend: AUG-CC-PVTZ-JKFIT

    Orbital Energies [Eh]
    ---------------------

    Doubly Occupied:

       1A    -20.567592     2A     -1.340471     3A     -0.717786
       4A     -0.569731     5A     -0.506999

  @DF-RHF Final Energy:   -76.05656521195814

   => Energetics <=

    Nuclear Repulsion Energy =              9.0051504043121273
    One-Electron Energy =                -122.7182699167991871
    Two-Electron Energy =                  37.6565543005289172
    Total Energy =                        -76.0565652119581443
 Dipole X            :         55.4836581          -55.2052231            0.2784350
 Dipole Y            :         19.2050093          -19.1820940            0.0229153
 Dipole Z            :         19.4451450          -18.7521738            0.6929713
 Magnitude           :                                                    0.7471682
  Basis Set: (AUG-CC-PVTZ AUX)
    Blend: AUG-CC-PVTZ-RI
	 Reference Energy          =     -76.0565652119581443 [Eh]
	 Singles Energy            =      -0.0000000000000000 [Eh]
	 Same-Spin Energy          =      -0.0686530068277582 [Eh]
	 Opposite-Spin Energy      =      -0.2167376494525511 [Eh]
	 Correlation Energy        =      -0.2853906562803093 [Eh]
	 Total Energy              =     -76.3419558682384576 [Eh]

	 ================> DF-SCS-MP2 Energies <==================
	-----------------------------------------------------------
	 SCS Same-Spin Scale       =       0.3333333333333333 [-]
	 SCS Opposite-Spin Scale   =       1.2000000000000000 [-]
	 SCS Same-Spin Energy      =      -0.0228843356092527 [Eh]
	 SCS Opposite-Spin Energy  =      -0.2600851793430613 [Eh]
	 SCS Correlation Energy    =      -0.2829695149523140 [Eh]
	 SCS Total Energy          =     -76.3395347269104576 [Eh]
	-----------------------------------------------------------

*** Psi4 exiting successfully. Buy a developer a beer!
