                               Psi4 1.8.2 release

  ==> Input File <==

--------------------------------------------------------------------------
MEMORY 60 GB

molecule dimer {
0 1
Gh(Br)     0.000000     0.000000     0.000000
Gh(O)      3.157564    -0.938804     1.002837
Gh(H)      2.741539    -1.572686     1.601074
Gh(H)      2.435256    -0.515105     0.528841
Gh(O)     -1.178261     3.348443    -0.543747
Gh(H)     -0.877405     4.142222    -0.123462
Gh(H)     -0.618048     2.578310    -0.290120
Gh(O)     -0.155000     1.255906    -3.193252
Gh(H)     -0.202310     0.622118    -3.920435
Gh(H)     -0.213318     0.808213    -2.353788
O          0.562600     1.647077     2.887295
H          0.576374     0.972541     2.201725
H         -0.160115     1.355841     3.512740
Gh(O)      1.977093     2.382932     0.020064
Gh(H)      1.569982     3.008419     0.619026
Gh(H)      1.465597     1.557824     0.009689

units ang
no_reorient
no_com
symmetry c1
}

set {
basis        aug-cc-pVTZ
scf_type     df
}

energy("mp2")
--------------------------------------------------------------------------

    Molecular point group: c1

    Geometry (in Angstrom), charge = 0, multiplicity = 1:

       Center              X                  Y                   Z               Mass
    ------------   -----------------  -----------------  -----------------  -----------------
      Gh(BR)          0.000000000000     0.000000000000     0.000000000000    78.918337600000
      Gh(O)           3.157564000000    -0.938804000000     1.002837000000    15.994914619570
      Gh(H)           2.741539000000    -1.572686000000     1.601074000000     1.007825032230
      Gh(H)           2.435256000000    -0.515105000000     0.528841000000     1.007825032230
      Gh(O)          -1.178261000000     3.348443000000    -0.543747000000    15.994914619570
      Gh(H)          -0.877405000000     4.142222000000    -0.123462000000     1.007825032230
      Gh(H)          -0.618048000000     2.578310000000    -0.290120000000     1.007825032230
      Gh(O)          -0.155000000000     1.255906000000    -3.193252000000    15.994914619570
      Gh(H)          -0.202310000000     0.622118000000    -3.920435000000     1.007825032230
      Gh(H)          -0.213318000000     0.808213000000    -2.353788000000     1.007825032230
         O            0.562600000000     1.647077000000     2.887295000000    15.994914619570
         H            0.576374000000     0.972541000000     2.201725000000     1.007825032230
         H           -0.160115000000     1.355841000000     3.512740000000     1.007825032230
      Gh(O)           1.977093000000     2.382932000000     0.020064000000    15.994914619570
      Gh(H)           1.569982000000     3.008419000000     0.619026000000     1.007825032230
      Gh(H)           1.465597000000     1.557824000000     0.009689000000     1.007825032230

  Charge       = 0
  Multiplicity = 1
  Basis Set: AUG-CC-PVTZ
    Blend: AUG-CC-PVTZ
  Basis Set: (AUG-CC-PVTZ AUX)
    Blend: AUG-CC-PVTZ-JKFIT

    Orbital Energies [Eh]
    ---------------------

    Doubly Occupied:

       1A    -20.571031     2A     -1.342078     3A     -0.705488
       4A     -0.580101     5A     -0.508470

  @DF-RHF Final Energy:   -76.05756819159272

   => Energetics <=

    Nuclear Repulsion Energy =              8.9792275525755016
    One-Electron Energy =                -122.6592538592966122
    Two-Electron Energy =                  37.6224581151283886
    Total Energy =                        -76.0575681915927362
 Dipole X            :         -9.7537550            9.2918949           -0.4618602
 Dipole Y            :        -29.9357603           29.3001998           -0.6355605
 Dipole Z            :        -54.4932600           54.4483482           -0.0449118
 Magnitude           :                                                    0.7869365
  Basis Set: (AUG-CC-PVTZ AUX)
    Blend: AUG-CC-PVTZ-RI
	 Reference Energy          =     -76.0575681915927220 [Eh]
	 Singles Energy            =      -0.0000000000000000 [Eh]
	 Same-Spin Energy          =      -0.0687997350585112 [Eh]
	 Opposite-Spin Energy      =      -0.2170571793919423 [Eh]
	 Correlation Energy        =      -0.2858569144504535 [Eh]
	 Total Energy              =     -76.3434251060431706 [Eh]

	 ================> DF-SCS-MP2 Energies <==================
	-----------------------------------------------------------
	 SCS Same-Spin Scale       =       0.3333333333333333 [-]
	 SCS Opposite-Spin Scale   =       1.2000000000000000 [-]
	 SCS Same-Spin Energy      =      -0.0229332450195037 [Eh]
	 SCS Opposite-Spin Energy  =      -0.2604686152703308 [Eh]
	 SCS Correlation Energy    =      -0.2834018602898345 [Eh]
	 SCS Total Energy          =     -76.3409700518825503 [Eh]
	-----------------------------------------------------------

*** Psi4 exiting successfully. Buy a developer a beer!
