                               Psi4 1.8.2 release

  ==> Input File <==

--------------------------------------------------------------------------
MEMORY 60 GB

molecule dimer {
-1 1
Br         0.000000     0.000000     0.000000
Gh(O)      0.907598    -3.034016    -0.451314
Gh(H)      0.892890    -2.061947    -0.424380
Gh(H)      1.171918    -3.349880     0.408425
Gh(O)      2.003620    -0.060569     2.713891
Gh(H)      1.339719     0.557371     2.425223
Gh(H)      2.579032     0.542567     3.258704
Gh(O)      1.853817     0.385000    -2.659522
Gh(H)      2.431046    -0.410080    -2.411062
Gh(H)      1.417523     0.543139    -1.862559
Gh(O)      0.164337     3.154937    -0.854991
Gh(H)      0.250547     2.315141    -0.320131
Gh(H)      1.066341     3.225957    -1.078370

units ang
no_reorient
no_com
symmetry c1
}

set {
basis        aug-cc-pVTZ
scf_type     df
}

energy("mp2")
--------------------------------------------------------------------------

    Molecular point group: c1

    Geometry (in Angstrom), charge = -1, multiplicity = 1:

       Center              X                  Y                   Z               Mass
    ------------   -----------------  -----------------  -----------------  -----------------
         BR           0.000000000000     0.000000000000     0.000000000000    78.918337600000
      Gh(O)           0.907598000000    -3.034016000000    -0.451314000000    15.994914619570
      Gh(H)           0.892890000000    -2.061947000000    -0.424380000000     1.007825032230
      Gh(H)           1.171918000000    -3.349880000000     0.408425000000     1.007825032230
      Gh(O)           2.003620000000    -0.060569000000     2.713891000000    15.994914619570
      Gh(H)           1.339719000000     0.557371000000     2.425223000000     1.007825032230
      Gh(H)           2.579032000000     0.542567000000     3.258704000000     1.007825032230
      Gh(O)           1.853817000000     0.385000000000    -2.659522000000    15.994914619570
      Gh(H)           2.431046000000    -0.410080000000    -2.411062000000     1.007825032230
      Gh(H)           1.417523000000     0.543139000000    -1.862559000000     1.007825032230
      Gh(O)           0.164337000000     3.154937000000    -0.854991000000    15.994914619570
      Gh(H)           0.250547000000     2.315141000000    -0.320131000000     1.007825032230
      Gh(H)           1.066341000000     3.225957000000    -1.078370000000     1.007825032230

  Charge       = -1
  Multiplicity = 1
  Basis Set: AUG-CC-PVTZ
    Blend: AUG-CC-PVTZ
  Basis Set: (AUG-CC-PVTZ AUX)
    Blend: AUG-CC-PVTZ-JKFIT

    Orbital Energies [Eh]
    ---------------------

    Doubly Occupied:

       1A   -489.721883     2A    -64.861550     3A    -58.216075
       4A    -58.216074     5A    -58.216072     6A     -9.533206
       7A     -7.140552     8A     -7.140533     9A     -7.140522
      10A     -2.882247    11A     -2.882244    12A     -2.882236
      13A     -2.882228    14A     -2.882205    15A     -0.685991
      16A     -0.139339    17A     -0.139333    18A     -0.139329

  @DF-RHF Final Energy: -2572.53371949475195

   => Energetics <=

    Nuclear Repulsion Energy =              0.0000000000000000
    One-Electron Energy =               -3593.6642013024147673
    Two-Electron Energy =                1021.1304818076630454
    Total Energy =                      -2572.5337194947514945
 Dipole X            :          0.0001133            0.0000000            0.0001133
 Dipole Y            :          0.0001093            0.0000000            0.0001093
 Dipole Z            :         -0.0000927            0.0000000           -0.0000927
 Magnitude           :                                                    0.0001827
  Basis Set: (AUG-CC-PVTZ AUX)
    Blend: AUG-CC-PVTZ-RI
	 Reference Energy          =   -2572.5337194947519492 [Eh]
	 Singles Energy            =      -0.0000000000000000 [Eh]
	 Same-Spin Energy          =      -0.0904444151867204 [Eh]
	 Opposite-Spin Energy      =      -0.2105613220591013 [Eh]
	 Correlation Energy        =      -0.3010057372458217 [Eh]
	 Total Energy              =   -2572.8347252319977088 [Eh]

	 ================> DF-SCS-MP2 Energies <==================
	-----------------------------------------------------------
	 SCS Same-Spin Scale       =       0.3333333333333333 [-]
	 SCS Opposite-Spin Scale   =       1.2000000000000000 [-]
	 SCS Same-Spin Energy      =      -0.0301481383955735 [Eh]
	 SCS Opposite-Spin Energy  =      -0.2526735864709215 [Eh]
	 SCS Correlation Energy    =      -0.2828217248664950 [Eh]
	 SCS Total Energy          =   -2572.8165412196185571 [Eh]
	-----------------------------------------------------------

*** Psi4 exiting successfully. Buy a developer a beer!
