                               Psi4 1.9 release

  ==> Input File <==

--------------------------------------------------------------------------
MEMORY 60 GB

molecule dimer {
-1 1
Br     0.000000     0.000000     0.000000
--
0 1
O     -0.944159     0.763135    -3.171296
H     -0.418125     0.642488    -2.380292
H     -1.515592     1.518947    -2.946457
O      0.266373    -2.666671    -2.063433
H     -0.507967    -3.216325    -2.144357
H      0.169069    -1.929715    -1.427717
O      2.278924     0.586830    -2.040328
H      1.783721    -0.048625    -1.465647
H      2.356833     0.210882    -2.962479
O     -0.660034     3.338372    -0.252519
H     -0.523899     2.351649    -0.216782
H     -0.034580     3.514831    -0.970765

units ang
no_reorient
no_com
symmetry c1
}

set {
basis        aug-cc-pVTZ
scf_type     df
}

energy("mp2", bsse_type="cp")
--------------------------------------------------------------------------

                               Psi4 1.9 release
    Molecular point group: c1
  Charge       = 0
  Multiplicity = 1
  Basis Set: AUG-CC-PVTZ
    Blend: AUG-CC-PVTZ
  Basis Set: (AUG-CC-PVTZ AUX)
    Blend: AUG-CC-PVTZ-JKFIT
  @DF-RHF Final Energy:  -304.22575828330292
    Total Energy =                       -304.2257582833029232
 Dipole X            :        -17.0583620           16.7019513           -0.3564107
 Dipole Y            :        -36.9717041           36.3157362           -0.6559679
 Dipole Z            :        141.4953294         -141.2288785            0.2664509
 Magnitude           :                                                    0.7926655
  Basis Set: (AUG-CC-PVTZ AUX)
    Blend: AUG-CC-PVTZ-RI
	 Reference Energy          =    -304.2257582833029232 [Eh]
	 Singles Energy            =      -0.0000000000000000 [Eh]
	 Same-Spin Energy          =      -0.2763615773487617 [Eh]
	 Opposite-Spin Energy      =      -0.8688191326312762 [Eh]
	 Correlation Energy        =      -1.1451807099800377 [Eh]
	 Total Energy              =    -305.3709389932829481 [Eh]
	 SCS Total Energy          =    -305.3604617682433968 [Eh]
                               Psi4 1.9 release
    Molecular point group: c1
  Multiplicity = 1
  Basis Set: AUG-CC-PVTZ
    Blend: AUG-CC-PVTZ
  Basis Set: (AUG-CC-PVTZ AUX)
    Blend: AUG-CC-PVTZ-JKFIT
  @DF-RHF Final Energy: -2572.53372152074098
    Total Energy =                      -2572.5337215207414374
  Basis Set: (AUG-CC-PVTZ AUX)
	 Singles Energy            =      -0.0000000000000000 [Eh]
	 Same-Spin Energy          =      -0.0907674451967631 [Eh]
	 Opposite-Spin Energy      =      -0.2113193703954558 [Eh]
	 Correlation Energy        =      -0.3020868155922189 [Eh]
	 Total Energy              =   -2572.8358083363332298 [Eh]
	 SCS Total Energy          =   -2572.8175605802812242 [Eh]
                               Psi4 1.9 release
    Molecular point group: c1

    Geometry (in Bohr), charge = -1, multiplicity = 1:

       Center              X                  Y                   Z               Mass
    ------------   -----------------  -----------------  -----------------  -----------------
         BR           0.000000000000     0.000000000000     0.000000000000    78.918337600000
         O           -1.784201928886     1.442116146751    -5.992880902760    15.994914619570
         H           -0.790141736207     1.214126358893    -4.498099978618     1.007825032230
         H           -2.864053797935     2.870393829086    -5.567996770438     1.007825032230
         O            0.503372017217    -5.039277856701    -3.899323248232    15.994914619570
         H           -0.959918510770    -6.077973380463    -4.052247445208     1.007825032230
         H            0.319494106305    -3.646632850188    -2.697994114660     1.007825032230
         O            4.306542220733     1.108947982202    -3.855661126103    15.994914619570
         H            3.370744174228    -0.091887932850    -2.769671426599     1.007825032230
         H            4.453768893441     0.398509224789    -5.598273962420     1.007825032230
         O           -1.247283493490     6.308608784897    -0.477191751474    15.994914619570
         H           -0.990025627401     4.443972553207    -0.409658608929     1.007825032230
         H           -0.065346729418     6.642067967269    -1.834479982180     1.007825032230

  Charge       = -1
  Multiplicity = 1
  Basis Set: AUG-CC-PVTZ
    Blend: AUG-CC-PVTZ
  Basis Set: (AUG-CC-PVTZ AUX)
    Blend: AUG-CC-PVTZ-JKFIT

    Orbital Energies [Eh]
    ---------------------

    Doubly Occupied:

       1A   -489.783972     2A    -64.924530     3A    -58.279042
       4A    -58.278990     5A    -58.278974     6A    -20.420943
       7A    -20.415031     8A    -20.414850     9A    -20.412931
      10A     -9.597011    11A     -7.204777    12A     -7.204454
      13A     -7.204267    14A     -2.946423    15A     -2.946352
      16A     -2.946137    17A     -2.945717    18A     -2.945695
      19A     -1.199332    20A     -1.197623    21A     -1.196681
      22A     -1.178929    23A     -0.765269    24A     -0.586589
      25A     -0.561178    26A     -0.554788    27A     -0.540782
      28A     -0.451462    29A     -0.438419    30A     -0.423935
      31A     -0.417940    32A     -0.364014    33A     -0.361862
      34A     -0.360969    35A     -0.350942    36A     -0.215647
      37A     -0.209794    38A     -0.206955

  @DF-RHF Final Energy: -2876.80434310841019

   => Energetics <=

    Nuclear Repulsion Energy =            343.8905789017497909
    One-Electron Energy =               -4703.9234279822940152
    Two-Electron Energy =                1483.2285059721341440
    Total Energy =                      -2876.8043431084097392
 Dipole X            :        -17.1973220           16.7019513           -0.4953707
 Dipole Y            :        -37.1281654           36.3157362           -0.8124292
 Dipole Z            :        142.4173930         -141.2288785            1.1885145
 Magnitude           :                                                    1.5224980
  Basis Set: (AUG-CC-PVTZ AUX)
    Blend: AUG-CC-PVTZ-RI
	 Reference Energy          =   -2876.8043431084101940 [Eh]
	 Singles Energy            =      -0.0000000000000000 [Eh]
	 Same-Spin Energy          =      -0.3763628763805003 [Eh]
	 Opposite-Spin Energy      =      -1.0872982229870580 [Eh]
	 Correlation Energy        =      -1.4636610993675583 [Eh]
	 Total Energy              =   -2878.2680042077777216 [Eh]

	 ================> DF-SCS-MP2 Energies <==================
	-----------------------------------------------------------
	 SCS Same-Spin Scale       =       0.3333333333333333 [-]
	 SCS Opposite-Spin Scale   =       1.2000000000000000 [-]
	 SCS Same-Spin Energy      =      -0.1254542921268334 [Eh]
	 SCS Opposite-Spin Energy  =      -1.3047578675844695 [Eh]
	 SCS Correlation Energy    =      -1.4302121597113029 [Eh]
	 SCS Total Energy          =   -2878.2345552681213121 [Eh]
	-----------------------------------------------------------

*** Psi4 exiting successfully. Buy a developer a beer!
