                               Psi4 1.9 release

  ==> Input File <==

--------------------------------------------------------------------------
MEMORY 60 GB

molecule dimer {
-1 1
Br     0.000000     0.000000     0.000000
--
0 1
O     -1.837505     2.686087     1.441240
H     -1.395781     2.850014     0.561055
H     -1.247273     2.007246     1.809128
O      2.018282     0.967796     2.748598
H      1.377311     1.015065     1.933015
H      2.889078     0.608425     2.456849
O     -0.998379     0.096685     3.070896
H     -0.488891     0.217516     2.223392
H     -1.866484     0.371090     2.902094
O     -3.343571     0.637488    -0.842857
H     -3.282439     0.319505    -1.793616
H     -2.688556     0.274884    -0.310570
O      1.336103    -3.264628    -0.543756
H      0.839531    -2.590942    -1.024661
H      1.966802    -2.869397     0.087043
O     -0.753078    -3.228067     1.448531
H      0.057408    -3.187980     0.982465
H     -1.283212    -2.484986     1.163089
O      3.039103     0.547804    -1.228230
H      3.591640    -0.311332    -1.209765
H      2.221180     0.248292    -0.808211

units ang
no_reorient
no_com
symmetry c1
}

set {
basis        aug-cc-pVTZ
scf_type     df
}

energy("mp2", bsse_type="cp")
--------------------------------------------------------------------------

                               Psi4 1.9 release
    Molecular point group: c1
  Charge       = 0
  Multiplicity = 1
  Basis Set: AUG-CC-PVTZ
    Blend: AUG-CC-PVTZ
  Basis Set: (AUG-CC-PVTZ AUX)
    Blend: AUG-CC-PVTZ-JKFIT
  @DF-RHF Final Energy:  -532.36943457942527
    Total Energy =                       -532.3694345794251603
 Dipole X            :          8.1117453           -6.8446750            1.2670703
 Dipole Y            :         29.9425624          -30.2115807           -0.2690183
 Dipole Z            :       -111.1033660          109.0876210           -2.0157450
 Magnitude           :                                                    2.3960522
  Basis Set: (AUG-CC-PVTZ AUX)
    Blend: AUG-CC-PVTZ-RI
	 Reference Energy          =    -532.3694345794252740 [Eh]
	 Singles Energy            =      -0.0000000000000000 [Eh]
	 Same-Spin Energy          =      -0.4861210247115882 [Eh]
	 Opposite-Spin Energy      =      -1.5243034336513972 [Eh]
	 Correlation Energy        =      -2.0104244583629853 [Eh]
	 Total Energy              =    -534.3798590377882647 [Eh]
	 SCS Total Energy          =    -534.3606390413774534 [Eh]
                               Psi4 1.9 release
    Molecular point group: c1
  Multiplicity = 1
  Basis Set: AUG-CC-PVTZ
    Blend: AUG-CC-PVTZ
  Basis Set: (AUG-CC-PVTZ AUX)
    Blend: AUG-CC-PVTZ-JKFIT
  @DF-RHF Final Energy: -2572.53374096940161
    Total Energy =                      -2572.5337409694020607
  Basis Set: (AUG-CC-PVTZ AUX)
	 Singles Energy            =      -0.0000000000000000 [Eh]
	 Same-Spin Energy          =      -0.0920206212767690 [Eh]
	 Opposite-Spin Energy      =      -0.2141760773294727 [Eh]
	 Correlation Energy        =      -0.3061966986062417 [Eh]
	 Total Energy              =   -2572.8399376680076784 [Eh]
	 SCS Total Energy          =   -2572.8214258026223433 [Eh]
                               Psi4 1.9 release
    Molecular point group: c1

    Geometry (in Bohr), charge = -1, multiplicity = 1:

       Center              X                  Y                   Z               Mass
    ------------   -----------------  -----------------  -----------------  -----------------
         BR           0.000000000000     0.000000000000     0.000000000000    78.918337600000
         O           -3.472381204159     5.075968779153     2.723548881055    15.994914619570
         H           -2.637643821118     5.385745913721     1.060240291319     1.007825032230
         H           -2.357004373678     3.793145206421     3.418756445897     1.007825032230
         O            3.814000223941     1.828869385314     5.194097448981    15.994914619570
         H            2.602740579580     1.918194849538     3.652868946402     1.007825032230
         H            5.459566175085     1.149756617882     4.642771741605     1.007825032230
         O           -1.886662879408     0.182708170440     5.803152399764    15.994914619570
         H           -0.923870095201     0.411045667905     4.201601949534     1.007825032230
         H           -3.527143577549     0.701258467896     5.484162850334     1.007825032230
         O           -6.318433471023     1.204677728266    -1.592768892925    15.994914619570
         H           -6.202910733522     0.603776945714    -3.389443014239     1.007825032230
         H           -5.080634512956     0.519455476270    -0.586892242783     1.007825032230
         O            2.524868745403    -6.169252821501    -1.027549919074    15.994914619570
         H            1.586483663832    -4.896170786946    -1.936328661438     1.007825032230
         H            3.716717123003    -5.422374475210     0.164487431138     1.007825032230
         O           -1.423111171108    -6.100162544628     2.737326874236    15.994914619570
         H            0.108485397410    -6.024409093437     1.856589777848     1.007825032230
         H           -2.424919240901    -4.695942965597     2.197919669533     1.007825032230
         O            5.743072337057     1.035199530430    -2.321018319071    15.994914619570
         H            6.787215941239    -0.588332214091    -2.286124526164     1.007825032230
         H            4.197421875344     0.469203879142    -1.527297441582     1.007825032230

  Charge       = -1
  Multiplicity = 1
  Basis Set: AUG-CC-PVTZ
    Blend: AUG-CC-PVTZ
  Basis Set: (AUG-CC-PVTZ AUX)
    Blend: AUG-CC-PVTZ-JKFIT

    Orbital Energies [Eh]
    ---------------------

    Doubly Occupied:

       1A   -489.821800     2A    -64.962418     3A    -58.316938
       4A    -58.316895     5A    -58.316843     6A    -20.469547
       7A    -20.452273     8A    -20.441650     9A    -20.441281
      10A    -20.440554    11A    -20.421029    12A    -20.414519
      13A     -9.634850    14A     -7.242619    15A     -7.242455
      16A     -7.242004    17A     -2.984364    18A     -2.984334
      19A     -2.983812    20A     -2.983569    21A     -2.983457
      22A     -1.251223    23A     -1.225453    24A     -1.218794
      25A     -1.217513    26A     -1.211279    27A     -1.209298
      28A     -1.195588    29A     -0.804051    30A     -0.630887
      31A     -0.608951    32A     -0.589341    33A     -0.588455
      34A     -0.573789    35A     -0.569645    36A     -0.563790
      37A     -0.478840    38A     -0.467852    39A     -0.464291
      40A     -0.450625    41A     -0.449140    42A     -0.443651
      43A     -0.437000    44A     -0.405853    45A     -0.389445
      46A     -0.389320    47A     -0.377928    48A     -0.376055
      49A     -0.371511    50A     -0.362198    51A     -0.251874
      52A     -0.251274    53A     -0.244316

  @DF-RHF Final Energy: -3104.98058762041546

   => Energetics <=

    Nuclear Repulsion Energy =            690.7155606178043854
    One-Electron Energy =               -5713.0594053031900330
    Two-Electron Energy =                1917.3632570649699574
    Total Energy =                      -3104.9805876204154629
 Dipole X            :          7.8884121           -6.8446750            1.0437372
 Dipole Y            :         29.9875686          -30.2115807           -0.2240121
 Dipole Z            :       -111.6715312          109.0876210           -2.5839102
 Magnitude           :                                                    2.7957397
  Basis Set: (AUG-CC-PVTZ AUX)
    Blend: AUG-CC-PVTZ-RI
	 Reference Energy          =   -3104.9805876204154629 [Eh]
	 Singles Energy            =      -0.0000000000000000 [Eh]
	 Same-Spin Energy          =      -0.5889356697111859 [Eh]
	 Opposite-Spin Energy      =      -1.7457759700934088 [Eh]
	 Correlation Energy        =      -2.3347116398045946 [Eh]
	 Total Energy              =   -3107.3152992602199447 [Eh]

	 ================> DF-SCS-MP2 Energies <==================
	-----------------------------------------------------------
	 SCS Same-Spin Scale       =       0.3333333333333333 [-]
	 SCS Opposite-Spin Scale   =       1.2000000000000000 [-]
	 SCS Same-Spin Energy      =      -0.1963118899037286 [Eh]
	 SCS Opposite-Spin Energy  =      -2.0949311641120905 [Eh]
	 SCS Correlation Energy    =      -2.2912430540158191 [Eh]
	 SCS Total Energy          =   -3107.2718306744313850 [Eh]
	-----------------------------------------------------------

*** Psi4 exiting successfully. Buy a developer a beer!
