                               Psi4 1.8.2 release

  ==> Input File <==

--------------------------------------------------------------------------
MEMORY 60 GB

molecule dimer {
0 1
Gh(Br)     0.000000     0.000000     0.000000
Gh(O)      2.939852    -1.915562    -0.533554
Gh(H)      2.801389    -2.458442     0.258757
Gh(H)      2.150074    -1.360069    -0.546123
Gh(O)     -0.164365    -1.885111     2.805646
Gh(H)     -1.005559    -2.298100     3.035198
Gh(H)     -0.322087    -1.441707     1.915505
O         -2.601132    -1.503362     0.550397
H         -2.065997    -0.913649     0.005071
H         -2.354269    -2.450518     0.300106
Gh(O)     -0.284074    -1.956940    -2.736350
Gh(H)     -0.384603    -1.150899    -3.277467
Gh(H)     -0.378144    -1.636309    -1.835516
Gh(O)      2.821932     0.987818     1.931994
Gh(H)      2.380055     0.594532     2.724836
Gh(H)      2.119721     1.303065     1.324861
Gh(O)     -1.781380     1.694666    -2.572642
Gh(H)     -1.551471     1.421173    -1.702222
Gh(H)     -1.550553     2.618521    -2.578283

units ang
no_reorient
no_com
symmetry c1
}

set {
basis        aug-cc-pVTZ
scf_type     df
}

energy("mp2")
--------------------------------------------------------------------------

    Molecular point group: c1

    Geometry (in Angstrom), charge = 0, multiplicity = 1:

       Center              X                  Y                   Z               Mass
    ------------   -----------------  -----------------  -----------------  -----------------
      Gh(BR)          0.000000000000     0.000000000000     0.000000000000    78.918337600000
      Gh(O)           2.939852000000    -1.915562000000    -0.533554000000    15.994914619570
      Gh(H)           2.801389000000    -2.458442000000     0.258757000000     1.007825032230
      Gh(H)           2.150074000000    -1.360069000000    -0.546123000000     1.007825032230
      Gh(O)          -0.164365000000    -1.885111000000     2.805646000000    15.994914619570
      Gh(H)          -1.005559000000    -2.298100000000     3.035198000000     1.007825032230
      Gh(H)          -0.322087000000    -1.441707000000     1.915505000000     1.007825032230
         O           -2.601132000000    -1.503362000000     0.550397000000    15.994914619570
         H           -2.065997000000    -0.913649000000     0.005071000000     1.007825032230
         H           -2.354269000000    -2.450518000000     0.300106000000     1.007825032230
      Gh(O)          -0.284074000000    -1.956940000000    -2.736350000000    15.994914619570
      Gh(H)          -0.384603000000    -1.150899000000    -3.277467000000     1.007825032230
      Gh(H)          -0.378144000000    -1.636309000000    -1.835516000000     1.007825032230
      Gh(O)           2.821932000000     0.987818000000     1.931994000000    15.994914619570
      Gh(H)           2.380055000000     0.594532000000     2.724836000000     1.007825032230
      Gh(H)           2.119721000000     1.303065000000     1.324861000000     1.007825032230
      Gh(O)          -1.781380000000     1.694666000000    -2.572642000000    15.994914619570
      Gh(H)          -1.551471000000     1.421173000000    -1.702222000000     1.007825032230
      Gh(H)          -1.550553000000     2.618521000000    -2.578283000000     1.007825032230

  Charge       = 0
  Multiplicity = 1
  Basis Set: AUG-CC-PVTZ
    Blend: AUG-CC-PVTZ
  Basis Set: (AUG-CC-PVTZ AUX)
    Blend: AUG-CC-PVTZ-JKFIT

    Orbital Energies [Eh]
    ---------------------

    Doubly Occupied:

       1A    -20.570886     2A     -1.336900     3A     -0.706509
       4A     -0.573479     5A     -0.507069

  @DF-RHF Final Energy:   -76.05601254017023

   => Energetics <=

    Nuclear Repulsion Energy =              8.9091272190883632
    One-Electron Energy =                -122.5405915269744384
    Two-Electron Energy =                  37.5754517677158475
    Total Energy =                        -76.0560125401702294
 Dipole X            :         48.1924665          -47.6765089            0.5159576
 Dipole Y            :         28.8568601          -29.0848938           -0.2280338
 Dipole Z            :         -9.4226436            8.8974977           -0.5251459
 Magnitude           :                                                    0.7707074
  Basis Set: (AUG-CC-PVTZ AUX)
    Blend: AUG-CC-PVTZ-RI
	 Reference Energy          =     -76.0560125401702294 [Eh]
	 Singles Energy            =      -0.0000000000000000 [Eh]
	 Same-Spin Energy          =      -0.0688881220539009 [Eh]
	 Opposite-Spin Energy      =      -0.2174346978484574 [Eh]
	 Correlation Energy        =      -0.2863228199023583 [Eh]
	 Total Energy              =     -76.3423353600725818 [Eh]

	 ================> DF-SCS-MP2 Energies <==================
	-----------------------------------------------------------
	 SCS Same-Spin Scale       =       0.3333333333333333 [-]
	 SCS Opposite-Spin Scale   =       1.2000000000000000 [-]
	 SCS Same-Spin Energy      =      -0.0229627073513003 [Eh]
	 SCS Opposite-Spin Energy  =      -0.2609216374181489 [Eh]
	 SCS Correlation Energy    =      -0.2838843447694492 [Eh]
	 SCS Total Energy          =     -76.3398968849396766 [Eh]
	-----------------------------------------------------------

*** Psi4 exiting successfully. Buy a developer a beer!
