                               Psi4 1.8.2 release

  ==> Input File <==

--------------------------------------------------------------------------
MEMORY 60 GB

molecule dimer {
0 1
Gh(Br)     0.000000     0.000000     0.000000
Gh(O)     -1.240886    -3.182298    -0.315482
Gh(H)     -1.336837    -3.164388     0.618207
Gh(H)     -0.845413    -2.278598    -0.523277
O         -0.972663     2.731075    -1.695096
H         -0.675308     1.871896    -2.024684
H         -1.748117     2.595633    -1.153655
Gh(O)      0.238220    -1.724367     3.124076
Gh(H)      0.205817    -1.206054     2.262866
Gh(H)      1.175013    -1.881560     3.293870
Gh(O)     -2.901260    -1.114093     1.330561
Gh(H)     -2.382813    -1.711812     1.788198
Gh(H)     -2.332582    -0.944358     0.558417
Gh(O)     -2.124030     2.379906     1.059776
Gh(H)     -1.431709     1.833183     0.702258
Gh(H)     -2.285508     2.097630     2.002058
Gh(O)      2.270799    -0.304696    -2.751069
Gh(H)      1.469455     0.170842    -2.962831
Gh(H)      2.050684    -0.944818    -2.039366

units ang
no_reorient
no_com
symmetry c1
}

set {
basis        aug-cc-pVTZ
scf_type     df
}

energy("mp2")
--------------------------------------------------------------------------

    Molecular point group: c1

    Geometry (in Angstrom), charge = 0, multiplicity = 1:

       Center              X                  Y                   Z               Mass
    ------------   -----------------  -----------------  -----------------  -----------------
      Gh(BR)          0.000000000000     0.000000000000     0.000000000000    78.918337600000
      Gh(O)          -1.240886000000    -3.182298000000    -0.315482000000    15.994914619570
      Gh(H)          -1.336837000000    -3.164388000000     0.618207000000     1.007825032230
      Gh(H)          -0.845413000000    -2.278598000000    -0.523277000000     1.007825032230
         O           -0.972663000000     2.731075000000    -1.695096000000    15.994914619570
         H           -0.675308000000     1.871896000000    -2.024684000000     1.007825032230
         H           -1.748117000000     2.595633000000    -1.153655000000     1.007825032230
      Gh(O)           0.238220000000    -1.724367000000     3.124076000000    15.994914619570
      Gh(H)           0.205817000000    -1.206054000000     2.262866000000     1.007825032230
      Gh(H)           1.175013000000    -1.881560000000     3.293870000000     1.007825032230
      Gh(O)          -2.901260000000    -1.114093000000     1.330561000000    15.994914619570
      Gh(H)          -2.382813000000    -1.711812000000     1.788198000000     1.007825032230
      Gh(H)          -2.332582000000    -0.944358000000     0.558417000000     1.007825032230
      Gh(O)          -2.124030000000     2.379906000000     1.059776000000    15.994914619570
      Gh(H)          -1.431709000000     1.833183000000     0.702258000000     1.007825032230
      Gh(H)          -2.285508000000     2.097630000000     2.002058000000     1.007825032230
      Gh(O)           2.270799000000    -0.304696000000    -2.751069000000    15.994914619570
      Gh(H)           1.469455000000     0.170842000000    -2.962831000000     1.007825032230
      Gh(H)           2.050684000000    -0.944818000000    -2.039366000000     1.007825032230

  Charge       = 0
  Multiplicity = 1
  Basis Set: AUG-CC-PVTZ
    Blend: AUG-CC-PVTZ
  Basis Set: (AUG-CC-PVTZ AUX)
    Blend: AUG-CC-PVTZ-JKFIT

    Orbital Energies [Eh]
    ---------------------

    Doubly Occupied:

       1A    -20.565987     2A     -1.348710     3A     -0.723000
       4A     -0.576401     5A     -0.508820

  @DF-RHF Final Energy:   -76.06015280468471

   => Energetics <=

    Nuclear Repulsion Energy =              9.1477104132703104
    One-Electron Energy =                -122.9698856678649008
    Two-Electron Energy =                  37.7620224499098782
    Total Energy =                        -76.0601528046847051
 Dipole X            :         18.9614870          -19.2841430           -0.3226560
 Dipole Y            :        -50.3975735           49.7302765           -0.6672970
 Dipole Z            :         31.7754205          -31.6323278            0.1430927
 Magnitude           :                                                    0.7548958
  Basis Set: (AUG-CC-PVTZ AUX)
    Blend: AUG-CC-PVTZ-RI
	 Reference Energy          =     -76.0601528046847051 [Eh]
	 Singles Energy            =      -0.0000000000000000 [Eh]
	 Same-Spin Energy          =      -0.0684112852286562 [Eh]
	 Opposite-Spin Energy      =      -0.2158045035298728 [Eh]
	 Correlation Energy        =      -0.2842157887585289 [Eh]
	 Total Energy              =     -76.3443685934432352 [Eh]

	 ================> DF-SCS-MP2 Energies <==================
	-----------------------------------------------------------
	 SCS Same-Spin Scale       =       0.3333333333333333 [-]
	 SCS Opposite-Spin Scale   =       1.2000000000000000 [-]
	 SCS Same-Spin Energy      =      -0.0228037617428854 [Eh]
	 SCS Opposite-Spin Energy  =      -0.2589654042358474 [Eh]
	 SCS Correlation Energy    =      -0.2817691659787327 [Eh]
	 SCS Total Energy          =     -76.3419219706634351 [Eh]
	-----------------------------------------------------------

*** Psi4 exiting successfully. Buy a developer a beer!
