                               Psi4 1.8.2 release

  ==> Input File <==

--------------------------------------------------------------------------
MEMORY 60 GB

molecule dimer {
0 1
Gh(Br)     0.000000     0.000000     0.000000
Gh(O)      1.690071    -2.304698    -1.707218
Gh(H)      0.923760    -1.889361    -1.295223
Gh(H)      2.207196    -2.384531    -0.909199
Gh(O)     -2.116359    -2.882091    -0.092047
Gh(H)     -1.511941    -2.175131    -0.067796
Gh(H)     -2.983098    -2.506316    -0.045785
Gh(O)     -1.756879    -0.866651    -2.837326
Gh(H)     -1.528892    -0.222600    -3.499136
Gh(H)     -1.133474    -0.763599    -2.057592
Gh(O)     -0.689909     3.407484     0.493107
Gh(H)     -0.675507     2.563674     0.915122
Gh(H)     -1.403101     3.910690     0.895747
O          1.276028     1.109954    -2.736063
H          0.804335     0.872600    -1.938167
H          1.482357     2.068714    -2.758216
Gh(O)      3.028986    -1.727961     0.695151
Gh(H)      2.515532    -2.183866     1.360892
Gh(H)      2.379498    -1.251815     0.131620

units ang
no_reorient
no_com
symmetry c1
}

set {
basis        aug-cc-pVTZ
scf_type     df
}

energy("mp2")
--------------------------------------------------------------------------

    Molecular point group: c1

    Geometry (in Angstrom), charge = 0, multiplicity = 1:

       Center              X                  Y                   Z               Mass
    ------------   -----------------  -----------------  -----------------  -----------------
      Gh(BR)          0.000000000000     0.000000000000     0.000000000000    78.918337600000
      Gh(O)           1.690071000000    -2.304698000000    -1.707218000000    15.994914619570
      Gh(H)           0.923760000000    -1.889361000000    -1.295223000000     1.007825032230
      Gh(H)           2.207196000000    -2.384531000000    -0.909199000000     1.007825032230
      Gh(O)          -2.116359000000    -2.882091000000    -0.092047000000    15.994914619570
      Gh(H)          -1.511941000000    -2.175131000000    -0.067796000000     1.007825032230
      Gh(H)          -2.983098000000    -2.506316000000    -0.045785000000     1.007825032230
      Gh(O)          -1.756879000000    -0.866651000000    -2.837326000000    15.994914619570
      Gh(H)          -1.528892000000    -0.222600000000    -3.499136000000     1.007825032230
      Gh(H)          -1.133474000000    -0.763599000000    -2.057592000000     1.007825032230
      Gh(O)          -0.689909000000     3.407484000000     0.493107000000    15.994914619570
      Gh(H)          -0.675507000000     2.563674000000     0.915122000000     1.007825032230
      Gh(H)          -1.403101000000     3.910690000000     0.895747000000     1.007825032230
         O            1.276028000000     1.109954000000    -2.736063000000    15.994914619570
         H            0.804335000000     0.872600000000    -1.938167000000     1.007825032230
         H            1.482357000000     2.068714000000    -2.758216000000     1.007825032230
      Gh(O)           3.028986000000    -1.727961000000     0.695151000000    15.994914619570
      Gh(H)           2.515532000000    -2.183866000000     1.360892000000     1.007825032230
      Gh(H)           2.379498000000    -1.251815000000     0.131620000000     1.007825032230

  Charge       = 0
  Multiplicity = 1
  Basis Set: AUG-CC-PVTZ
    Blend: AUG-CC-PVTZ
  Basis Set: (AUG-CC-PVTZ AUX)
    Blend: AUG-CC-PVTZ-JKFIT

    Orbital Energies [Eh]
    ---------------------

    Doubly Occupied:

       1A    -20.565918     2A     -1.343044     3A     -0.723944
       4A     -0.569341     5A     -0.507265

  @DF-RHF Final Energy:   -76.05847817310239

   => Energetics <=

    Nuclear Repulsion Energy =              9.0706861134092733
    One-Electron Energy =                -122.8393019029451523
    Two-Electron Energy =                  37.7101376164334994
    Total Energy =                        -76.0584781731023867
 Dipole X            :        -23.7926349           23.6119692           -0.1806657
 Dipole Y            :        -21.8537090           22.3383505            0.4846415
 Dipole Z            :         50.7638173          -50.2381555            0.5256618
 Magnitude           :                                                    0.7374536
  Basis Set: (AUG-CC-PVTZ AUX)
    Blend: AUG-CC-PVTZ-RI
	 Reference Energy          =     -76.0584781731023867 [Eh]
	 Singles Energy            =      -0.0000000000000000 [Eh]
	 Same-Spin Energy          =      -0.0685238147080962 [Eh]
	 Opposite-Spin Energy      =      -0.2162719970790173 [Eh]
	 Correlation Energy        =      -0.2847958117871135 [Eh]
	 Total Energy              =     -76.3432739848895068 [Eh]

	 ================> DF-SCS-MP2 Energies <==================
	-----------------------------------------------------------
	 SCS Same-Spin Scale       =       0.3333333333333333 [-]
	 SCS Opposite-Spin Scale   =       1.2000000000000000 [-]
	 SCS Same-Spin Energy      =      -0.0228412715693654 [Eh]
	 SCS Opposite-Spin Energy  =      -0.2595263964948208 [Eh]
	 SCS Correlation Energy    =      -0.2823676680641862 [Eh]
	 SCS Total Energy          =     -76.3408458411665691 [Eh]
	-----------------------------------------------------------

*** Psi4 exiting successfully. Buy a developer a beer!
