                               Psi4 1.8.2 release

  ==> Input File <==

--------------------------------------------------------------------------
MEMORY 60 GB

molecule dimer {
-1 1
Br         0.000000     0.000000     0.000000
Gh(O)     -2.114396    -0.823968    -2.451740
Gh(H)     -1.344934    -0.815549    -1.892709
Gh(H)     -2.578301    -1.686826    -2.349784
Gh(O)     -2.840106    -0.818403     1.694288
Gh(H)     -2.923211    -1.709126     1.352216
Gh(H)     -1.976154    -0.530056     1.405183
Gh(O)      0.359761    -1.678973     2.757291
Gh(H)      0.155656    -1.071042     3.436648
Gh(H)      0.309349    -1.206416     1.893897
Gh(O)     -0.002582    -3.436636     0.122679
Gh(H)     -0.128662    -2.474547     0.122748
Gh(H)      0.840782    -3.640659    -0.311875
Gh(O)      3.119434    -1.374833    -0.676470
Gh(H)      2.298457    -1.110581    -0.190519
Gh(H)      3.320939    -2.236567    -0.244513

units ang
no_reorient
no_com
symmetry c1
}

set {
basis        aug-cc-pVTZ
scf_type     df
}

energy("mp2")
--------------------------------------------------------------------------

    Molecular point group: c1

    Geometry (in Angstrom), charge = -1, multiplicity = 1:

       Center              X                  Y                   Z               Mass
    ------------   -----------------  -----------------  -----------------  -----------------
         BR           0.000000000000     0.000000000000     0.000000000000    78.918337600000
      Gh(O)          -2.114396000000    -0.823968000000    -2.451740000000    15.994914619570
      Gh(H)          -1.344934000000    -0.815549000000    -1.892709000000     1.007825032230
      Gh(H)          -2.578301000000    -1.686826000000    -2.349784000000     1.007825032230
      Gh(O)          -2.840106000000    -0.818403000000     1.694288000000    15.994914619570
      Gh(H)          -2.923211000000    -1.709126000000     1.352216000000     1.007825032230
      Gh(H)          -1.976154000000    -0.530056000000     1.405183000000     1.007825032230
      Gh(O)           0.359761000000    -1.678973000000     2.757291000000    15.994914619570
      Gh(H)           0.155656000000    -1.071042000000     3.436648000000     1.007825032230
      Gh(H)           0.309349000000    -1.206416000000     1.893897000000     1.007825032230
      Gh(O)          -0.002582000000    -3.436636000000     0.122679000000    15.994914619570
      Gh(H)          -0.128662000000    -2.474547000000     0.122748000000     1.007825032230
      Gh(H)           0.840782000000    -3.640659000000    -0.311875000000     1.007825032230
      Gh(O)           3.119434000000    -1.374833000000    -0.676470000000    15.994914619570
      Gh(H)           2.298457000000    -1.110581000000    -0.190519000000     1.007825032230
      Gh(H)           3.320939000000    -2.236567000000    -0.244513000000     1.007825032230

  Charge       = -1
  Multiplicity = 1
  Basis Set: AUG-CC-PVTZ
    Blend: AUG-CC-PVTZ
  Basis Set: (AUG-CC-PVTZ AUX)
    Blend: AUG-CC-PVTZ-JKFIT

    Orbital Energies [Eh]
    ---------------------

    Doubly Occupied:

       1A   -489.722309     2A    -64.861866     3A    -58.216405
       4A    -58.216404     5A    -58.216402     6A     -9.533314
       7A     -7.140647     8A     -7.140637     9A     -7.140631
      10A     -2.882363    11A     -2.882351    12A     -2.882343
      13A     -2.882331    14A     -2.882318    15A     -0.685991
      16A     -0.139336    17A     -0.139334    18A     -0.139331

  @DF-RHF Final Energy: -2572.53373260521948

   => Energetics <=

    Nuclear Repulsion Energy =              0.0000000000000000
    One-Electron Energy =               -3593.6588381766878229
    Two-Electron Energy =                1021.1251055714683389
    Total Energy =                      -2572.5337326052194840
 Dipole X            :          0.0000705            0.0000000            0.0000705
 Dipole Y            :         -0.0002540            0.0000000           -0.0002540
 Dipole Z            :         -0.0000273            0.0000000           -0.0000273
 Magnitude           :                                                    0.0002650
  Basis Set: (AUG-CC-PVTZ AUX)
    Blend: AUG-CC-PVTZ-RI
	 Reference Energy          =   -2572.5337326052194840 [Eh]
	 Singles Energy            =      -0.0000000000000000 [Eh]
	 Same-Spin Energy          =      -0.0916190361844393 [Eh]
	 Opposite-Spin Energy      =      -0.2133848957813587 [Eh]
	 Correlation Energy        =      -0.3050039319657980 [Eh]
	 Total Energy              =   -2572.8387365371854685 [Eh]

	 ================> DF-SCS-MP2 Energies <==================
	-----------------------------------------------------------
	 SCS Same-Spin Scale       =       0.3333333333333333 [-]
	 SCS Opposite-Spin Scale   =       1.2000000000000000 [-]
	 SCS Same-Spin Energy      =      -0.0305396787281464 [Eh]
	 SCS Opposite-Spin Energy  =      -0.2560618749376304 [Eh]
	 SCS Correlation Energy    =      -0.2866015536657768 [Eh]
	 SCS Total Energy          =   -2572.8203341588850890 [Eh]
	-----------------------------------------------------------

*** Psi4 exiting successfully. Buy a developer a beer!
