                               Psi4 1.9 release

  ==> Input File <==

--------------------------------------------------------------------------
MEMORY 60 GB

molecule dimer {
-1 1
Br     0.000000     0.000000     0.000000
--
0 1
O      0.827585    -0.673228     3.345565
H      1.608849    -1.256143     3.487856
H      0.809009    -0.281301     2.433452
O     -0.064610     2.592766     1.902330
H     -0.769192     3.247236     1.817366
H     -0.304759     1.892666     1.320770
O      2.158632    -2.165332    -1.610499
H      1.952538    -1.333555    -1.224842
H      3.138913    -2.262052    -1.619831
O      3.156044     1.337992    -0.732851
H      3.306466     0.506097    -0.217667
H      2.230436     1.255178    -0.739111

units ang
no_reorient
no_com
symmetry c1
}

set {
basis        aug-cc-pVTZ
scf_type     df
}

energy("mp2", bsse_type="cp")
--------------------------------------------------------------------------

                               Psi4 1.9 release
    Molecular point group: c1
  Charge       = 0
  Multiplicity = 1
  Basis Set: AUG-CC-PVTZ
    Blend: AUG-CC-PVTZ
  Basis Set: (AUG-CC-PVTZ AUX)
    Blend: AUG-CC-PVTZ-JKFIT
  @DF-RHF Final Energy:  -304.22324396675367
    Total Energy =                       -304.2232439667536710
 Dipole X            :       -114.6073899          114.5050595           -0.1023304
 Dipole Y            :        -20.0288186           19.8529147           -0.1759039
 Dipole Z            :        -54.1973334           53.8465233           -0.3508101
 Magnitude           :                                                    0.4055631
  Basis Set: (AUG-CC-PVTZ AUX)
    Blend: AUG-CC-PVTZ-RI
	 Reference Energy          =    -304.2232439667536710 [Eh]
	 Singles Energy            =      -0.0000000000000000 [Eh]
	 Same-Spin Energy          =      -0.2751348489574476 [Eh]
	 Opposite-Spin Energy      =      -0.8658051480250540 [Eh]
	 Correlation Energy        =      -1.1409399969825016 [Eh]
	 Total Energy              =    -305.3641839637361954 [Eh]
	 SCS Total Energy          =    -305.3539217607028604 [Eh]
                               Psi4 1.9 release
    Molecular point group: c1
  Multiplicity = 1
  Basis Set: AUG-CC-PVTZ
    Blend: AUG-CC-PVTZ
  Basis Set: (AUG-CC-PVTZ AUX)
    Blend: AUG-CC-PVTZ-JKFIT
  @DF-RHF Final Energy: -2572.53371775969981
    Total Energy =                      -2572.5337177596998117
  Basis Set: (AUG-CC-PVTZ AUX)
	 Singles Energy            =      -0.0000000000000000 [Eh]
	 Same-Spin Energy          =      -0.0902392877316813 [Eh]
	 Opposite-Spin Energy      =      -0.2098768628577816 [Eh]
	 Correlation Energy        =      -0.3001161505894628 [Eh]
	 Total Energy              =   -2572.8338339102892860 [Eh]
	 SCS Total Energy          =   -2572.8156497577065238 [Eh]
                               Psi4 1.9 release
    Molecular point group: c1

    Geometry (in Bohr), charge = -1, multiplicity = 1:

       Center              X                  Y                   Z               Mass
    ------------   -----------------  -----------------  -----------------  -----------------
         BR           0.000000000000     0.000000000000     0.000000000000    78.918337600000
         O            1.563908995537    -1.272216539990     6.322201584917    15.994914619570
         H            3.040283987217    -2.373766244411     6.591092605035     1.007825032230
         H            1.528805443031    -0.531581848817     4.598557819448     1.007825032230
         O           -0.122095204966     4.899617647399     3.594882700242    15.994914619570
         H           -1.453562217893     6.136386704727     3.434324009719     1.007825032230
         H           -0.575911044268     3.576620386966     2.495893574721     1.007825032230
         O            4.079223285649    -4.091884450690    -3.043402035324    15.994914619570
         H            3.689762069549    -2.520053723235    -2.314615926958     1.007825032230
         H            5.931685901639    -4.274658761544    -3.061036959526     1.007825032230
         O            5.964058799894     2.528438438054    -1.384887680768    15.994914619570
         H            6.248315183138     0.956384722916    -0.411331016550     1.007825032230
         H            4.214913180362     2.371942658700    -1.396717366313     1.007825032230

  Charge       = -1
  Multiplicity = 1
  Basis Set: AUG-CC-PVTZ
    Blend: AUG-CC-PVTZ
  Basis Set: (AUG-CC-PVTZ AUX)
    Blend: AUG-CC-PVTZ-JKFIT

    Orbital Energies [Eh]
    ---------------------

    Doubly Occupied:

       1A   -489.777204     2A    -64.917583     3A    -58.272103
       4A    -58.272069     5A    -58.272036     6A    -20.432594
       7A    -20.428309     8A    -20.417563     9A    -20.407402
      10A     -9.589922    11A     -7.197555    12A     -7.197375
      13A     -7.197238    14A     -2.939221    15A     -2.939180
      16A     -2.938992    17A     -2.938769    18A     -2.938739
      19A     -1.219898    20A     -1.215793    21A     -1.200051
      22A     -1.183724    23A     -0.754394    24A     -0.588879
      25A     -0.569037    26A     -0.564248    27A     -0.556722
      28A     -0.468664    29A     -0.445209    30A     -0.432140
      31A     -0.417955    32A     -0.377262    33A     -0.372778
      34A     -0.357507    35A     -0.355097    36A     -0.206358
      37A     -0.202860    38A     -0.200584

  @DF-RHF Final Energy: -2876.80173563602602

   => Energetics <=

    Nuclear Repulsion Energy =            329.0547658819847356
    One-Electron Energy =               -4674.1869653111925800
    Two-Electron Energy =                1468.3304637931817069
    Total Energy =                      -2876.8017356360260237
 Dipole X            :       -115.2450545          114.5050595           -0.7399950
 Dipole Y            :        -20.3040103           19.8529147           -0.4510957
 Dipole Z            :        -54.5524507           53.8465233           -0.7059274
 Magnitude           :                                                    1.1177716
  Basis Set: (AUG-CC-PVTZ AUX)
    Blend: AUG-CC-PVTZ-RI
	 Reference Energy          =   -2876.8017356360260237 [Eh]
	 Singles Energy            =      -0.0000000000000000 [Eh]
	 Same-Spin Energy          =      -0.3727817615467828 [Eh]
	 Opposite-Spin Energy      =      -1.0815956972381668 [Eh]
	 Correlation Energy        =      -1.4543774587849496 [Eh]
	 Total Energy              =   -2878.2561130948110986 [Eh]

	 ================> DF-SCS-MP2 Energies <==================
	-----------------------------------------------------------
	 SCS Same-Spin Scale       =       0.3333333333333333 [-]
	 SCS Opposite-Spin Scale   =       1.2000000000000000 [-]
	 SCS Same-Spin Energy      =      -0.1242605871822609 [Eh]
	 SCS Opposite-Spin Energy  =      -1.2979148366858002 [Eh]
	 SCS Correlation Energy    =      -1.4221754238680611 [Eh]
	 SCS Total Energy          =   -2878.2239110598939078 [Eh]
	-----------------------------------------------------------

*** Psi4 exiting successfully. Buy a developer a beer!
