                               Psi4 1.8.2 release

  ==> Input File <==

--------------------------------------------------------------------------
MEMORY 60 GB

molecule dimer {
0 1
Gh(Br)     0.000000     0.000000     0.000000
O          2.794095    -1.387479     0.567346
H          1.955440    -0.895211     0.196524
H          3.481853    -0.702595     0.669128
Gh(O)      2.335776     1.864406     0.831723
Gh(H)      1.699945     1.187957     0.609791
Gh(H)      1.817179     2.598588     1.156693
Gh(O)     -0.357779     0.030054     3.245802
Gh(H)     -0.127128     0.352128     2.389975
Gh(H)     -0.011989     0.692795     3.899278

units ang
no_reorient
no_com
symmetry c1
}

set {
basis        aug-cc-pVTZ
scf_type     df
}

energy("mp2")
--------------------------------------------------------------------------

    Molecular point group: c1

    Geometry (in Angstrom), charge = 0, multiplicity = 1:

       Center              X                  Y                   Z               Mass
    ------------   -----------------  -----------------  -----------------  -----------------
      Gh(BR)          0.000000000000     0.000000000000     0.000000000000    78.918337600000
         O            2.794095000000    -1.387479000000     0.567346000000    15.994914619570
         H            1.955440000000    -0.895211000000     0.196524000000     1.007825032230
         H            3.481853000000    -0.702595000000     0.669128000000     1.007825032230
      Gh(O)           2.335776000000     1.864406000000     0.831723000000    15.994914619570
      Gh(H)           1.699945000000     1.187957000000     0.609791000000     1.007825032230
      Gh(H)           1.817179000000     2.598588000000     1.156693000000     1.007825032230
      Gh(O)          -0.357779000000     0.030054000000     3.245802000000    15.994914619570
      Gh(H)          -0.127128000000     0.352128000000     2.389975000000     1.007825032230
      Gh(H)          -0.011989000000     0.692795000000     3.899278000000     1.007825032230

  Charge       = 0
  Multiplicity = 1
  Basis Set: AUG-CC-PVTZ
    Blend: AUG-CC-PVTZ
  Basis Set: (AUG-CC-PVTZ AUX)
    Blend: AUG-CC-PVTZ-JKFIT

    Orbital Energies [Eh]
    ---------------------

    Doubly Occupied:

       1A    -20.574943     2A     -1.328762     3A     -0.693441
       4A     -0.572116     5A     -0.506068

  @DF-RHF Final Energy:   -76.05115888600508

   => Energetics <=

    Nuclear Repulsion Energy =              8.7342510512977523
    One-Electron Energy =                -122.2201544110827029
    Two-Electron Energy =                  37.4347444737798796
    Total Energy =                        -76.0511588860050836
 Dipole X            :        -52.6034110           52.5155892           -0.0878219
 Dipole Y            :         24.7583125          -23.9950583            0.7632542
 Dipole Z            :        -10.3842622           10.2128737           -0.1713886
 Magnitude           :                                                    0.7871745
  Basis Set: (AUG-CC-PVTZ AUX)
    Blend: AUG-CC-PVTZ-RI
	 Reference Energy          =     -76.0511588860050836 [Eh]
	 Singles Energy            =      -0.0000000000000000 [Eh]
	 Same-Spin Energy          =      -0.0692408679337470 [Eh]
	 Opposite-Spin Energy      =      -0.2185192053166649 [Eh]
	 Correlation Energy        =      -0.2877600732504119 [Eh]
	 Total Energy              =     -76.3389189592554942 [Eh]

	 ================> DF-SCS-MP2 Energies <==================
	-----------------------------------------------------------
	 SCS Same-Spin Scale       =       0.3333333333333333 [-]
	 SCS Opposite-Spin Scale   =       1.2000000000000000 [-]
	 SCS Same-Spin Energy      =      -0.0230802893112490 [Eh]
	 SCS Opposite-Spin Energy  =      -0.2622230463799978 [Eh]
	 SCS Correlation Energy    =      -0.2853033356912468 [Eh]
	 SCS Total Energy          =     -76.3364622216963369 [Eh]
	-----------------------------------------------------------

*** Psi4 exiting successfully. Buy a developer a beer!
