                               Psi4 1.8.2 release

  ==> Input File <==

--------------------------------------------------------------------------
MEMORY 60 GB

molecule dimer {
-1 1
Br         0.000000     0.000000     0.000000
O         -0.999022    -2.679634    -1.724013
H         -0.678718    -2.037465    -1.171070
H         -1.864558    -2.807700    -1.354503
O          2.580843    -1.796834    -1.300260
H          2.444330    -2.737774    -1.082597
H          1.984606    -1.292710    -0.800320
O          0.716653    -2.040909     2.401316
H          0.606530    -1.564525     1.571865
H          0.320539    -1.488156     3.042768

units ang
no_reorient
no_com
symmetry c1
}

set {
basis        aug-cc-pVTZ
scf_type     df
}

energy("mp2")
--------------------------------------------------------------------------

    Molecular point group: c1

    Geometry (in Angstrom), charge = -1, multiplicity = 1:

       Center              X                  Y                   Z               Mass
    ------------   -----------------  -----------------  -----------------  -----------------
         BR           0.000000000000     0.000000000000     0.000000000000    78.918337600000
         O           -0.999022000000    -2.679634000000    -1.724013000000    15.994914619570
         H           -0.678718000000    -2.037465000000    -1.171070000000     1.007825032230
         H           -1.864558000000    -2.807700000000    -1.354503000000     1.007825032230
         O            2.580843000000    -1.796834000000    -1.300260000000    15.994914619570
         H            2.444330000000    -2.737774000000    -1.082597000000     1.007825032230
         H            1.984606000000    -1.292710000000    -0.800320000000     1.007825032230
         O            0.716653000000    -2.040909000000     2.401316000000    15.994914619570
         H            0.606530000000    -1.564525000000     1.571865000000     1.007825032230
         H            0.320539000000    -1.488156000000     3.042768000000     1.007825032230

  Charge       = -1
  Multiplicity = 1
  Basis Set: AUG-CC-PVTZ
    Blend: AUG-CC-PVTZ
  Basis Set: (AUG-CC-PVTZ AUX)
    Blend: AUG-CC-PVTZ-JKFIT

    Orbital Energies [Eh]
    ---------------------

    Doubly Occupied:

       1A   -489.770915     2A    -64.911354     3A    -58.265853
       4A    -58.265835     5A    -58.265809     6A    -20.407029
       7A    -20.403606     8A    -20.401340     9A     -9.583800
      10A     -7.191443    11A     -7.191218    12A     -7.191140
      13A     -2.933072    14A     -2.933016    15A     -2.932896
      16A     -2.932651    17A     -2.932638    18A     -1.218844
      19A     -1.198865    20A     -1.195942    21A     -0.748885
      22A     -0.572770    23A     -0.570860    24A     -0.564713
      25A     -0.449075    26A     -0.433705    27A     -0.424349
      28A     -0.361560    29A     -0.353239    30A     -0.351857
      31A     -0.200060    32A     -0.195827    33A     -0.194909

  @DF-RHF Final Energy: -2800.74767031960573

   => Energetics <=

    Nuclear Repulsion Energy =            239.6837746300271590
    One-Electron Energy =               -4389.7647344469023665
    Two-Electron Energy =                1349.3332894972695613
    Total Energy =                      -2800.7476703196057315
 Dipole X            :        -41.4524880           40.0631784           -1.3893096
 Dipole Y            :        122.5689054         -121.0697375            1.4991679
 Dipole Z            :          9.8720904           -9.0281911            0.8438992
 Magnitude           :                                                    2.2113008
  Basis Set: (AUG-CC-PVTZ AUX)
    Blend: AUG-CC-PVTZ-RI
	 Reference Energy          =   -2800.7476703196057315 [Eh]
	 Singles Energy            =      -0.0000000000000000 [Eh]
	 Same-Spin Energy          =      -0.3013292299400257 [Eh]
	 Opposite-Spin Energy      =      -0.8600482116320526 [Eh]
	 Correlation Energy        =      -1.1613774415720783 [Eh]
	 Total Energy              =   -2801.9090477611775896 [Eh]

	 ================> DF-SCS-MP2 Energies <==================
	-----------------------------------------------------------
	 SCS Same-Spin Scale       =       0.3333333333333333 [-]
	 SCS Opposite-Spin Scale   =       1.2000000000000000 [-]
	 SCS Same-Spin Energy      =      -0.1004430766466752 [Eh]
	 SCS Opposite-Spin Energy  =      -1.0320578539584631 [Eh]
	 SCS Correlation Energy    =      -1.1325009306051383 [Eh]
	 SCS Total Energy          =   -2801.8801712502108785 [Eh]
	-----------------------------------------------------------

*** Psi4 exiting successfully. Buy a developer a beer!
