                               Psi4 1.8.2 release

  ==> Input File <==

--------------------------------------------------------------------------
MEMORY 60 GB

molecule dimer {
-1 1
Br         0.000000     0.000000     0.000000
O          2.325004    -1.298634    -2.213133
H          2.857483    -1.255111    -1.413986
H          2.313941    -0.417505    -2.644260
O         -1.248098     0.645875    -3.275602
H         -0.485089     1.037878    -2.846501
H         -1.311819    -0.293005    -2.968019
O         -3.258963    -0.749716     1.164907
H         -2.392241    -0.545925     0.838651
H         -3.799812    -0.010076     0.950904
O         -1.050932     1.717097     2.665447
H         -0.953034     1.208500     1.826221
H         -1.159093     2.719158     2.537031
O          0.684386     2.811876    -1.890060
H          1.381221     2.308150    -2.327268
H          0.564161     2.487954    -0.988929

units ang
no_reorient
no_com
symmetry c1
}

set {
basis        aug-cc-pVTZ
scf_type     df
}

energy("mp2")
--------------------------------------------------------------------------

    Molecular point group: c1

    Geometry (in Angstrom), charge = -1, multiplicity = 1:

       Center              X                  Y                   Z               Mass
    ------------   -----------------  -----------------  -----------------  -----------------
         BR           0.000000000000     0.000000000000     0.000000000000    78.918337600000
         O            2.325004000000    -1.298634000000    -2.213133000000    15.994914619570
         H            2.857483000000    -1.255111000000    -1.413986000000     1.007825032230
         H            2.313941000000    -0.417505000000    -2.644260000000     1.007825032230
         O           -1.248098000000     0.645875000000    -3.275602000000    15.994914619570
         H           -0.485089000000     1.037878000000    -2.846501000000     1.007825032230
         H           -1.311819000000    -0.293005000000    -2.968019000000     1.007825032230
         O           -3.258963000000    -0.749716000000     1.164907000000    15.994914619570
         H           -2.392241000000    -0.545925000000     0.838651000000     1.007825032230
         H           -3.799812000000    -0.010076000000     0.950904000000     1.007825032230
         O           -1.050932000000     1.717097000000     2.665447000000    15.994914619570
         H           -0.953034000000     1.208500000000     1.826221000000     1.007825032230
         H           -1.159093000000     2.719158000000     2.537031000000     1.007825032230
         O            0.684386000000     2.811876000000    -1.890060000000    15.994914619570
         H            1.381221000000     2.308150000000    -2.327268000000     1.007825032230
         H            0.564161000000     2.487954000000    -0.988929000000     1.007825032230

  Charge       = -1
  Multiplicity = 1
  Basis Set: AUG-CC-PVTZ
    Blend: AUG-CC-PVTZ
  Basis Set: (AUG-CC-PVTZ AUX)
    Blend: AUG-CC-PVTZ-JKFIT

    Orbital Energies [Eh]
    ---------------------

    Doubly Occupied:

       1A   -489.775593     2A    -64.915952     3A    -58.270467
       4A    -58.270445     5A    -58.270398     6A    -20.450631
       7A    -20.444553     8A    -20.420066     9A    -20.416299
      10A    -20.413557    11A     -9.588277    12A     -7.195919
      13A     -7.195764    14A     -7.195517    15A     -2.937623
      16A     -2.937601    17A     -2.937294    18A     -2.937095
      19A     -2.937033    20A     -1.227785    21A     -1.227084
      22A     -1.210627    23A     -1.195919    24A     -1.176209
      25A     -0.751770    26A     -0.605335    27A     -0.603174
      28A     -0.580290    29A     -0.568709    30A     -0.561679
      31A     -0.458989    32A     -0.456260    33A     -0.439640
      34A     -0.434433    35A     -0.411949    36A     -0.392425
      37A     -0.389985    38A     -0.365041    39A     -0.362582
      40A     -0.352854    41A     -0.204264    42A     -0.200573
      43A     -0.197902

  @DF-RHF Final Energy: -2952.86013946022740

   => Energetics <=

    Nuclear Repulsion Energy =            429.7055512126636927
    One-Electron Energy =               -4981.3602450633206900
    Two-Electron Energy =                1598.7945543904295391
    Total Energy =                      -2952.8601394602274013
 Dipole X            :         45.9209311          -44.1687690            1.7521621
 Dipole Y            :        -60.7420618           60.9474508            0.2053890
 Dipole Z            :         67.0045025          -66.9410611            0.0634414
 Magnitude           :                                                    1.7652993
  Basis Set: (AUG-CC-PVTZ AUX)
    Blend: AUG-CC-PVTZ-RI
	 Reference Energy          =   -2952.8601394602274013 [Eh]
	 Singles Energy            =      -0.0000000000000000 [Eh]
	 Same-Spin Energy          =      -0.4421182746147504 [Eh]
	 Opposite-Spin Energy      =      -1.2984623669187465 [Eh]
	 Correlation Energy        =      -1.7405806415334970 [Eh]
	 Total Energy              =   -2954.6007201017609987 [Eh]

	 ================> DF-SCS-MP2 Energies <==================
	-----------------------------------------------------------
	 SCS Same-Spin Scale       =       0.3333333333333333 [-]
	 SCS Opposite-Spin Scale   =       1.2000000000000000 [-]
	 SCS Same-Spin Energy      =      -0.1473727582049168 [Eh]
	 SCS Opposite-Spin Energy  =      -1.5581548403024958 [Eh]
	 SCS Correlation Energy    =      -1.7055275985074125 [Eh]
	 SCS Total Energy          =   -2954.5656670587350163 [Eh]
	-----------------------------------------------------------

*** Psi4 exiting successfully. Buy a developer a beer!
