                               Psi4 1.8.2 release

  ==> Input File <==

--------------------------------------------------------------------------
MEMORY 60 GB

molecule dimer {
-1 1
Br         0.000000     0.000000     0.000000
O         -0.532809     1.922738    -2.739100
H         -0.280531     1.490316    -1.875736
H         -0.953311     1.232509    -3.332771
O         -1.825040     1.989986     2.364796
H         -1.476176     1.902850     3.256188
H         -1.117718     1.930523     1.713505
O          1.897897    -0.527032    -2.560802
H          2.254682     0.294757    -2.824082
H          1.284234    -0.440483    -1.819197
O         -3.381797     0.146011    -0.729659
H         -3.647086     0.178508     0.207781
H         -2.420093     0.129388    -0.713625
O         -1.303184    -2.414765    -1.874233
H         -0.735005    -2.478283    -2.608129
H         -1.009543    -1.639149    -1.422000

units ang
no_reorient
no_com
symmetry c1
}

set {
basis        aug-cc-pVTZ
scf_type     df
}

energy("mp2")
--------------------------------------------------------------------------

    Molecular point group: c1

    Geometry (in Angstrom), charge = -1, multiplicity = 1:

       Center              X                  Y                   Z               Mass
    ------------   -----------------  -----------------  -----------------  -----------------
         BR           0.000000000000     0.000000000000     0.000000000000    78.918337600000
         O           -0.532809000000     1.922738000000    -2.739100000000    15.994914619570
         H           -0.280531000000     1.490316000000    -1.875736000000     1.007825032230
         H           -0.953311000000     1.232509000000    -3.332771000000     1.007825032230
         O           -1.825040000000     1.989986000000     2.364796000000    15.994914619570
         H           -1.476176000000     1.902850000000     3.256188000000     1.007825032230
         H           -1.117718000000     1.930523000000     1.713505000000     1.007825032230
         O            1.897897000000    -0.527032000000    -2.560802000000    15.994914619570
         H            2.254682000000     0.294757000000    -2.824082000000     1.007825032230
         H            1.284234000000    -0.440483000000    -1.819197000000     1.007825032230
         O           -3.381797000000     0.146011000000    -0.729659000000    15.994914619570
         H           -3.647086000000     0.178508000000     0.207781000000     1.007825032230
         H           -2.420093000000     0.129388000000    -0.713625000000     1.007825032230
         O           -1.303184000000    -2.414765000000    -1.874233000000    15.994914619570
         H           -0.735005000000    -2.478283000000    -2.608129000000     1.007825032230
         H           -1.009543000000    -1.639149000000    -1.422000000000     1.007825032230

  Charge       = -1
  Multiplicity = 1
  Basis Set: AUG-CC-PVTZ
    Blend: AUG-CC-PVTZ
  Basis Set: (AUG-CC-PVTZ AUX)
    Blend: AUG-CC-PVTZ-JKFIT

    Orbital Energies [Eh]
    ---------------------

    Doubly Occupied:

       1A   -489.800897     2A    -64.941492     3A    -58.295982
       4A    -58.295970     5A    -58.295940     6A    -20.442652
       7A    -20.422888     8A    -20.412324     9A    -20.411966
      10A    -20.409602    11A     -9.613950    12A     -7.221618
      13A     -7.221391    14A     -7.221338    15A     -2.963201
      16A     -2.963146    17A     -2.963060    18A     -2.962815
      19A     -2.962800    20A     -1.225358    21A     -1.214001
      22A     -1.207019    23A     -1.194000    24A     -1.184541
      25A     -0.783438    26A     -0.605496    27A     -0.592857
      28A     -0.579735    29A     -0.559928    30A     -0.558300
      31A     -0.453085    32A     -0.443172    33A     -0.434752
      34A     -0.432609    35A     -0.426763    36A     -0.387729
      37A     -0.368165    38A     -0.363487    39A     -0.357550
      40A     -0.354005    41A     -0.231265    42A     -0.227315
      43A     -0.226622

  @DF-RHF Final Energy: -2952.87848841688719

   => Energetics <=

    Nuclear Repulsion Energy =            447.8542712572496498
    One-Electron Energy =               -5016.9970538642128304
    Two-Electron Energy =                1616.2642941900755886
    Total Energy =                      -2952.8784884168871940
 Dipole X            :         94.8588969          -93.0879297            1.7709672
 Dipole Y            :        -21.6377306           21.8007121            0.1629814
 Dipole Z            :        103.4062866         -101.5350792            1.8712074
 Magnitude           :                                                    2.5815315
  Basis Set: (AUG-CC-PVTZ AUX)
    Blend: AUG-CC-PVTZ-RI
	 Reference Energy          =   -2952.8784884168871940 [Eh]
	 Singles Energy            =      -0.0000000000000000 [Eh]
	 Same-Spin Energy          =      -0.4453481520187268 [Eh]
	 Opposite-Spin Energy      =      -1.3024974087147443 [Eh]
	 Correlation Energy        =      -1.7478455607334711 [Eh]
	 Total Energy              =   -2954.6263339776205612 [Eh]

	 ================> DF-SCS-MP2 Energies <==================
	-----------------------------------------------------------
	 SCS Same-Spin Scale       =       0.3333333333333333 [-]
	 SCS Opposite-Spin Scale   =       1.2000000000000000 [-]
	 SCS Same-Spin Energy      =      -0.1484493840062422 [Eh]
	 SCS Opposite-Spin Energy  =      -1.5629968904576932 [Eh]
	 SCS Correlation Energy    =      -1.7114462744639354 [Eh]
	 SCS Total Energy          =   -2954.5899346913511181 [Eh]
	-----------------------------------------------------------

*** Psi4 exiting successfully. Buy a developer a beer!
