                               Psi4 1.8.2 release

  ==> Input File <==

--------------------------------------------------------------------------
MEMORY 60 GB

molecule dimer {
0 1
Gh(Br)     0.000000     0.000000     0.000000
Gh(O)      1.214755     2.032402     2.352565
Gh(H)      0.843379     1.290858     1.788319
Gh(H)      2.176535     2.115299     2.233161
Gh(O)     -1.899098     2.893105     0.263373
Gh(H)     -2.377616     3.120026    -0.530168
Gh(H)     -1.651951     1.952131     0.230723
O          1.184394     2.722133    -1.786102
H          0.888960     1.954533    -1.303810
H          0.985690     3.441294    -1.194986
Gh(O)     -3.316529    -1.099441    -0.081057
Gh(H)     -2.506499    -0.600404    -0.183707
Gh(H)     -3.485828    -1.108557     0.900656

units ang
no_reorient
no_com
symmetry c1
}

set {
basis        aug-cc-pVTZ
scf_type     df
}

energy("mp2")
--------------------------------------------------------------------------

    Molecular point group: c1

    Geometry (in Angstrom), charge = 0, multiplicity = 1:

       Center              X                  Y                   Z               Mass
    ------------   -----------------  -----------------  -----------------  -----------------
      Gh(BR)          0.000000000000     0.000000000000     0.000000000000    78.918337600000
      Gh(O)           1.214755000000     2.032402000000     2.352565000000    15.994914619570
      Gh(H)           0.843379000000     1.290858000000     1.788319000000     1.007825032230
      Gh(H)           2.176535000000     2.115299000000     2.233161000000     1.007825032230
      Gh(O)          -1.899098000000     2.893105000000     0.263373000000    15.994914619570
      Gh(H)          -2.377616000000     3.120026000000    -0.530168000000     1.007825032230
      Gh(H)          -1.651951000000     1.952131000000     0.230723000000     1.007825032230
         O            1.184394000000     2.722133000000    -1.786102000000    15.994914619570
         H            0.888960000000     1.954533000000    -1.303810000000     1.007825032230
         H            0.985690000000     3.441294000000    -1.194986000000     1.007825032230
      Gh(O)          -3.316529000000    -1.099441000000    -0.081057000000    15.994914619570
      Gh(H)          -2.506499000000    -0.600404000000    -0.183707000000     1.007825032230
      Gh(H)          -3.485828000000    -1.108557000000     0.900656000000     1.007825032230

  Charge       = 0
  Multiplicity = 1
  Basis Set: AUG-CC-PVTZ
    Blend: AUG-CC-PVTZ
  Basis Set: (AUG-CC-PVTZ AUX)
    Blend: AUG-CC-PVTZ-JKFIT

    Orbital Energies [Eh]
    ---------------------

    Doubly Occupied:

       1A    -20.566892     2A     -1.356863     3A     -0.717843
       4A     -0.588250     5A     -0.511086

  @DF-RHF Final Energy:   -76.06077725318377

   => Energetics <=

    Nuclear Repulsion Energy =              9.2416464372186269
    One-Electron Energy =                -123.1229746376578476
    Two-Electron Energy =                  37.8205509472554553
    Total Energy =                        -76.0607772531837583
 Dipole X            :        -21.7765985           21.4480174           -0.3285811
 Dipole Y            :        -51.3814450           51.3493220           -0.0321230
 Dipole Z            :         32.4377775          -31.7239890            0.7137885
 Magnitude           :                                                    0.7864423
  Basis Set: (AUG-CC-PVTZ AUX)
    Blend: AUG-CC-PVTZ-RI
	 Reference Energy          =     -76.0607772531837725 [Eh]
	 Singles Energy            =      -0.0000000000000000 [Eh]
	 Same-Spin Energy          =      -0.0683259452749661 [Eh]
	 Opposite-Spin Energy      =      -0.2156213376671652 [Eh]
	 Correlation Energy        =      -0.2839472829421313 [Eh]
	 Total Energy              =     -76.3447245361259093 [Eh]

	 ================> DF-SCS-MP2 Energies <==================
	-----------------------------------------------------------
	 SCS Same-Spin Scale       =       0.3333333333333333 [-]
	 SCS Opposite-Spin Scale   =       1.2000000000000000 [-]
	 SCS Same-Spin Energy      =      -0.0227753150916554 [Eh]
	 SCS Opposite-Spin Energy  =      -0.2587456052005982 [Eh]
	 SCS Correlation Energy    =      -0.2815209202922536 [Eh]
	 SCS Total Energy          =     -76.3422981734760242 [Eh]
	-----------------------------------------------------------

*** Psi4 exiting successfully. Buy a developer a beer!
