                               Psi4 1.8.2 release

  ==> Input File <==

--------------------------------------------------------------------------
MEMORY 60 GB

molecule dimer {
-1 1
Br         0.000000     0.000000     0.000000
O         -0.715270    -2.143185    -2.690953
H         -0.563893    -1.589694    -1.915422
H         -1.625719    -2.500042    -2.562483
O         -0.675884     1.561881     2.819312
H         -0.778240     0.984108     2.081935
H         -0.783142     0.966168     3.565114
O          3.548531     0.288888     0.674836
H          3.267816     0.447228    -0.188013
H          2.925434     0.795554     1.221031
O          0.805282    -3.287647     0.275183
H          0.393183    -3.703796    -0.501561
H          0.316995    -2.472699     0.427040
O          0.567571     0.362353    -3.511137
H          0.176105    -0.507486    -3.248833
H          0.283747     0.465117    -4.388978
O         -3.239559    -1.622188     0.083527
H         -3.422506    -1.982973     0.976307
H         -2.282082    -1.379107     0.094225
O         -2.191170     2.688530    -0.728488
H         -2.809150     2.418920    -1.425226
H         -1.544401     2.015253    -0.624480

units ang
no_reorient
no_com
symmetry c1
}

set {
basis        aug-cc-pVTZ
scf_type     df
}

energy("mp2")
--------------------------------------------------------------------------

    Molecular point group: c1

    Geometry (in Angstrom), charge = -1, multiplicity = 1:

       Center              X                  Y                   Z               Mass
    ------------   -----------------  -----------------  -----------------  -----------------
         BR           0.000000000000     0.000000000000     0.000000000000    78.918337600000
         O           -0.715270000000    -2.143185000000    -2.690953000000    15.994914619570
         H           -0.563893000000    -1.589694000000    -1.915422000000     1.007825032230
         H           -1.625719000000    -2.500042000000    -2.562483000000     1.007825032230
         O           -0.675884000000     1.561881000000     2.819312000000    15.994914619570
         H           -0.778240000000     0.984108000000     2.081935000000     1.007825032230
         H           -0.783142000000     0.966168000000     3.565114000000     1.007825032230
         O            3.548531000000     0.288888000000     0.674836000000    15.994914619570
         H            3.267816000000     0.447228000000    -0.188013000000     1.007825032230
         H            2.925434000000     0.795554000000     1.221031000000     1.007825032230
         O            0.805282000000    -3.287647000000     0.275183000000    15.994914619570
         H            0.393183000000    -3.703796000000    -0.501561000000     1.007825032230
         H            0.316995000000    -2.472699000000     0.427040000000     1.007825032230
         O            0.567571000000     0.362353000000    -3.511137000000    15.994914619570
         H            0.176105000000    -0.507486000000    -3.248833000000     1.007825032230
         H            0.283747000000     0.465117000000    -4.388978000000     1.007825032230
         O           -3.239559000000    -1.622188000000     0.083527000000    15.994914619570
         H           -3.422506000000    -1.982973000000     0.976307000000     1.007825032230
         H           -2.282082000000    -1.379107000000     0.094225000000     1.007825032230
         O           -2.191170000000     2.688530000000    -0.728488000000    15.994914619570
         H           -2.809150000000     2.418920000000    -1.425226000000     1.007825032230
         H           -1.544401000000     2.015253000000    -0.624480000000     1.007825032230

  Charge       = -1
  Multiplicity = 1
  Basis Set: AUG-CC-PVTZ
    Blend: AUG-CC-PVTZ
  Basis Set: (AUG-CC-PVTZ AUX)
    Blend: AUG-CC-PVTZ-JKFIT

    Orbital Energies [Eh]
    ---------------------

    Doubly Occupied:

       1A   -489.800510     2A    -64.940939     3A    -58.295477
       4A    -58.295412     5A    -58.295387     6A    -20.465501
       7A    -20.457263     8A    -20.431570     9A    -20.428672
      10A    -20.427227    11A    -20.425030    12A    -20.421822
      13A     -9.613195    14A     -7.220941    15A     -7.220614
      16A     -7.220464    17A     -2.962615    18A     -2.962510
      19A     -2.962323    20A     -2.961902    21A     -2.961884
      22A     -1.247429    23A     -1.227972    24A     -1.223151
      25A     -1.220972    26A     -1.218940    27A     -1.210804
      28A     -1.210714    29A     -0.779893    30A     -0.618738
      31A     -0.593648    32A     -0.586689    33A     -0.586618
      34A     -0.579524    35A     -0.577700    36A     -0.576188
      37A     -0.490018    38A     -0.470075    39A     -0.455465
      40A     -0.454142    41A     -0.453675    42A     -0.447821
      43A     -0.439152    44A     -0.406060    45A     -0.396906
      46A     -0.377264    47A     -0.376157    48A     -0.373341
      49A     -0.372544    50A     -0.368606    51A     -0.231370
      52A     -0.226375    53A     -0.224951

  @DF-RHF Final Energy: -3105.00532122090772

   => Energetics <=

    Nuclear Repulsion Energy =            671.2396094591243809
    One-Electron Energy =               -5674.9015306084484109
    Two-Electron Energy =                1898.6565999284166537
    Total Energy =                      -3105.0053212209077174
 Dipole X            :         39.6275920          -40.9122777           -1.2846857
 Dipole Y            :         43.0783112          -43.9444340           -0.8661228
 Dipole Z            :         58.6025901          -58.7914660           -0.1888759
 Magnitude           :                                                    1.5608523
  Basis Set: (AUG-CC-PVTZ AUX)
    Blend: AUG-CC-PVTZ-RI
	 Reference Energy          =   -3105.0053212209077174 [Eh]
	 Singles Energy            =      -0.0000000000000000 [Eh]
	 Same-Spin Energy          =      -0.5843989900047956 [Eh]
	 Opposite-Spin Energy      =      -1.7367318843792929 [Eh]
	 Correlation Energy        =      -2.3211308743840884 [Eh]
	 Total Energy              =   -3107.3264520952916428 [Eh]

	 ================> DF-SCS-MP2 Energies <==================
	-----------------------------------------------------------
	 SCS Same-Spin Scale       =       0.3333333333333333 [-]
	 SCS Opposite-Spin Scale   =       1.2000000000000000 [-]
	 SCS Same-Spin Energy      =      -0.1947996633349318 [Eh]
	 SCS Opposite-Spin Energy  =      -2.0840782612551516 [Eh]
	 SCS Correlation Energy    =      -2.2788779245900836 [Eh]
	 SCS Total Energy          =   -3107.2841991454979507 [Eh]
	-----------------------------------------------------------

*** Psi4 exiting successfully. Buy a developer a beer!
