                               Psi4 1.8.2 release

  ==> Input File <==

--------------------------------------------------------------------------
MEMORY 60 GB

molecule dimer {
-1 1
Br         0.000000     0.000000     0.000000
Gh(O)      1.331716     2.722509     0.940794
Gh(H)      0.932553     1.903811     0.578732
Gh(H)      1.260918     3.403207     0.208378
Gh(O)     -1.448453     1.321538     2.668376
Gh(H)     -1.342868     0.760752     1.897082
Gh(H)     -0.736737     1.048426     3.235516
Gh(O)     -0.072527    -0.400216    -3.431422
Gh(H)      0.021822    -0.469284    -2.499082
Gh(H)      0.767355    -0.131810    -3.808652
Gh(O)      3.075394     0.425946     1.413502
Gh(H)      2.911921     1.297669     1.072376
Gh(H)      2.314786    -0.184850     1.323914
Gh(O)      2.532006     0.388678    -2.263516
Gh(H)      2.071157     0.512868    -1.472168
Gh(H)      2.383790     1.130998    -2.871000

units ang
no_reorient
no_com
symmetry c1
}

set {
basis        aug-cc-pVTZ
scf_type     df
}

energy("mp2")
--------------------------------------------------------------------------

    Molecular point group: c1

    Geometry (in Angstrom), charge = -1, multiplicity = 1:

       Center              X                  Y                   Z               Mass
    ------------   -----------------  -----------------  -----------------  -----------------
         BR           0.000000000000     0.000000000000     0.000000000000    78.918337600000
      Gh(O)           1.331716000000     2.722509000000     0.940794000000    15.994914619570
      Gh(H)           0.932553000000     1.903811000000     0.578732000000     1.007825032230
      Gh(H)           1.260918000000     3.403207000000     0.208378000000     1.007825032230
      Gh(O)          -1.448453000000     1.321538000000     2.668376000000    15.994914619570
      Gh(H)          -1.342868000000     0.760752000000     1.897082000000     1.007825032230
      Gh(H)          -0.736737000000     1.048426000000     3.235516000000     1.007825032230
      Gh(O)          -0.072527000000    -0.400216000000    -3.431422000000    15.994914619570
      Gh(H)           0.021822000000    -0.469284000000    -2.499082000000     1.007825032230
      Gh(H)           0.767355000000    -0.131810000000    -3.808652000000     1.007825032230
      Gh(O)           3.075394000000     0.425946000000     1.413502000000    15.994914619570
      Gh(H)           2.911921000000     1.297669000000     1.072376000000     1.007825032230
      Gh(H)           2.314786000000    -0.184850000000     1.323914000000     1.007825032230
      Gh(O)           2.532006000000     0.388678000000    -2.263516000000    15.994914619570
      Gh(H)           2.071157000000     0.512868000000    -1.472168000000     1.007825032230
      Gh(H)           2.383790000000     1.130998000000    -2.871000000000     1.007825032230

  Charge       = -1
  Multiplicity = 1
  Basis Set: AUG-CC-PVTZ
    Blend: AUG-CC-PVTZ
  Basis Set: (AUG-CC-PVTZ AUX)
    Blend: AUG-CC-PVTZ-JKFIT

    Orbital Energies [Eh]
    ---------------------

    Doubly Occupied:

       1A   -489.722152     2A    -64.861752     3A    -58.216287
       4A    -58.216285     5A    -58.216282     6A     -9.533276
       7A     -7.140622     8A     -7.140598     9A     -7.140590
      10A     -2.882319    11A     -2.882317    12A     -2.882302
      13A     -2.882293    14A     -2.882280    15A     -0.685991
      16A     -0.139338    17A     -0.139332    18A     -0.139331

  @DF-RHF Final Energy: -2572.53372961612331

   => Energetics <=

    Nuclear Repulsion Energy =              0.0000000000000000
    One-Electron Energy =               -3593.6607670651469562
    Two-Electron Energy =                1021.1270374490236463
    Total Energy =                      -2572.5337296161233098
 Dipole X            :         -0.0000534            0.0000000           -0.0000534
 Dipole Y            :          0.0001761            0.0000000            0.0001761
 Dipole Z            :         -0.0000475            0.0000000           -0.0000475
 Magnitude           :                                                    0.0001901
  Basis Set: (AUG-CC-PVTZ AUX)
    Blend: AUG-CC-PVTZ-RI
	 Reference Energy          =   -2572.5337296161233098 [Eh]
	 Singles Energy            =      -0.0000000000000000 [Eh]
	 Same-Spin Energy          =      -0.0912738184863886 [Eh]
	 Opposite-Spin Energy      =      -0.2125854188326949 [Eh]
	 Correlation Energy        =      -0.3038592373190835 [Eh]
	 Total Energy              =   -2572.8375888534424121 [Eh]

	 ================> DF-SCS-MP2 Energies <==================
	-----------------------------------------------------------
	 SCS Same-Spin Scale       =       0.3333333333333333 [-]
	 SCS Opposite-Spin Scale   =       1.2000000000000000 [-]
	 SCS Same-Spin Energy      =      -0.0304246061621295 [Eh]
	 SCS Opposite-Spin Energy  =      -0.2551025025992339 [Eh]
	 SCS Correlation Energy    =      -0.2855271087613634 [Eh]
	 SCS Total Energy          =   -2572.8192567248847809 [Eh]
	-----------------------------------------------------------

*** Psi4 exiting successfully. Buy a developer a beer!
