                               Psi4 1.8.2 release

  ==> Input File <==

--------------------------------------------------------------------------
MEMORY 60 GB

molecule dimer {
-1 1
Br         0.000000     0.000000     0.000000
O         -0.182304     3.494170    -0.605864
H          0.120242     3.914423     0.257357
H          0.132300     2.594793    -0.587648
O         -2.270989    -2.543796    -0.135242
H         -1.629269    -1.818732    -0.214141
H         -2.769596    -2.373792     0.665191
O         -2.622852     0.829441    -1.960167
H         -1.727443     0.478275    -1.721753
H         -2.825376     0.371547    -2.777806
O         -0.227539    -1.062518     3.239792
H         -0.110948    -1.919017     2.769254
H         -0.127755    -0.388440     2.591113
O          3.140969     1.639494    -0.214309
H          3.024015     2.037304    -1.045371
H          2.229103     1.295954     0.003369

units ang
no_reorient
no_com
symmetry c1
}

set {
basis        aug-cc-pVTZ
scf_type     df
}

energy("mp2")
--------------------------------------------------------------------------

    Molecular point group: c1

    Geometry (in Angstrom), charge = -1, multiplicity = 1:

       Center              X                  Y                   Z               Mass
    ------------   -----------------  -----------------  -----------------  -----------------
         BR           0.000000000000     0.000000000000     0.000000000000    78.918337600000
         O           -0.182304000000     3.494170000000    -0.605864000000    15.994914619570
         H            0.120242000000     3.914423000000     0.257357000000     1.007825032230
         H            0.132300000000     2.594793000000    -0.587648000000     1.007825032230
         O           -2.270989000000    -2.543796000000    -0.135242000000    15.994914619570
         H           -1.629269000000    -1.818732000000    -0.214141000000     1.007825032230
         H           -2.769596000000    -2.373792000000     0.665191000000     1.007825032230
         O           -2.622852000000     0.829441000000    -1.960167000000    15.994914619570
         H           -1.727443000000     0.478275000000    -1.721753000000     1.007825032230
         H           -2.825376000000     0.371547000000    -2.777806000000     1.007825032230
         O           -0.227539000000    -1.062518000000     3.239792000000    15.994914619570
         H           -0.110948000000    -1.919017000000     2.769254000000     1.007825032230
         H           -0.127755000000    -0.388440000000     2.591113000000     1.007825032230
         O            3.140969000000     1.639494000000    -0.214309000000    15.994914619570
         H            3.024015000000     2.037304000000    -1.045371000000     1.007825032230
         H            2.229103000000     1.295954000000     0.003369000000     1.007825032230

  Charge       = -1
  Multiplicity = 1
  Basis Set: AUG-CC-PVTZ
    Blend: AUG-CC-PVTZ
  Basis Set: (AUG-CC-PVTZ AUX)
    Blend: AUG-CC-PVTZ-JKFIT

    Orbital Energies [Eh]
    ---------------------

    Doubly Occupied:

       1A   -489.799194     2A    -64.939651     3A    -58.294177
       4A    -58.294146     5A    -58.294095     6A    -20.435051
       7A    -20.433189     8A    -20.427623     9A    -20.423797
      10A    -20.423595    11A     -9.611988    12A     -7.219756
      13A     -7.219534    14A     -7.219150    15A     -2.961479
      16A     -2.961447    17A     -2.960984    18A     -2.960722
      19A     -2.960625    20A     -1.220304    21A     -1.212583
      22A     -1.208168    23A     -1.207671    24A     -1.201812
      25A     -0.777624    26A     -0.582346    27A     -0.580937
      28A     -0.577274    29A     -0.575855    30A     -0.562244
      31A     -0.458674    32A     -0.448557    33A     -0.445756
      34A     -0.443876    35A     -0.442087    36A     -0.379775
      37A     -0.374425    38A     -0.373823    39A     -0.371005
      40A     -0.363292    41A     -0.230329    42A     -0.226666
      43A     -0.220443

  @DF-RHF Final Energy: -2952.88114292349155

   => Energetics <=

    Nuclear Repulsion Energy =            428.5426719410323244
    One-Electron Energy =               -4978.1961634876079188
    Two-Electron Energy =                1596.7723486230838716
    Total Energy =                      -2952.8811429234915522
 Dipole X            :         40.1850341          -39.6586372            0.5263970
 Dipole Y            :        -44.0328088           43.5518434           -0.4809654
 Dipole Z            :         -5.2335233            4.7871393           -0.4463840
 Magnitude           :                                                    0.8412373
  Basis Set: (AUG-CC-PVTZ AUX)
    Blend: AUG-CC-PVTZ-RI
	 Reference Energy          =   -2952.8811429234915522 [Eh]
	 Singles Energy            =      -0.0000000000000000 [Eh]
	 Same-Spin Energy          =      -0.4432667042406728 [Eh]
	 Opposite-Spin Energy      =      -1.3002920813653254 [Eh]
	 Correlation Energy        =      -1.7435587856059982 [Eh]
	 Total Energy              =   -2954.6247017090977351 [Eh]

	 ================> DF-SCS-MP2 Energies <==================
	-----------------------------------------------------------
	 SCS Same-Spin Scale       =       0.3333333333333333 [-]
	 SCS Opposite-Spin Scale   =       1.2000000000000000 [-]
	 SCS Same-Spin Energy      =      -0.1477555680802243 [Eh]
	 SCS Opposite-Spin Energy  =      -1.5603504976383904 [Eh]
	 SCS Correlation Energy    =      -1.7081060657186147 [Eh]
	 SCS Total Energy          =   -2954.5892489892103185 [Eh]
	-----------------------------------------------------------

*** Psi4 exiting successfully. Buy a developer a beer!
