                               Psi4 1.8.2 release

  ==> Input File <==

--------------------------------------------------------------------------
MEMORY 60 GB

molecule dimer {
0 1
Gh(Br)     0.000000     0.000000     0.000000
Gh(O)     -1.696690     2.934160     0.134506
Gh(H)     -1.321713     2.170825    -0.262468
Gh(H)     -2.582990     2.990468    -0.140736
O          2.205792     1.542061    -1.989152
H          1.378254     1.355469    -1.592385
H          1.896691     1.977670    -2.832326
Gh(O)      2.682266     1.638353     1.709860
Gh(H)      1.939337     1.329311     1.132545
Gh(H)      2.900490     2.498860     1.415817

units ang
no_reorient
no_com
symmetry c1
}

set {
basis        aug-cc-pVTZ
scf_type     df
}

energy("mp2")
--------------------------------------------------------------------------

    Molecular point group: c1

    Geometry (in Angstrom), charge = 0, multiplicity = 1:

       Center              X                  Y                   Z               Mass
    ------------   -----------------  -----------------  -----------------  -----------------
      Gh(BR)          0.000000000000     0.000000000000     0.000000000000    78.918337600000
      Gh(O)          -1.696690000000     2.934160000000     0.134506000000    15.994914619570
      Gh(H)          -1.321713000000     2.170825000000    -0.262468000000     1.007825032230
      Gh(H)          -2.582990000000     2.990468000000    -0.140736000000     1.007825032230
         O            2.205792000000     1.542061000000    -1.989152000000    15.994914619570
         H            1.378254000000     1.355469000000    -1.592385000000     1.007825032230
         H            1.896691000000     1.977670000000    -2.832326000000     1.007825032230
      Gh(O)           2.682266000000     1.638353000000     1.709860000000    15.994914619570
      Gh(H)           1.939337000000     1.329311000000     1.132545000000     1.007825032230
      Gh(H)           2.900490000000     2.498860000000     1.415817000000     1.007825032230

  Charge       = 0
  Multiplicity = 1
  Basis Set: AUG-CC-PVTZ
    Blend: AUG-CC-PVTZ
  Basis Set: (AUG-CC-PVTZ AUX)
    Blend: AUG-CC-PVTZ-JKFIT

    Orbital Energies [Eh]
    ---------------------

    Doubly Occupied:

       1A    -20.570757     2A     -1.352698     3A     -0.703594
       4A     -0.591713     5A     -0.510976

  @DF-RHF Final Energy:   -76.05722047166120

   => Energetics <=

    Nuclear Repulsion Energy =              9.1191037355571023
    One-Electron Energy =                -122.8931707417478663
    Two-Electron Energy =                  37.7168465345295587
    Total Energy =                        -76.0572204716611964
 Dipole X            :        -40.2822692           39.5354913           -0.7467779
 Dipole Y            :        -29.4538113           29.6113035            0.1574922
 Dipole Z            :         38.1517009          -38.4331120           -0.2814111
 Magnitude           :                                                    0.8134330
  Basis Set: (AUG-CC-PVTZ AUX)
    Blend: AUG-CC-PVTZ-RI
	 Reference Energy          =     -76.0572204716611964 [Eh]
	 Singles Energy            =      -0.0000000000000000 [Eh]
	 Same-Spin Energy          =      -0.0686530984413952 [Eh]
	 Opposite-Spin Energy      =      -0.2164357620685262 [Eh]
	 Correlation Energy        =      -0.2850888605099215 [Eh]
	 Total Energy              =     -76.3423093321711121 [Eh]

	 ================> DF-SCS-MP2 Energies <==================
	-----------------------------------------------------------
	 SCS Same-Spin Scale       =       0.3333333333333333 [-]
	 SCS Opposite-Spin Scale   =       1.2000000000000000 [-]
	 SCS Same-Spin Energy      =      -0.0228843661471317 [Eh]
	 SCS Opposite-Spin Energy  =      -0.2597229144822315 [Eh]
	 SCS Correlation Energy    =      -0.2826072806293632 [Eh]
	 SCS Total Energy          =     -76.3398277522905602 [Eh]
	-----------------------------------------------------------

*** Psi4 exiting successfully. Buy a developer a beer!
