                               Psi4 1.9 release

  ==> Input File <==

--------------------------------------------------------------------------
MEMORY 60 GB

molecule dimer {
-1 1
Br     0.000000     0.000000     0.000000
--
0 1
O     -2.482245     0.431698    -2.183327
H     -1.655939     0.265964    -1.667076
H     -3.230451     0.292324    -1.603838
O      0.162468     2.602185    -2.062760
H      0.057853     1.916729    -1.447029
H      0.378926     2.126170    -2.867373
O      2.925195     1.607543     0.753982
H      3.427561     1.760867    -0.069839
H      2.058998     1.436778     0.427908
O      2.391839    -0.819196    -2.219117
H      1.654438    -0.575889    -1.629627
H      1.934968    -1.167604    -3.010764

units ang
no_reorient
no_com
symmetry c1
}

set {
basis        aug-cc-pVTZ
scf_type     df
}

energy("mp2", bsse_type="cp")
--------------------------------------------------------------------------

                               Psi4 1.9 release
    Molecular point group: c1
  Charge       = 0
  Multiplicity = 1
  Basis Set: AUG-CC-PVTZ
    Blend: AUG-CC-PVTZ
  Basis Set: (AUG-CC-PVTZ AUX)
    Blend: AUG-CC-PVTZ-JKFIT
  @DF-RHF Final Energy:  -304.22972449007489
    Total Energy =                       -304.2297244900748865
 Dipole X            :        -54.9667956           54.0545009           -0.9122947
 Dipole Y            :        -70.2404660           69.2266754           -1.0137906
 Dipole Z            :        108.4040262         -108.7677489           -0.3637227
 Magnitude           :                                                    1.4115053
  Basis Set: (AUG-CC-PVTZ AUX)
    Blend: AUG-CC-PVTZ-RI
	 Reference Energy          =    -304.2297244900748865 [Eh]
	 Singles Energy            =      -0.0000000000000000 [Eh]
	 Same-Spin Energy          =      -0.2750850911618668 [Eh]
	 Opposite-Spin Energy      =      -0.8662253045910482 [Eh]
	 Correlation Energy        =      -1.1413103957529149 [Eh]
	 Total Energy              =    -305.3710348858277825 [Eh]
	 SCS Total Energy          =    -305.3608898859714600 [Eh]
                               Psi4 1.9 release
    Molecular point group: c1
  Multiplicity = 1
  Basis Set: AUG-CC-PVTZ
    Blend: AUG-CC-PVTZ
  Basis Set: (AUG-CC-PVTZ AUX)
    Blend: AUG-CC-PVTZ-JKFIT
  @DF-RHF Final Energy: -2572.53372169746035
    Total Energy =                      -2572.5337216974598959
  Basis Set: (AUG-CC-PVTZ AUX)
	 Singles Energy            =      -0.0000000000000000 [Eh]
	 Same-Spin Energy          =      -0.0908406027164296 [Eh]
	 Opposite-Spin Energy      =      -0.2114497376822774 [Eh]
	 Correlation Energy        =      -0.3022903403987071 [Eh]
	 Total Energy              =   -2572.8360120378588363 [Eh]
	 SCS Total Energy          =   -2572.8177415835843931 [Eh]
                               Psi4 1.9 release
    Molecular point group: c1

    Geometry (in Bohr), charge = -1, multiplicity = 1:

       Center              X                  Y                   Z               Mass
    ------------   -----------------  -----------------  -----------------  -----------------
         BR           0.000000000000     0.000000000000     0.000000000000    78.918337600000
         O           -4.690763226287     0.815790988908    -4.125890072317    15.994914619570
         H           -3.129271190465     0.502599119231    -3.150317070324     1.007825032230
         H           -6.104667651711     0.552412299898    -3.030814569602     1.007825032230
         O            0.307020024151     4.917416977774    -3.898051462549    15.994914619570
         H            0.109326325536     3.622092866723    -2.734488505595     1.007825032230
         H            0.716066361815     4.017878996165    -5.418549669532     1.007825032230
         O            5.527817413559     3.037816004897     1.424819483525    15.994914619570
         H            6.477151568300     3.327556373357    -0.131976582876     1.007825032230
         H            3.890942312865     2.715116923083     0.808628926892     1.007825032230
         O            4.519920646189    -1.548056083071    -4.193523370348    15.994914619570
         H            3.126434711550    -1.088272488664    -3.079548716651     1.007825032230
         H            3.656559581525    -2.206451782989    -5.689519388388     1.007825032230

  Charge       = -1
  Multiplicity = 1
  Basis Set: AUG-CC-PVTZ
    Blend: AUG-CC-PVTZ
  Basis Set: (AUG-CC-PVTZ AUX)
    Blend: AUG-CC-PVTZ-JKFIT

    Orbital Energies [Eh]
    ---------------------

    Doubly Occupied:

       1A   -489.788431     2A    -64.928918     3A    -58.283419
       4A    -58.283392     5A    -58.283375     6A    -20.425595
       7A    -20.414705     8A    -20.414027     9A    -20.409996
      10A     -9.601324    11A     -7.208936    12A     -7.208786
      13A     -7.208688    14A     -2.950547    15A     -2.950515
      16A     -2.950410    17A     -2.950218    18A     -2.950199
      19A     -1.210749    20A     -1.203126    21A     -1.202140
      22A     -1.194859    23A     -0.768612    24A     -0.572386
      25A     -0.568749    26A     -0.563637    27A     -0.560675
      28A     -0.447266    29A     -0.444074    30A     -0.440683
      31A     -0.431434    32A     -0.368553    33A     -0.365378
      34A     -0.359927    35A     -0.354794    36A     -0.216969
      37A     -0.215458    38A     -0.213416

  @DF-RHF Final Energy: -2876.81588867157734

   => Energetics <=

    Nuclear Repulsion Energy =            339.2847241177726119
    One-Electron Energy =               -4694.3724834339082008
    Two-Electron Energy =                1478.2718706445587031
    Total Energy =                      -2876.8158886715773406
 Dipole X            :        -55.1570290           54.0545009           -1.1025282
 Dipole Y            :        -70.6303384           69.2266754           -1.4036629
 Dipole Z            :        109.2915166         -108.7677489            0.5237676
 Magnitude           :                                                    1.8601534
  Basis Set: (AUG-CC-PVTZ AUX)
    Blend: AUG-CC-PVTZ-RI
	 Reference Energy          =   -2876.8158886715773406 [Eh]
	 Singles Energy            =      -0.0000000000000000 [Eh]
	 Same-Spin Energy          =      -0.3744237233961092 [Eh]
	 Opposite-Spin Energy      =      -1.0839728384860090 [Eh]
	 Correlation Energy        =      -1.4583965618821182 [Eh]
	 Total Energy              =   -2878.2742852334595227 [Eh]

	 ================> DF-SCS-MP2 Energies <==================
	-----------------------------------------------------------
	 SCS Same-Spin Scale       =       0.3333333333333333 [-]
	 SCS Opposite-Spin Scale   =       1.2000000000000000 [-]
	 SCS Same-Spin Energy      =      -0.1248079077987031 [Eh]
	 SCS Opposite-Spin Energy  =      -1.3007674061832109 [Eh]
	 SCS Correlation Energy    =      -1.4255753139819138 [Eh]
	 SCS Total Energy          =   -2878.2414639855592213 [Eh]
	-----------------------------------------------------------

*** Psi4 exiting successfully. Buy a developer a beer!
