                               Psi4 1.8.2 release

  ==> Input File <==

--------------------------------------------------------------------------
MEMORY 60 GB

molecule dimer {
0 1
Gh(Br)     0.000000     0.000000     0.000000
O         -2.719380    -0.917874     1.513340
H         -2.094607    -0.347929     1.035762
H         -3.561100    -0.822273     1.115577
Gh(O)     -2.060809     2.593717    -0.859092
Gh(H)     -1.688050     3.070376    -1.592003
Gh(H)     -1.437597     1.870275    -0.673543
Gh(O)     -0.594218    -3.396631     0.803846
Gh(H)     -0.374269    -2.975147     1.697640
Gh(H)     -0.649522    -2.561829     0.293830

units ang
no_reorient
no_com
symmetry c1
}

set {
basis        aug-cc-pVTZ
scf_type     df
}

energy("mp2")
--------------------------------------------------------------------------

    Molecular point group: c1

    Geometry (in Angstrom), charge = 0, multiplicity = 1:

       Center              X                  Y                   Z               Mass
    ------------   -----------------  -----------------  -----------------  -----------------
      Gh(BR)          0.000000000000     0.000000000000     0.000000000000    78.918337600000
         O           -2.719380000000    -0.917874000000     1.513340000000    15.994914619570
         H           -2.094607000000    -0.347929000000     1.035762000000     1.007825032230
         H           -3.561100000000    -0.822273000000     1.115577000000     1.007825032230
      Gh(O)          -2.060809000000     2.593717000000    -0.859092000000    15.994914619570
      Gh(H)          -1.688050000000     3.070376000000    -1.592003000000     1.007825032230
      Gh(H)          -1.437597000000     1.870275000000    -0.673543000000     1.007825032230
      Gh(O)          -0.594218000000    -3.396631000000     0.803846000000    15.994914619570
      Gh(H)          -0.374269000000    -2.975147000000     1.697640000000     1.007825032230
      Gh(H)          -0.649522000000    -2.561829000000     0.293830000000     1.007825032230

  Charge       = 0
  Multiplicity = 1
  Basis Set: AUG-CC-PVTZ
    Blend: AUG-CC-PVTZ
  Basis Set: (AUG-CC-PVTZ AUX)
    Blend: AUG-CC-PVTZ-JKFIT

    Orbital Energies [Eh]
    ---------------------

    Doubly Occupied:

       1A    -20.564816     2A     -1.353253     3A     -0.726646
       4A     -0.578618     5A     -0.509638

  @DF-RHF Final Energy:   -76.06016238063455

   => Energetics <=

    Nuclear Repulsion Energy =              9.2252826335367022
    One-Electron Energy =                -123.1049435602934636
    Two-Electron Energy =                  37.8194985461222046
    Total Energy =                        -76.0601623806345515
 Dipole X            :         51.6473050          -51.7988047           -0.1514998
 Dipole Y            :         16.5350268          -16.0876051            0.4474217
 Dipole Z            :        -27.5337163           26.9438266           -0.5898897
 Magnitude           :                                                    0.7557170
  Basis Set: (AUG-CC-PVTZ AUX)
    Blend: AUG-CC-PVTZ-RI
	 Reference Energy          =     -76.0601623806345515 [Eh]
	 Singles Energy            =      -0.0000000000000000 [Eh]
	 Same-Spin Energy          =      -0.0682681925710362 [Eh]
	 Opposite-Spin Energy      =      -0.2153420618095415 [Eh]
	 Correlation Energy        =      -0.2836102543805777 [Eh]
	 Total Energy              =     -76.3437726350151280 [Eh]

	 ================> DF-SCS-MP2 Energies <==================
	-----------------------------------------------------------
	 SCS Same-Spin Scale       =       0.3333333333333333 [-]
	 SCS Opposite-Spin Scale   =       1.2000000000000000 [-]
	 SCS Same-Spin Energy      =      -0.0227560641903454 [Eh]
	 SCS Opposite-Spin Energy  =      -0.2584104741714498 [Eh]
	 SCS Correlation Energy    =      -0.2811665383617952 [Eh]
	 SCS Total Energy          =     -76.3413289189963535 [Eh]
	-----------------------------------------------------------

*** Psi4 exiting successfully. Buy a developer a beer!
