                               Psi4 1.9 release

  ==> Input File <==

--------------------------------------------------------------------------
MEMORY 60 GB

molecule dimer {
-1 1
Br     0.000000     0.000000     0.000000
--
0 1
O      1.877253    -0.925629    -2.503878
H      1.568959    -0.369866    -1.756608
H      1.769866    -1.829815    -2.152507
O      0.170065     2.901916    -1.500734
H     -0.216467     2.541833    -2.272789
H      0.178509     2.130837    -0.924963
O      0.283163    -1.282719     3.211734
H      0.144151    -0.907789     2.345728
H     -0.490220    -1.053040     3.745017
O      3.272579    -0.761567     0.566827
H      2.477722    -0.224904     0.466952
H      2.968580    -1.638178     0.298848
O      0.955461     2.446042     2.162195
H      0.814632     1.637742     1.624264
H      0.875880     2.278959     3.123204
O     -1.258581    -1.316716    -3.035756
H     -2.002288    -0.752139    -3.089390
H     -0.819194    -1.250416    -2.138434

units ang
no_reorient
no_com
symmetry c1
}

set {
basis        aug-cc-pVTZ
scf_type     df
}

energy("mp2", bsse_type="cp")
--------------------------------------------------------------------------

                               Psi4 1.9 release
    Molecular point group: c1
  Charge       = 0
  Multiplicity = 1
  Basis Set: AUG-CC-PVTZ
    Blend: AUG-CC-PVTZ
  Basis Set: (AUG-CC-PVTZ AUX)
    Blend: AUG-CC-PVTZ-JKFIT
  @DF-RHF Final Energy:  -456.33069155822670
    Total Energy =                       -456.3306915582267038
 Dipole X            :        -95.9089980           93.8620352           -2.0469627
 Dipole Y            :        -18.0707924           17.1092780           -0.9615144
 Dipole Z            :         18.9284569          -18.0045055            0.9239514
 Magnitude           :                                                    2.4430007
  Basis Set: (AUG-CC-PVTZ AUX)
    Blend: AUG-CC-PVTZ-RI
	 Reference Energy          =    -456.3306915582267038 [Eh]
	 Singles Energy            =      -0.0000000000000000 [Eh]
	 Same-Spin Energy          =      -0.4137540501432611 [Eh]
	 Opposite-Spin Energy      =      -1.3015264251211347 [Eh]
	 Correlation Energy        =      -1.7152804752643958 [Eh]
	 Total Energy              =    -458.0459720334911253 [Eh]
	 SCS Total Energy          =    -458.0304412850865106 [Eh]
                               Psi4 1.9 release
    Molecular point group: c1
  Multiplicity = 1
  Basis Set: AUG-CC-PVTZ
    Blend: AUG-CC-PVTZ
  Basis Set: (AUG-CC-PVTZ AUX)
    Blend: AUG-CC-PVTZ-JKFIT
  @DF-RHF Final Energy: -2572.53374153085861
    Total Energy =                      -2572.5337415308581512
  Basis Set: (AUG-CC-PVTZ AUX)
	 Singles Energy            =      -0.0000000000000000 [Eh]
	 Same-Spin Energy          =      -0.0922359463426783 [Eh]
	 Opposite-Spin Energy      =      -0.2148437725065744 [Eh]
	 Correlation Energy        =      -0.3070797188492527 [Eh]
	 Total Energy              =   -2572.8408212497079148 [Eh]
	 SCS Total Energy          =   -2572.8222993733138537 [Eh]
                               Psi4 1.9 release
    Molecular point group: c1

    Geometry (in Bohr), charge = -1, multiplicity = 1:

       Center              X                  Y                   Z               Mass
    ------------   -----------------  -----------------  -----------------  -----------------
         BR           0.000000000000     0.000000000000     0.000000000000    78.918337600000
         O            3.547494038194    -1.749185303781    -4.731643671559    15.994914619570
         H            2.964902812072    -0.698945443119    -3.319508029788     1.007825032230
         H            3.344562018760    -3.457849210255    -4.067648713131     1.007825032230
         O            0.321376273526     5.483826479084    -2.835976247163    15.994914619570
         H           -0.409063345199     4.803368226651    -4.294948750953     1.007825032230
         H            0.337333120929     4.026698347992    -1.747926746182     1.007825032230
         O            0.535100518863    -2.423987605921     6.069297647821    15.994914619570
         H            0.272405910711    -1.715472589703     4.432783484818     1.007825032230
         H           -0.926381541222    -1.989957199152     7.077056465184     1.007825032230
         O            6.184278033925    -1.439153056187     1.071147790515    15.994914619570
         H            4.682215995022    -0.425006964520     0.882411393735     1.007825032230
         H            5.609803181512    -3.095707764750     0.564740873141     1.007825032230
         O            1.805559613556     4.622349471367     4.085956379834    15.994914619570
         H            1.539431373034     3.094883844160     3.069414115441     1.007825032230
         H            1.655173318766     4.306608361147     5.902000193934     1.007825032230
         O           -2.378373396705    -2.488232625008    -5.736747423715    15.994914619570
         H           -3.783775944291    -1.421336718276    -5.838100994728     1.007825032230
         H           -1.548052303618    -2.362943782890    -4.041054597367     1.007825032230

  Charge       = -1
  Multiplicity = 1
  Basis Set: AUG-CC-PVTZ
    Blend: AUG-CC-PVTZ
  Basis Set: (AUG-CC-PVTZ AUX)
    Blend: AUG-CC-PVTZ-JKFIT

    Orbital Energies [Eh]
    ---------------------

    Doubly Occupied:

       1A   -489.822532     2A    -64.963279     3A    -58.317767
       4A    -58.317739     5A    -58.317723     6A    -20.442991
       7A    -20.433665     8A    -20.429047     9A    -20.427397
      10A    -20.424450    11A    -20.415833    12A     -9.635803
      13A     -7.243449    14A     -7.243360    15A     -7.243178
      16A     -2.985055    17A     -2.985043    18A     -2.984827
      19A     -2.984709    20A     -2.984652    21A     -1.228866
      22A     -1.215566    23A     -1.213760    24A     -1.212651
      25A     -1.201946    26A     -1.201624    27A     -0.807095
      28A     -0.600365    29A     -0.596022    30A     -0.586653
      31A     -0.573204    32A     -0.569311    33A     -0.561533
      34A     -0.461480    35A     -0.457885    36A     -0.451688
      37A     -0.446493    38A     -0.442056    39A     -0.432505
      40A     -0.388404    41A     -0.383507    42A     -0.374377
      43A     -0.371033    44A     -0.365262    45A     -0.359754
      46A     -0.253168    47A     -0.251216    48A     -0.248000

  @DF-RHF Final Energy: -3028.94012596908351

   => Energetics <=

    Nuclear Repulsion Energy =            566.5289124399415641
    One-Electron Energy =               -5359.2222318979856936
    Two-Electron Energy =                1763.7531934889609602
    Total Energy =                      -3028.9401259690830557
 Dipole X            :        -96.4574368           93.8620352           -2.5954015
 Dipole Y            :        -18.1875866           17.1092780           -1.0783087
 Dipole Z            :         18.9991837          -18.0045055            0.9946782
 Magnitude           :                                                    2.9813157
  Basis Set: (AUG-CC-PVTZ AUX)
    Blend: AUG-CC-PVTZ-RI
	 Reference Energy          =   -3028.9401259690835104 [Eh]
	 Singles Energy            =      -0.0000000000000000 [Eh]
	 Same-Spin Energy          =      -0.5174892291677420 [Eh]
	 Opposite-Spin Energy      =      -1.5242767406222939 [Eh]
	 Correlation Energy        =      -2.0417659697900357 [Eh]
	 Total Energy              =   -3030.9818919388735594 [Eh]

	 ================> DF-SCS-MP2 Energies <==================
	-----------------------------------------------------------
	 SCS Same-Spin Scale       =       0.3333333333333333 [-]
	 SCS Opposite-Spin Scale   =       1.2000000000000000 [-]
	 SCS Same-Spin Energy      =      -0.1724964097225807 [Eh]
	 SCS Opposite-Spin Energy  =      -1.8291320887467526 [Eh]
	 SCS Correlation Energy    =      -2.0016284984693331 [Eh]
	 SCS Total Energy          =   -3030.9417544675529825 [Eh]
	-----------------------------------------------------------

*** Psi4 exiting successfully. Buy a developer a beer!
