                               Psi4 1.8.2 release

  ==> Input File <==

--------------------------------------------------------------------------
MEMORY 60 GB

molecule dimer {
0 1
Gh(Br)     0.000000     0.000000     0.000000
Gh(O)     -2.781824     0.954914     1.546349
Gh(H)     -2.079798     0.629798     0.983421
Gh(H)     -2.569173     1.860935     1.801428
O          0.417110     1.164103     2.920605
H         -0.279275     0.933093     3.573898
H          0.289615     0.628287     2.138627
Gh(O)     -1.161290     3.255151    -0.272712
Gh(H)     -0.718022     2.402898    -0.139574
Gh(H)     -0.489651     3.796101    -0.744628
Gh(O)      3.058295     1.334047    -0.433045
Gh(H)      2.146353     1.140968    -0.250352
Gh(H)      3.046948     2.024410    -1.133360
Gh(O)     -1.361860     1.474861    -2.856186
Gh(H)     -1.202291     1.027410    -1.978617
Gh(H)     -0.871594     2.343189    -2.876970

units ang
no_reorient
no_com
symmetry c1
}

set {
basis        aug-cc-pVTZ
scf_type     df
}

energy("mp2")
--------------------------------------------------------------------------

    Molecular point group: c1

    Geometry (in Angstrom), charge = 0, multiplicity = 1:

       Center              X                  Y                   Z               Mass
    ------------   -----------------  -----------------  -----------------  -----------------
      Gh(BR)          0.000000000000     0.000000000000     0.000000000000    78.918337600000
      Gh(O)          -2.781824000000     0.954914000000     1.546349000000    15.994914619570
      Gh(H)          -2.079798000000     0.629798000000     0.983421000000     1.007825032230
      Gh(H)          -2.569173000000     1.860935000000     1.801428000000     1.007825032230
         O            0.417110000000     1.164103000000     2.920605000000    15.994914619570
         H           -0.279275000000     0.933093000000     3.573898000000     1.007825032230
         H            0.289615000000     0.628287000000     2.138627000000     1.007825032230
      Gh(O)          -1.161290000000     3.255151000000    -0.272712000000    15.994914619570
      Gh(H)          -0.718022000000     2.402898000000    -0.139574000000     1.007825032230
      Gh(H)          -0.489651000000     3.796101000000    -0.744628000000     1.007825032230
      Gh(O)           3.058295000000     1.334047000000    -0.433045000000    15.994914619570
      Gh(H)           2.146353000000     1.140968000000    -0.250352000000     1.007825032230
      Gh(H)           3.046948000000     2.024410000000    -1.133360000000     1.007825032230
      Gh(O)          -1.361860000000     1.474861000000    -2.856186000000    15.994914619570
      Gh(H)          -1.202291000000     1.027410000000    -1.978617000000     1.007825032230
      Gh(H)          -0.871594000000     2.343189000000    -2.876970000000     1.007825032230

  Charge       = 0
  Multiplicity = 1
  Basis Set: AUG-CC-PVTZ
    Blend: AUG-CC-PVTZ
  Basis Set: (AUG-CC-PVTZ AUX)
    Blend: AUG-CC-PVTZ-JKFIT

    Orbital Energies [Eh]
    ---------------------

    Doubly Occupied:

       1A    -20.567359     2A     -1.344708     3A     -0.718547
       4A     -0.574746     5A     -0.508137

  @DF-RHF Final Energy:   -76.05905816789972

   => Energetics <=

    Nuclear Repulsion Energy =              9.0715881864842398
    One-Electron Energy =                -122.8342938888029465
    Two-Electron Energy =                  37.7036475344189910
    Total Energy =                        -76.0590581678997211
 Dipole X            :         -6.8741948            6.3253291           -0.5488657
 Dipole Y            :        -21.0631302           20.5492674           -0.5138628
 Dipole Z            :        -55.0379910           54.9482563           -0.0897347
 Magnitude           :                                                    0.7572060
  Basis Set: (AUG-CC-PVTZ AUX)
    Blend: AUG-CC-PVTZ-RI
	 Reference Energy          =     -76.0590581678997211 [Eh]
	 Singles Energy            =      -0.0000000000000000 [Eh]
	 Same-Spin Energy          =      -0.0685533669738222 [Eh]
	 Opposite-Spin Energy      =      -0.2163608828831009 [Eh]
	 Correlation Energy        =      -0.2849142498569230 [Eh]
	 Total Energy              =     -76.3439724177566461 [Eh]

	 ================> DF-SCS-MP2 Energies <==================
	-----------------------------------------------------------
	 SCS Same-Spin Scale       =       0.3333333333333333 [-]
	 SCS Opposite-Spin Scale   =       1.2000000000000000 [-]
	 SCS Same-Spin Energy      =      -0.0228511223246074 [Eh]
	 SCS Opposite-Spin Energy  =      -0.2596330594597211 [Eh]
	 SCS Correlation Energy    =      -0.2824841817843285 [Eh]
	 SCS Total Energy          =     -76.3415423496840475 [Eh]
	-----------------------------------------------------------

*** Psi4 exiting successfully. Buy a developer a beer!
