                               Psi4 1.8.2 release

  ==> Input File <==

--------------------------------------------------------------------------
MEMORY 60 GB

molecule dimer {
0 1
Gh(Br)     0.000000     0.000000     0.000000
O         -2.333005    -2.573527    -0.291127
H         -3.133171    -2.528310     0.371069
H         -1.787717    -1.837861    -0.137174
Gh(O)      1.371021     2.985621    -0.728227
Gh(H)      1.616172     3.427381     0.066995
Gh(H)      1.180208     2.097681    -0.432288
Gh(O)     -2.377910     2.369996     0.456820
Gh(H)     -1.695206     2.554222     1.124779
Gh(H)     -1.990682     1.663103    -0.153605
Gh(O)     -2.461469    -0.687997     2.047974
Gh(H)     -1.760234    -0.273058     1.493838
Gh(H)     -3.296296    -0.283233     1.747665
Gh(O)     -0.226095     0.748349    -3.395531
Gh(H)      0.694620     0.580593    -3.071989
Gh(H)     -0.938329     0.679073    -2.701236

units ang
no_reorient
no_com
symmetry c1
}

set {
basis        aug-cc-pVTZ
scf_type     df
}

energy("mp2")
--------------------------------------------------------------------------

    Molecular point group: c1

    Geometry (in Angstrom), charge = 0, multiplicity = 1:

       Center              X                  Y                   Z               Mass
    ------------   -----------------  -----------------  -----------------  -----------------
      Gh(BR)          0.000000000000     0.000000000000     0.000000000000    78.918337600000
         O           -2.333005000000    -2.573527000000    -0.291127000000    15.994914619570
         H           -3.133171000000    -2.528310000000     0.371069000000     1.007825032230
         H           -1.787717000000    -1.837861000000    -0.137174000000     1.007825032230
      Gh(O)           1.371021000000     2.985621000000    -0.728227000000    15.994914619570
      Gh(H)           1.616172000000     3.427381000000     0.066995000000     1.007825032230
      Gh(H)           1.180208000000     2.097681000000    -0.432288000000     1.007825032230
      Gh(O)          -2.377910000000     2.369996000000     0.456820000000    15.994914619570
      Gh(H)          -1.695206000000     2.554222000000     1.124779000000     1.007825032230
      Gh(H)          -1.990682000000     1.663103000000    -0.153605000000     1.007825032230
      Gh(O)          -2.461469000000    -0.687997000000     2.047974000000    15.994914619570
      Gh(H)          -1.760234000000    -0.273058000000     1.493838000000     1.007825032230
      Gh(H)          -3.296296000000    -0.283233000000     1.747665000000     1.007825032230
      Gh(O)          -0.226095000000     0.748349000000    -3.395531000000    15.994914619570
      Gh(H)           0.694620000000     0.580593000000    -3.071989000000     1.007825032230
      Gh(H)          -0.938329000000     0.679073000000    -2.701236000000     1.007825032230

  Charge       = 0
  Multiplicity = 1
  Basis Set: AUG-CC-PVTZ
    Blend: AUG-CC-PVTZ
  Basis Set: (AUG-CC-PVTZ AUX)
    Blend: AUG-CC-PVTZ-JKFIT

    Orbital Energies [Eh]
    ---------------------

    Doubly Occupied:

       1A    -20.569455     2A     -1.340478     3A     -0.710902
       4A     -0.571761     5A     -0.507281

  @DF-RHF Final Energy:   -76.05207168838807

   => Energetics <=

    Nuclear Repulsion Energy =              8.9628301356680176
    One-Electron Energy =                -122.6300452275439739
    Two-Electron Energy =                  37.6151434034878847
    Total Energy =                        -76.0520716883880823
 Dipole X            :         44.4148483          -44.5690546           -0.1542063
 Dipole Y            :         47.6817934          -47.1569571            0.5248363
 Dipole Z            :          4.4945804           -3.9592049            0.5353755
 Magnitude           :                                                    0.7654147
  Basis Set: (AUG-CC-PVTZ AUX)
    Blend: AUG-CC-PVTZ-RI
	 Reference Energy          =     -76.0520716883880681 [Eh]
	 Singles Energy            =      -0.0000000000000000 [Eh]
	 Same-Spin Energy          =      -0.0687535637052957 [Eh]
	 Opposite-Spin Energy      =      -0.2172529689927352 [Eh]
	 Correlation Energy        =      -0.2860065326980309 [Eh]
	 Total Energy              =     -76.3380782210860929 [Eh]

	 ================> DF-SCS-MP2 Energies <==================
	-----------------------------------------------------------
	 SCS Same-Spin Scale       =       0.3333333333333333 [-]
	 SCS Opposite-Spin Scale   =       1.2000000000000000 [-]
	 SCS Same-Spin Energy      =      -0.0229178545684319 [Eh]
	 SCS Opposite-Spin Energy  =      -0.2607035627912823 [Eh]
	 SCS Correlation Energy    =      -0.2836214173597141 [Eh]
	 SCS Total Energy          =     -76.3356931057477794 [Eh]
	-----------------------------------------------------------

*** Psi4 exiting successfully. Buy a developer a beer!
