                               Psi4 1.9 release

  ==> Input File <==

--------------------------------------------------------------------------
MEMORY 60 GB

molecule dimer {
-1 1
Br     0.000000     0.000000     0.000000
--
0 1
O      0.537883    -2.592701     1.926681
H     -0.386009    -2.598137     2.112065
H      0.722606    -1.933912     1.307501
O      1.291657    -2.839776    -1.063081
H      0.556916    -2.277466    -0.805116
H      1.883573    -2.161705    -1.372666
O     -1.874314    -0.408243     2.636827
H     -1.328717    -0.039733     1.938784
H     -2.727285    -0.453675     2.229542

units ang
no_reorient
no_com
symmetry c1
}

set {
basis        aug-cc-pVTZ
scf_type     df
}

energy("mp2", bsse_type="cp")
--------------------------------------------------------------------------

                               Psi4 1.9 release
    Molecular point group: c1
  Charge       = 0
  Multiplicity = 1
  Basis Set: AUG-CC-PVTZ
    Blend: AUG-CC-PVTZ
  Basis Set: (AUG-CC-PVTZ AUX)
    Blend: AUG-CC-PVTZ-JKFIT
  @DF-RHF Final Energy:  -228.17421791832993
    Total Energy =                       -228.1742179183299299
 Dipole X            :          2.2826314           -3.0936858           -0.8110544
 Dipole Y            :        107.6095396         -106.1844442            1.4250954
 Dipole Z            :        -64.1526248           63.1424130           -1.0102118
 Magnitude           :                                                    1.9259371
  Basis Set: (AUG-CC-PVTZ AUX)
    Blend: AUG-CC-PVTZ-RI
	 Reference Energy          =    -228.1742179183299299 [Eh]
	 Singles Energy            =      -0.0000000000000000 [Eh]
	 Same-Spin Energy          =      -0.2061575383254659 [Eh]
	 Opposite-Spin Energy      =      -0.6476179823123385 [Eh]
	 Correlation Energy        =      -0.8537755206378044 [Eh]
	 Total Energy              =    -229.0279934389677408 [Eh]
	 SCS Total Energy          =    -229.0200786765465466 [Eh]
                               Psi4 1.9 release
    Molecular point group: c1
  Multiplicity = 1
  Basis Set: AUG-CC-PVTZ
    Blend: AUG-CC-PVTZ
  Basis Set: (AUG-CC-PVTZ AUX)
    Blend: AUG-CC-PVTZ-JKFIT
  @DF-RHF Final Energy: -2572.53370855973208
    Total Energy =                      -2572.5337085597320765
  Basis Set: (AUG-CC-PVTZ AUX)
	 Singles Energy            =      -0.0000000000000000 [Eh]
	 Same-Spin Energy          =      -0.0897096913218732 [Eh]
	 Opposite-Spin Energy      =      -0.2086851983574228 [Eh]
	 Correlation Energy        =      -0.2983948896792961 [Eh]
	 Total Energy              =   -2572.8321034494115338 [Eh]
	 SCS Total Energy          =   -2572.8140340282016041 [Eh]
                               Psi4 1.9 release
    Molecular point group: c1

    Geometry (in Bohr), charge = -1, multiplicity = 1:

       Center              X                  Y                   Z               Mass
    ------------   -----------------  -----------------  -----------------  -----------------
         BR           0.000000000000     0.000000000000     0.000000000000    78.918337600000
         O            1.016451557540    -4.899494815201     3.640899421123    15.994914619570
         H           -0.729451291962    -4.909767366419     3.991224409165     1.007825032230
         H            1.365527436613    -3.654564030736     2.470818798762     1.007825032230
         O            2.440877978030    -5.366398897648    -2.008931939178    15.994914619570
         H            1.052418714885    -4.303787000042    -1.521448739224     1.007825032230
         H            3.559437107307    -4.085030414033    -2.593962801728     1.007825032230
         O           -3.541940133111    -0.771467462635     4.982880870213    15.994914619570
         H           -2.510911228240    -0.075084488143     3.663770776420     1.007825032230
         H           -5.153821716069    -0.857321499967     4.213223765205     1.007825032230

  Charge       = -1
  Multiplicity = 1
  Basis Set: AUG-CC-PVTZ
    Blend: AUG-CC-PVTZ
  Basis Set: (AUG-CC-PVTZ AUX)
    Blend: AUG-CC-PVTZ-JKFIT

    Orbital Energies [Eh]
    ---------------------

    Doubly Occupied:

       1A   -489.772367     2A    -64.912885     3A    -58.267371
       4A    -58.267368     5A    -58.267324     6A    -20.411859
       7A    -20.403552     8A    -20.380901     9A     -9.585411
      10A     -7.193033    11A     -7.192839    12A     -7.192781
      13A     -2.934641    14A     -2.934608    15A     -2.934496
      16A     -2.934289    17A     -2.934274    18A     -1.206512
      19A     -1.197789    20A     -1.186967    21A     -0.750448
      22A     -0.569457    23A     -0.565533    24A     -0.544776
      25A     -0.444326    26A     -0.440813    27A     -0.411510
      28A     -0.361542    29A     -0.355336    30A     -0.332146
      31A     -0.201012    32A     -0.197707    33A     -0.195814

  @DF-RHF Final Energy: -2800.74631910394100

   => Energetics <=

    Nuclear Repulsion Energy =            246.2363795257618904
    One-Electron Energy =               -4403.0020232611286701
    Two-Electron Energy =                1356.0193246314263433
    Total Energy =                      -2800.7463191039405501
 Dipole X            :          2.3825271           -3.0936858           -0.7111586
 Dipole Y            :        108.1955408         -106.1844442            2.0110966
 Dipole Z            :        -64.4915952           63.1424130           -1.3491822
 Magnitude           :                                                    2.5239946
  Basis Set: (AUG-CC-PVTZ AUX)
    Blend: AUG-CC-PVTZ-RI
	 Reference Energy          =   -2800.7463191039410049 [Eh]
	 Singles Energy            =      -0.0000000000000000 [Eh]
	 Same-Spin Energy          =      -0.3023690300149975 [Eh]
	 Opposite-Spin Energy      =      -0.8610020171925660 [Eh]
	 Correlation Energy        =      -1.1633710472075633 [Eh]
	 Total Energy              =   -2801.9096901511484248 [Eh]

	 ================> DF-SCS-MP2 Energies <==================
	-----------------------------------------------------------
	 SCS Same-Spin Scale       =       0.3333333333333333 [-]
	 SCS Opposite-Spin Scale   =       1.2000000000000000 [-]
	 SCS Same-Spin Energy      =      -0.1007896766716658 [Eh]
	 SCS Opposite-Spin Energy  =      -1.0332024206310790 [Eh]
	 SCS Correlation Energy    =      -1.1339920973027449 [Eh]
	 SCS Total Energy          =   -2801.8803112012437850 [Eh]
	-----------------------------------------------------------

*** Psi4 exiting successfully. Buy a developer a beer!
