                               Psi4 1.8.2 release

  ==> Input File <==

--------------------------------------------------------------------------
MEMORY 60 GB

molecule dimer {
0 1
Gh(Br)     0.000000     0.000000     0.000000
O          1.901186     1.766278     1.976425
H          2.014537     1.299148     2.815032
H          1.226952     1.162183     1.576218
Gh(O)      1.090075     3.227324    -1.160627
Gh(H)      2.009569     3.131599    -1.409539
Gh(H)      0.759246     2.452516    -0.697298
Gh(O)      1.036749    -1.103900     3.095540
Gh(H)      0.435450    -1.042285     2.289662
Gh(H)      1.911055    -1.239199     2.756827
Gh(O)     -2.629643     2.018819     0.922667
Gh(H)     -1.841866     1.463958     1.121590
Gh(H)     -2.314172     2.927331     0.932451
Gh(O)     -2.583292    -1.610021    -1.363785
Gh(H)     -2.276380    -1.035941    -0.678244
Gh(H)     -1.849291    -1.880891    -1.897783

units ang
no_reorient
no_com
symmetry c1
}

set {
basis        aug-cc-pVTZ
scf_type     df
}

energy("mp2")
--------------------------------------------------------------------------

    Molecular point group: c1

    Geometry (in Angstrom), charge = 0, multiplicity = 1:

       Center              X                  Y                   Z               Mass
    ------------   -----------------  -----------------  -----------------  -----------------
      Gh(BR)          0.000000000000     0.000000000000     0.000000000000    78.918337600000
         O            1.901186000000     1.766278000000     1.976425000000    15.994914619570
         H            2.014537000000     1.299148000000     2.815032000000     1.007825032230
         H            1.226952000000     1.162183000000     1.576218000000     1.007825032230
      Gh(O)           1.090075000000     3.227324000000    -1.160627000000    15.994914619570
      Gh(H)           2.009569000000     3.131599000000    -1.409539000000     1.007825032230
      Gh(H)           0.759246000000     2.452516000000    -0.697298000000     1.007825032230
      Gh(O)           1.036749000000    -1.103900000000     3.095540000000    15.994914619570
      Gh(H)           0.435450000000    -1.042285000000     2.289662000000     1.007825032230
      Gh(H)           1.911055000000    -1.239199000000     2.756827000000     1.007825032230
      Gh(O)          -2.629643000000     2.018819000000     0.922667000000    15.994914619570
      Gh(H)          -1.841866000000     1.463958000000     1.121590000000     1.007825032230
      Gh(H)          -2.314172000000     2.927331000000     0.932451000000     1.007825032230
      Gh(O)          -2.583292000000    -1.610021000000    -1.363785000000    15.994914619570
      Gh(H)          -2.276380000000    -1.035941000000    -0.678244000000     1.007825032230
      Gh(H)          -1.849291000000    -1.880891000000    -1.897783000000     1.007825032230

  Charge       = 0
  Multiplicity = 1
  Basis Set: AUG-CC-PVTZ
    Blend: AUG-CC-PVTZ
  Basis Set: (AUG-CC-PVTZ AUX)
    Blend: AUG-CC-PVTZ-JKFIT

    Orbital Energies [Eh]
    ---------------------

    Doubly Occupied:

       1A    -20.573650     2A     -1.347878     3A     -0.693429
       4A     -0.593918     5A     -0.510641

  @DF-RHF Final Energy:   -76.05686731785386

   => Energetics <=

    Nuclear Repulsion Energy =              9.0156888717110188
    One-Electron Energy =                -122.7060752233737873
    Two-Electron Energy =                  37.6335190338089092
    Total Energy =                        -76.0568673178538575
 Dipole X            :        -35.2265684           34.8672933           -0.3592751
 Dipole Y            :        -32.0438483           31.3534949           -0.6903534
 Dipole Z            :        -37.8909250           38.1774755            0.2865505
 Magnitude           :                                                    0.8293236
  Basis Set: (AUG-CC-PVTZ AUX)
    Blend: AUG-CC-PVTZ-RI
	 Reference Energy          =     -76.0568673178538575 [Eh]
	 Singles Energy            =      -0.0000000000000000 [Eh]
	 Same-Spin Energy          =      -0.0689586400894145 [Eh]
	 Opposite-Spin Energy      =      -0.2174984635778894 [Eh]
	 Correlation Energy        =      -0.2864571036673039 [Eh]
	 Total Energy              =     -76.3433244215211602 [Eh]

	 ================> DF-SCS-MP2 Energies <==================
	-----------------------------------------------------------
	 SCS Same-Spin Scale       =       0.3333333333333333 [-]
	 SCS Opposite-Spin Scale   =       1.2000000000000000 [-]
	 SCS Same-Spin Energy      =      -0.0229862133631382 [Eh]
	 SCS Opposite-Spin Energy  =      -0.2609981562934672 [Eh]
	 SCS Correlation Energy    =      -0.2839843696566054 [Eh]
	 SCS Total Energy          =     -76.3408516875104652 [Eh]
	-----------------------------------------------------------

*** Psi4 exiting successfully. Buy a developer a beer!
