                               Psi4 1.8.2 release

  ==> Input File <==

--------------------------------------------------------------------------
MEMORY 60 GB

molecule dimer {
-1 1
Br         0.000000     0.000000     0.000000
Gh(O)      1.746665    -1.522862     2.344313
Gh(H)      1.302761    -1.244800     1.535866
Gh(H)      1.477658    -0.946620     3.043779
Gh(O)     -0.155414     2.367422     2.373797
Gh(H)      0.139736     1.933532     1.509779
Gh(H)      0.044268     3.347623     2.380588
Gh(O)     -0.953764    -2.860809     1.638351
Gh(H)     -0.679006    -1.912495     1.469971
Gh(H)     -1.756172    -2.763420     2.109332
Gh(O)      2.595437     2.106666    -1.112278
Gh(H)      3.150772     2.235622    -0.338113
Gh(H)      1.872541     1.501902    -0.905209
Gh(O)     -3.071740    -0.470450    -1.805587
Gh(H)     -2.939395    -1.394781    -2.194465
Gh(H)     -2.208285    -0.394983    -1.343831

units ang
no_reorient
no_com
symmetry c1
}

set {
basis        aug-cc-pVTZ
scf_type     df
}

energy("mp2")
--------------------------------------------------------------------------

    Molecular point group: c1

    Geometry (in Angstrom), charge = -1, multiplicity = 1:

       Center              X                  Y                   Z               Mass
    ------------   -----------------  -----------------  -----------------  -----------------
         BR           0.000000000000     0.000000000000     0.000000000000    78.918337600000
      Gh(O)           1.746665000000    -1.522862000000     2.344313000000    15.994914619570
      Gh(H)           1.302761000000    -1.244800000000     1.535866000000     1.007825032230
      Gh(H)           1.477658000000    -0.946620000000     3.043779000000     1.007825032230
      Gh(O)          -0.155414000000     2.367422000000     2.373797000000    15.994914619570
      Gh(H)           0.139736000000     1.933532000000     1.509779000000     1.007825032230
      Gh(H)           0.044268000000     3.347623000000     2.380588000000     1.007825032230
      Gh(O)          -0.953764000000    -2.860809000000     1.638351000000    15.994914619570
      Gh(H)          -0.679006000000    -1.912495000000     1.469971000000     1.007825032230
      Gh(H)          -1.756172000000    -2.763420000000     2.109332000000     1.007825032230
      Gh(O)           2.595437000000     2.106666000000    -1.112278000000    15.994914619570
      Gh(H)           3.150772000000     2.235622000000    -0.338113000000     1.007825032230
      Gh(H)           1.872541000000     1.501902000000    -0.905209000000     1.007825032230
      Gh(O)          -3.071740000000    -0.470450000000    -1.805587000000    15.994914619570
      Gh(H)          -2.939395000000    -1.394781000000    -2.194465000000     1.007825032230
      Gh(H)          -2.208285000000    -0.394983000000    -1.343831000000     1.007825032230

  Charge       = -1
  Multiplicity = 1
  Basis Set: AUG-CC-PVTZ
    Blend: AUG-CC-PVTZ
  Basis Set: (AUG-CC-PVTZ AUX)
    Blend: AUG-CC-PVTZ-JKFIT

    Orbital Energies [Eh]
    ---------------------

    Doubly Occupied:

       1A   -489.722168     2A    -64.861772     3A    -58.216305
       4A    -58.216304     5A    -58.216302     6A     -9.533284
       7A     -7.140623     8A     -7.140604     9A     -7.140599
      10A     -2.882326    11A     -2.882323    12A     -2.882308
      13A     -2.882294    14A     -2.882285    15A     -0.685990
      16A     -0.139335    17A     -0.139331    18A     -0.139330

  @DF-RHF Final Energy: -2572.53372983075587

   => Energetics <=

    Nuclear Repulsion Energy =              0.0000000000000000
    One-Electron Energy =               -3593.6604964637494959
    Two-Electron Energy =                1021.1267666329936219
    Total Energy =                      -2572.5337298307558740
 Dipole X            :          0.0000117            0.0000000            0.0000117
 Dipole Y            :          0.0000045            0.0000000            0.0000045
 Dipole Z            :          0.0000802            0.0000000            0.0000802
 Magnitude           :                                                    0.0000812
  Basis Set: (AUG-CC-PVTZ AUX)
    Blend: AUG-CC-PVTZ-RI
	 Reference Energy          =   -2572.5337298307558740 [Eh]
	 Singles Energy            =      -0.0000000000000000 [Eh]
	 Same-Spin Energy          =      -0.0912245689787532 [Eh]
	 Opposite-Spin Energy      =      -0.2123561027126379 [Eh]
	 Correlation Energy        =      -0.3035806716913911 [Eh]
	 Total Energy              =   -2572.8373105024470533 [Eh]

	 ================> DF-SCS-MP2 Energies <==================
	-----------------------------------------------------------
	 SCS Same-Spin Scale       =       0.3333333333333333 [-]
	 SCS Opposite-Spin Scale   =       1.2000000000000000 [-]
	 SCS Same-Spin Energy      =      -0.0304081896595844 [Eh]
	 SCS Opposite-Spin Energy  =      -0.2548273232551655 [Eh]
	 SCS Correlation Energy    =      -0.2852355129147499 [Eh]
	 SCS Total Energy          =   -2572.8189653436706976 [Eh]
	-----------------------------------------------------------

*** Psi4 exiting successfully. Buy a developer a beer!
