                               Psi4 1.8.2 release

  ==> Input File <==

--------------------------------------------------------------------------
MEMORY 60 GB

molecule dimer {
0 1
Gh(Br)     0.000000     0.000000     0.000000
Gh(O)     -0.287333     2.284328    -2.676686
Gh(H)     -1.189125     2.076961    -2.470743
Gh(H)     -0.308977     3.169615    -2.898919
Gh(O)     -1.718717     2.800508     0.791810
Gh(H)     -2.180920     2.574620     1.591008
Gh(H)     -0.948950     2.241505     0.681251
Gh(O)     -2.250627    -0.708753     2.444791
Gh(H)     -1.797196    -0.353230     1.633466
Gh(H)     -2.625319    -0.031601     3.013515
Gh(O)     -2.337161    -0.758344    -2.197429
Gh(H)     -1.490115    -0.559072    -1.771491
Gh(H)     -2.455913     0.011097    -2.808030
Gh(O)      1.696005     2.609774    -0.856759
Gh(H)      0.957190     2.071096    -1.210993
Gh(H)      1.833312     3.412589    -1.305303
Gh(O)      1.181919     0.124288    -3.224854
Gh(H)      1.566148    -0.220066    -2.442840
Gh(H)      0.740878     0.911603    -2.939958
O         -0.730787    -3.301075    -0.609983
H         -0.652545    -2.326531    -0.429398
H         -0.243929    -3.672456     0.120854

units ang
no_reorient
no_com
symmetry c1
}

set {
basis        aug-cc-pVTZ
scf_type     df
}

energy("mp2")
--------------------------------------------------------------------------

    Molecular point group: c1

    Geometry (in Angstrom), charge = 0, multiplicity = 1:

       Center              X                  Y                   Z               Mass
    ------------   -----------------  -----------------  -----------------  -----------------
      Gh(BR)          0.000000000000     0.000000000000     0.000000000000    78.918337600000
      Gh(O)          -0.287333000000     2.284328000000    -2.676686000000    15.994914619570
      Gh(H)          -1.189125000000     2.076961000000    -2.470743000000     1.007825032230
      Gh(H)          -0.308977000000     3.169615000000    -2.898919000000     1.007825032230
      Gh(O)          -1.718717000000     2.800508000000     0.791810000000    15.994914619570
      Gh(H)          -2.180920000000     2.574620000000     1.591008000000     1.007825032230
      Gh(H)          -0.948950000000     2.241505000000     0.681251000000     1.007825032230
      Gh(O)          -2.250627000000    -0.708753000000     2.444791000000    15.994914619570
      Gh(H)          -1.797196000000    -0.353230000000     1.633466000000     1.007825032230
      Gh(H)          -2.625319000000    -0.031601000000     3.013515000000     1.007825032230
      Gh(O)          -2.337161000000    -0.758344000000    -2.197429000000    15.994914619570
      Gh(H)          -1.490115000000    -0.559072000000    -1.771491000000     1.007825032230
      Gh(H)          -2.455913000000     0.011097000000    -2.808030000000     1.007825032230
      Gh(O)           1.696005000000     2.609774000000    -0.856759000000    15.994914619570
      Gh(H)           0.957190000000     2.071096000000    -1.210993000000     1.007825032230
      Gh(H)           1.833312000000     3.412589000000    -1.305303000000     1.007825032230
      Gh(O)           1.181919000000     0.124288000000    -3.224854000000    15.994914619570
      Gh(H)           1.566148000000    -0.220066000000    -2.442840000000     1.007825032230
      Gh(H)           0.740878000000     0.911603000000    -2.939958000000     1.007825032230
         O           -0.730787000000    -3.301075000000    -0.609983000000    15.994914619570
         H           -0.652545000000    -2.326531000000    -0.429398000000     1.007825032230
         H           -0.243929000000    -3.672456000000     0.120854000000     1.007825032230

  Charge       = 0
  Multiplicity = 1
  Basis Set: AUG-CC-PVTZ
    Blend: AUG-CC-PVTZ
  Basis Set: (AUG-CC-PVTZ AUX)
    Blend: AUG-CC-PVTZ-JKFIT

    Orbital Energies [Eh]
    ---------------------

    Doubly Occupied:

       1A    -20.571218     2A     -1.347522     3A     -0.703518
       4A     -0.587069     5A     -0.509877

  @DF-RHF Final Energy:   -76.05801064819964

   => Energetics <=

    Nuclear Repulsion Energy =              9.0484778086665258
    One-Electron Energy =                -122.7745677708814327
    Two-Electron Energy =                  37.6680793140152659
    Total Energy =                        -76.0580106481996268
 Dipole X            :         13.1132681          -12.7419886            0.3712794
 Dipole Y            :         61.6291327          -61.2414638            0.3876689
 Dipole Z            :         10.4030784           -9.8046701            0.5984082
 Magnitude           :                                                    0.8038831
  Basis Set: (AUG-CC-PVTZ AUX)
    Blend: AUG-CC-PVTZ-RI
	 Reference Energy          =     -76.0580106481996410 [Eh]
	 Singles Energy            =      -0.0000000000000000 [Eh]
	 Same-Spin Energy          =      -0.0687434775470658 [Eh]
	 Opposite-Spin Energy      =      -0.2169316133183976 [Eh]
	 Correlation Energy        =      -0.2856750908654633 [Eh]
	 Total Energy              =     -76.3436857390651085 [Eh]

	 ================> DF-SCS-MP2 Energies <==================
	-----------------------------------------------------------
	 SCS Same-Spin Scale       =       0.3333333333333333 [-]
	 SCS Opposite-Spin Scale   =       1.2000000000000000 [-]
	 SCS Same-Spin Energy      =      -0.0229144925156886 [Eh]
	 SCS Opposite-Spin Energy  =      -0.2603179359820770 [Eh]
	 SCS Correlation Energy    =      -0.2832324284977656 [Eh]
	 SCS Total Energy          =     -76.3412430766974097 [Eh]
	-----------------------------------------------------------

*** Psi4 exiting successfully. Buy a developer a beer!
