                               Psi4 1.8.2 release

  ==> Input File <==

--------------------------------------------------------------------------
MEMORY 60 GB

molecule dimer {
-1 1
Br         0.000000     0.000000     0.000000
Gh(O)     -1.375620     3.047926    -1.337998
Gh(H)     -0.877399     3.716957    -0.861773
Gh(H)     -0.951090     2.166142    -1.171486
Gh(O)      2.709632    -1.863457     0.517570
Gh(H)      2.540301    -2.686032     0.113931
Gh(H)      1.960279    -1.257251     0.338176
Gh(O)     -1.907275    -2.478936    -1.045372
Gh(H)     -1.364393    -1.760338    -0.788272
Gh(H)     -2.530730    -2.108684    -1.652647

units ang
no_reorient
no_com
symmetry c1
}

set {
basis        aug-cc-pVTZ
scf_type     df
}

energy("mp2")
--------------------------------------------------------------------------

    Molecular point group: c1

    Geometry (in Angstrom), charge = -1, multiplicity = 1:

       Center              X                  Y                   Z               Mass
    ------------   -----------------  -----------------  -----------------  -----------------
         BR           0.000000000000     0.000000000000     0.000000000000    78.918337600000
      Gh(O)          -1.375620000000     3.047926000000    -1.337998000000    15.994914619570
      Gh(H)          -0.877399000000     3.716957000000    -0.861773000000     1.007825032230
      Gh(H)          -0.951090000000     2.166142000000    -1.171486000000     1.007825032230
      Gh(O)           2.709632000000    -1.863457000000     0.517570000000    15.994914619570
      Gh(H)           2.540301000000    -2.686032000000     0.113931000000     1.007825032230
      Gh(H)           1.960279000000    -1.257251000000     0.338176000000     1.007825032230
      Gh(O)          -1.907275000000    -2.478936000000    -1.045372000000    15.994914619570
      Gh(H)          -1.364393000000    -1.760338000000    -0.788272000000     1.007825032230
      Gh(H)          -2.530730000000    -2.108684000000    -1.652647000000     1.007825032230

  Charge       = -1
  Multiplicity = 1
  Basis Set: AUG-CC-PVTZ
    Blend: AUG-CC-PVTZ
  Basis Set: (AUG-CC-PVTZ AUX)
    Blend: AUG-CC-PVTZ-JKFIT

    Orbital Energies [Eh]
    ---------------------

    Doubly Occupied:

       1A   -489.721643     2A    -64.861373     3A    -58.215892
       4A    -58.215890     5A    -58.215888     6A     -9.533149
       7A     -7.140503     8A     -7.140475     9A     -7.140468
      10A     -2.882188    11A     -2.882181    12A     -2.882175
      13A     -2.882172    14A     -2.882154    15A     -0.685995
      16A     -0.139339    17A     -0.139336    18A     -0.139334

  @DF-RHF Final Energy: -2572.53370873754830

   => Energetics <=

    Nuclear Repulsion Energy =              0.0000000000000000
    One-Electron Energy =               -3593.6671055706337938
    Two-Electron Energy =                1021.1333968330853850
    Total Energy =                      -2572.5337087375482952
 Dipole X            :          0.0000345            0.0000000            0.0000345
 Dipole Y            :         -0.0000285            0.0000000           -0.0000285
 Dipole Z            :         -0.0001282            0.0000000           -0.0001282
 Magnitude           :                                                    0.0001358
  Basis Set: (AUG-CC-PVTZ AUX)
    Blend: AUG-CC-PVTZ-RI
	 Reference Energy          =   -2572.5337087375482952 [Eh]
	 Singles Energy            =      -0.0000000000000000 [Eh]
	 Same-Spin Energy          =      -0.0898205769785399 [Eh]
	 Opposite-Spin Energy      =      -0.2089180898483250 [Eh]
	 Correlation Energy        =      -0.2987386668268649 [Eh]
	 Total Energy              =   -2572.8324474043752161 [Eh]

	 ================> DF-SCS-MP2 Energies <==================
	-----------------------------------------------------------
	 SCS Same-Spin Scale       =       0.3333333333333333 [-]
	 SCS Opposite-Spin Scale   =       1.2000000000000000 [-]
	 SCS Same-Spin Energy      =      -0.0299401923261800 [Eh]
	 SCS Opposite-Spin Energy  =      -0.2507017078179899 [Eh]
	 SCS Correlation Energy    =      -0.2806419001441699 [Eh]
	 SCS Total Energy          =   -2572.8143506376923142 [Eh]
	-----------------------------------------------------------

*** Psi4 exiting successfully. Buy a developer a beer!
