                               Psi4 1.8.2 release

  ==> Input File <==

--------------------------------------------------------------------------
MEMORY 60 GB

molecule dimer {
-1 1
Br         0.000000     0.000000     0.000000
O          3.287674    -0.889413    -0.174356
H          2.291823    -0.896161    -0.076636
H          3.344902    -0.512476    -1.041446
O          0.571519     3.175317    -0.846170
H          0.928904     2.305382    -0.539798
H          1.302047     3.732851    -1.068660
O          0.642149    -1.354710    -2.748407
H          0.407845    -0.866599    -1.970799
H         -0.147391    -1.177426    -3.323453

units ang
no_reorient
no_com
symmetry c1
}

set {
basis        aug-cc-pVTZ
scf_type     df
}

energy("mp2")
--------------------------------------------------------------------------

    Molecular point group: c1

    Geometry (in Angstrom), charge = -1, multiplicity = 1:

       Center              X                  Y                   Z               Mass
    ------------   -----------------  -----------------  -----------------  -----------------
         BR           0.000000000000     0.000000000000     0.000000000000    78.918337600000
         O            3.287674000000    -0.889413000000    -0.174356000000    15.994914619570
         H            2.291823000000    -0.896161000000    -0.076636000000     1.007825032230
         H            3.344902000000    -0.512476000000    -1.041446000000     1.007825032230
         O            0.571519000000     3.175317000000    -0.846170000000    15.994914619570
         H            0.928904000000     2.305382000000    -0.539798000000     1.007825032230
         H            1.302047000000     3.732851000000    -1.068660000000     1.007825032230
         O            0.642149000000    -1.354710000000    -2.748407000000    15.994914619570
         H            0.407845000000    -0.866599000000    -1.970799000000     1.007825032230
         H           -0.147391000000    -1.177426000000    -3.323453000000     1.007825032230

  Charge       = -1
  Multiplicity = 1
  Basis Set: AUG-CC-PVTZ
    Blend: AUG-CC-PVTZ
  Basis Set: (AUG-CC-PVTZ AUX)
    Blend: AUG-CC-PVTZ-JKFIT

    Orbital Energies [Eh]
    ---------------------

    Doubly Occupied:

       1A   -489.767489     2A    -64.907976     3A    -58.262471
       4A    -58.262446     5A    -58.262430     6A    -20.419058
       7A    -20.405920     8A    -20.403363     9A     -9.580463
      10A     -7.188047    11A     -7.187951    12A     -7.187801
      13A     -2.929674    14A     -2.929662    15A     -2.929492
      16A     -2.929383    17A     -2.929359    18A     -1.200588
      19A     -1.188482    20A     -1.187215    21A     -0.746622
      22A     -0.572858    23A     -0.544198    24A     -0.536798
      25A     -0.437218    26A     -0.432018    27A     -0.431442
      28A     -0.362840    29A     -0.349762    30A     -0.349119
      31A     -0.195362    32A     -0.193387    33A     -0.191949

  @DF-RHF Final Energy: -2800.73854759332198

   => Energetics <=

    Nuclear Repulsion Energy =            237.3003574109795011
    One-Electron Energy =               -4385.2721199278848871
    Two-Electron Energy =                1347.2332149235828638
    Total Energy =                      -2800.7385475933224370
 Dipole X            :        -84.5420723           83.4103682           -1.1317041
 Dipole Y            :        -18.5043837           18.9636341            0.4592504
 Dipole Z            :         72.3678066          -72.1351094            0.2326972
 Magnitude           :                                                    1.2433073
  Basis Set: (AUG-CC-PVTZ AUX)
    Blend: AUG-CC-PVTZ-RI
	 Reference Energy          =   -2800.7385475933219823 [Eh]
	 Singles Energy            =      -0.0000000000000000 [Eh]
	 Same-Spin Energy          =      -0.3037980503661316 [Eh]
	 Opposite-Spin Energy      =      -0.8652281108340528 [Eh]
	 Correlation Energy        =      -1.1690261612001844 [Eh]
	 Total Energy              =   -2801.9075737545222182 [Eh]

	 ================> DF-SCS-MP2 Energies <==================
	-----------------------------------------------------------
	 SCS Same-Spin Scale       =       0.3333333333333333 [-]
	 SCS Opposite-Spin Scale   =       1.2000000000000000 [-]
	 SCS Same-Spin Energy      =      -0.1012660167887105 [Eh]
	 SCS Opposite-Spin Energy  =      -1.0382737330008633 [Eh]
	 SCS Correlation Energy    =      -1.1395397497895738 [Eh]
	 SCS Total Energy          =   -2801.8780873431114742 [Eh]
	-----------------------------------------------------------

*** Psi4 exiting successfully. Buy a developer a beer!
