                               Psi4 1.8.2 release

  ==> Input File <==

--------------------------------------------------------------------------
MEMORY 60 GB

molecule dimer {
0 1
Gh(Br)     0.000000     0.000000     0.000000
Gh(O)     -1.259613    -1.972372    -2.351696
Gh(H)     -0.860891    -1.435419    -1.661193
Gh(H)     -2.112677    -2.309575    -2.092339
Gh(O)     -2.845407     1.529579    -0.341206
Gh(H)     -3.404442     0.725851    -0.231895
Gh(H)     -1.918137     1.227655    -0.418924
Gh(O)      1.203798     0.989340    -2.982723
Gh(H)      1.383848     1.404532    -2.151666
Gh(H)      0.917733     0.079877    -2.748949
Gh(O)     -1.942333    -2.300435     1.090951
Gh(H)     -1.277267    -1.678503     0.760063
Gh(H)     -1.677310    -3.142909     0.788314
O          2.995159    -1.396829    -0.963849
H          2.160999    -1.154144    -0.534338
H          3.403321    -0.551585    -1.226511

units ang
no_reorient
no_com
symmetry c1
}

set {
basis        aug-cc-pVTZ
scf_type     df
}

energy("mp2")
--------------------------------------------------------------------------

    Molecular point group: c1

    Geometry (in Angstrom), charge = 0, multiplicity = 1:

       Center              X                  Y                   Z               Mass
    ------------   -----------------  -----------------  -----------------  -----------------
      Gh(BR)          0.000000000000     0.000000000000     0.000000000000    78.918337600000
      Gh(O)          -1.259613000000    -1.972372000000    -2.351696000000    15.994914619570
      Gh(H)          -0.860891000000    -1.435419000000    -1.661193000000     1.007825032230
      Gh(H)          -2.112677000000    -2.309575000000    -2.092339000000     1.007825032230
      Gh(O)          -2.845407000000     1.529579000000    -0.341206000000    15.994914619570
      Gh(H)          -3.404442000000     0.725851000000    -0.231895000000     1.007825032230
      Gh(H)          -1.918137000000     1.227655000000    -0.418924000000     1.007825032230
      Gh(O)           1.203798000000     0.989340000000    -2.982723000000    15.994914619570
      Gh(H)           1.383848000000     1.404532000000    -2.151666000000     1.007825032230
      Gh(H)           0.917733000000     0.079877000000    -2.748949000000     1.007825032230
      Gh(O)          -1.942333000000    -2.300435000000     1.090951000000    15.994914619570
      Gh(H)          -1.277267000000    -1.678503000000     0.760063000000     1.007825032230
      Gh(H)          -1.677310000000    -3.142909000000     0.788314000000     1.007825032230
         O            2.995159000000    -1.396829000000    -0.963849000000    15.994914619570
         H            2.160999000000    -1.154144000000    -0.534338000000     1.007825032230
         H            3.403321000000    -0.551585000000    -1.226511000000     1.007825032230

  Charge       = 0
  Multiplicity = 1
  Basis Set: AUG-CC-PVTZ
    Blend: AUG-CC-PVTZ
  Basis Set: (AUG-CC-PVTZ AUX)
    Blend: AUG-CC-PVTZ-JKFIT

    Orbital Energies [Eh]
    ---------------------

    Doubly Occupied:

       1A    -20.569364     2A     -1.345584     3A     -0.711151
       4A     -0.580669     5A     -0.508929

  @DF-RHF Final Energy:   -76.05931306826444

   => Energetics <=

    Nuclear Repulsion Energy =              9.0542530164534494
    One-Electron Energy =                -122.7957359829928947
    Two-Electron Energy =                  37.6821698982750206
    Total Energy =                        -76.0593130682644301
 Dipole X            :        -56.0776860           55.7952826           -0.2824035
 Dipole Y            :         25.0587008          -24.3403547            0.7183462
 Dipole Z            :         18.0097200          -17.8988074            0.1109126
 Magnitude           :                                                    0.7797913
  Basis Set: (AUG-CC-PVTZ AUX)
    Blend: AUG-CC-PVTZ-RI
	 Reference Energy          =     -76.0593130682644443 [Eh]
	 Singles Energy            =      -0.0000000000000000 [Eh]
	 Same-Spin Energy          =      -0.0686316535440215 [Eh]
	 Opposite-Spin Energy      =      -0.2165428690668396 [Eh]
	 Correlation Energy        =      -0.2851745226108612 [Eh]
	 Total Energy              =     -76.3444875908753033 [Eh]

	 ================> DF-SCS-MP2 Energies <==================
	-----------------------------------------------------------
	 SCS Same-Spin Scale       =       0.3333333333333333 [-]
	 SCS Opposite-Spin Scale   =       1.2000000000000000 [-]
	 SCS Same-Spin Energy      =      -0.0228772178480072 [Eh]
	 SCS Opposite-Spin Energy  =      -0.2598514428802076 [Eh]
	 SCS Correlation Energy    =      -0.2827286607282147 [Eh]
	 SCS Total Energy          =     -76.3420417289926547 [Eh]
	-----------------------------------------------------------

*** Psi4 exiting successfully. Buy a developer a beer!
