                               Psi4 1.9 release

  ==> Input File <==

--------------------------------------------------------------------------
MEMORY 60 GB

molecule dimer {
-1 1
Br     0.000000     0.000000     0.000000
--
0 1
O     -0.389734    -0.598419    -3.176388
H     -0.465508     0.292966    -3.519841
H      0.113003    -0.512129    -2.347686
O      1.397414     3.038515     0.513452
H      0.940691     3.150955     1.319867
H      1.055355     2.289705     0.200989
O      1.276458    -2.240841     2.084055
H      2.053789    -2.628877     1.781351
H      0.942450    -1.517205     1.560668
O      2.870105    -1.015920    -1.248286
H      3.514743    -0.967933    -0.518971
H      2.050698    -0.852438    -0.717526
O     -1.016719     3.064452    -1.085676
H     -1.384642     2.386952    -1.618609
H     -0.007287     3.049352    -1.229396

units ang
no_reorient
no_com
symmetry c1
}

set {
basis        aug-cc-pVTZ
scf_type     df
}

energy("mp2", bsse_type="cp")
--------------------------------------------------------------------------

                               Psi4 1.9 release
    Molecular point group: c1
  Charge       = 0
  Multiplicity = 1
  Basis Set: AUG-CC-PVTZ
    Blend: AUG-CC-PVTZ
  Basis Set: (AUG-CC-PVTZ AUX)
    Blend: AUG-CC-PVTZ-JKFIT
  @DF-RHF Final Energy:  -380.27743602911227
    Total Energy =                       -380.2774360291122662
 Dipole X            :        -78.7795669           79.2050057            0.4254388
 Dipole Y            :        -42.7326581           42.8469774            0.1143193
 Dipole Z            :         54.1141876          -53.6529114            0.4612762
 Magnitude           :                                                    0.6378423
  Basis Set: (AUG-CC-PVTZ AUX)
    Blend: AUG-CC-PVTZ-RI
	 Reference Energy          =    -380.2774360291122662 [Eh]
	 Singles Energy            =      -0.0000000000000000 [Eh]
	 Same-Spin Energy          =      -0.3439575980802998 [Eh]
	 Opposite-Spin Energy      =      -1.0809488454648313 [Eh]
	 Correlation Energy        =      -1.4249064435451311 [Eh]
	 Total Energy              =    -381.7023424726573921 [Eh]
	 SCS Total Energy          =    -381.6892271763634881 [Eh]
                               Psi4 1.9 release
    Molecular point group: c1
  Multiplicity = 1
  Basis Set: AUG-CC-PVTZ
    Blend: AUG-CC-PVTZ
  Basis Set: (AUG-CC-PVTZ AUX)
    Blend: AUG-CC-PVTZ-JKFIT
  @DF-RHF Final Energy: -2572.53372947459684
    Total Energy =                      -2572.5337294745968393
  Basis Set: (AUG-CC-PVTZ AUX)
	 Singles Energy            =      -0.0000000000000000 [Eh]
	 Same-Spin Energy          =      -0.0912765960653733 [Eh]
	 Opposite-Spin Energy      =      -0.2125085898738448 [Eh]
	 Correlation Energy        =      -0.3037851859392181 [Eh]
	 Total Energy              =   -2572.8375146605362715 [Eh]
	 SCS Total Energy          =   -2572.8191653144672273 [Eh]
                               Psi4 1.9 release
    Molecular point group: c1

    Geometry (in Bohr), charge = -1, multiplicity = 1:

       Center              X                  Y                   Z               Mass
    ------------   -----------------  -----------------  -----------------  -----------------
         BR           0.000000000000     0.000000000000     0.000000000000    78.918337600000
         O           -0.736490521779    -1.130848018270    -6.002503388191    15.994914619570
         H           -0.879682629210     0.553625504071    -6.651535495158     1.007825032230
         H            0.213544721355    -0.967783550905    -4.436483568572     1.007825032230
         O            2.640729743881     5.741961178095     0.970283658569    15.994914619570
         H            1.777648358683     5.954441983642     2.494187152030     1.007825032230
         H            1.994331915133     4.326915358091     0.379814164230     1.007825032230
         O            2.412156030650    -4.234575780697     3.938293180391    15.994914619570
         H            3.881098729478    -4.967857547515     3.366265523310     1.007825032230
         H            1.780972386938    -2.867101926175     2.949235092766     1.007825032230
         O            5.423712401307    -1.919810565375    -2.358918666243    15.994914619570
         H            6.641901671370    -1.829128277793    -0.980713057055     1.007825032230
         H            3.875257586024    -1.610874358933    -1.355927627895     1.007825032230
         O           -1.921320456549     5.790975004611    -2.051630300983    15.994914619570
         H           -2.616594161806     4.510685554614    -3.058727714201     1.007825032230
         H           -0.013770434276     5.762440140117    -2.323221739733     1.007825032230

  Charge       = -1
  Multiplicity = 1
  Basis Set: AUG-CC-PVTZ
    Blend: AUG-CC-PVTZ
  Basis Set: (AUG-CC-PVTZ AUX)
    Blend: AUG-CC-PVTZ-JKFIT

    Orbital Energies [Eh]
    ---------------------

    Doubly Occupied:

       1A   -489.789166     2A    -64.929802     3A    -58.284292
       4A    -58.284271     5A    -58.284243     6A    -20.434119
       7A    -20.426290     8A    -20.421951     9A    -20.417788
      10A    -20.412480    11A     -9.602308    12A     -7.209915
      13A     -7.209869    14A     -7.209639    15A     -2.951563
      16A     -2.951552    17A     -2.951300    18A     -2.951219
      19A     -2.951160    20A     -1.251270    21A     -1.214588
      22A     -1.210032    23A     -1.202973    24A     -1.201838
      25A     -0.771932    26A     -0.614614    27A     -0.608160
      28A     -0.578919    29A     -0.569379    30A     -0.550414
      31A     -0.470384    32A     -0.454795    33A     -0.446054
      34A     -0.438716    35A     -0.428277    36A     -0.389778
      37A     -0.371066    38A     -0.367980    39A     -0.366565
      40A     -0.363708    41A     -0.218528    42A     -0.217619
      43A     -0.215164

  @DF-RHF Final Energy: -2952.86012614880929

   => Energetics <=

    Nuclear Repulsion Energy =            449.5622461676082366
    One-Electron Energy =               -5020.4533769177851354
    Two-Electron Energy =                1618.0310046013678402
    Total Energy =                      -2952.8601261488088312
 Dipole X            :        -79.5138303           79.2050057           -0.3088246
 Dipole Y            :        -42.6837804           42.8469774            0.1631970
 Dipole Z            :         54.3690841          -53.6529114            0.7161727
 Magnitude           :                                                    0.7968119
  Basis Set: (AUG-CC-PVTZ AUX)
    Blend: AUG-CC-PVTZ-RI
	 Reference Energy          =   -2952.8601261488092860 [Eh]
	 Singles Energy            =      -0.0000000000000000 [Eh]
	 Same-Spin Energy          =      -0.4451625436146252 [Eh]
	 Opposite-Spin Energy      =      -1.3011088674348292 [Eh]
	 Correlation Energy        =      -1.7462714110494544 [Eh]
	 Total Energy              =   -2954.6063975598585785 [Eh]

	 ================> DF-SCS-MP2 Energies <==================
	-----------------------------------------------------------
	 SCS Same-Spin Scale       =       0.3333333333333333 [-]
	 SCS Opposite-Spin Scale   =       1.2000000000000000 [-]
	 SCS Same-Spin Energy      =      -0.1483875145382084 [Eh]
	 SCS Opposite-Spin Energy  =      -1.5613306409217951 [Eh]
	 SCS Correlation Energy    =      -1.7097181554600034 [Eh]
	 SCS Total Energy          =   -2954.5698443042692816 [Eh]
	-----------------------------------------------------------

*** Psi4 exiting successfully. Buy a developer a beer!
