                               Psi4 1.9 release

  ==> Input File <==

--------------------------------------------------------------------------
MEMORY 60 GB

molecule dimer {
-1 1
Br     0.000000     0.000000     0.000000
--
0 1
O      1.214755     2.032402     2.352565
H      0.843379     1.290858     1.788319
H      2.176535     2.115299     2.233161
O     -1.899098     2.893105     0.263373
H     -2.377616     3.120026    -0.530168
H     -1.651951     1.952131     0.230723
O      1.184394     2.722133    -1.786102
H      0.888960     1.954533    -1.303810
H      0.985690     3.441294    -1.194986
O     -3.316529    -1.099441    -0.081057
H     -2.506499    -0.600404    -0.183707
H     -3.485828    -1.108557     0.900656

units ang
no_reorient
no_com
symmetry c1
}

set {
basis        aug-cc-pVTZ
scf_type     df
}

energy("mp2", bsse_type="cp")
--------------------------------------------------------------------------

                               Psi4 1.9 release
    Molecular point group: c1
  Charge       = 0
  Multiplicity = 1
  Basis Set: AUG-CC-PVTZ
    Blend: AUG-CC-PVTZ
  Basis Set: (AUG-CC-PVTZ AUX)
    Blend: AUG-CC-PVTZ-JKFIT
  @DF-RHF Final Energy:  -304.22990909748177
    Total Energy =                       -304.2299090974817659
 Dipole X            :         52.5538135          -52.2682259            0.2855876
 Dipole Y            :       -122.5205823          121.9832803           -0.5373020
 Dipole Z            :        -14.6618432           14.9863219            0.3244786
 Magnitude           :                                                    0.6895942
  Basis Set: (AUG-CC-PVTZ AUX)
    Blend: AUG-CC-PVTZ-RI
	 Reference Energy          =    -304.2299090974817659 [Eh]
	 Singles Energy            =      -0.0000000000000000 [Eh]
	 Same-Spin Energy          =      -0.2750783027401691 [Eh]
	 Opposite-Spin Energy      =      -0.8662846989344932 [Eh]
	 Correlation Energy        =      -1.1413630016746623 [Eh]
	 Total Energy              =    -305.3712720991564424 [Eh]
	 SCS Total Energy          =    -305.3611435037832393 [Eh]
                               Psi4 1.9 release
    Molecular point group: c1
  Multiplicity = 1
  Basis Set: AUG-CC-PVTZ
    Blend: AUG-CC-PVTZ
  Basis Set: (AUG-CC-PVTZ AUX)
    Blend: AUG-CC-PVTZ-JKFIT
  @DF-RHF Final Energy: -2572.53371826262128
    Total Energy =                      -2572.5337182626217327
  Basis Set: (AUG-CC-PVTZ AUX)
	 Singles Energy            =      -0.0000000000000000 [Eh]
	 Same-Spin Energy          =      -0.0903888317264179 [Eh]
	 Opposite-Spin Energy      =      -0.2102742251633017 [Eh]
	 Correlation Energy        =      -0.3006630568897196 [Eh]
	 Total Energy              =   -2572.8343813195110670 [Eh]
	 SCS Total Energy          =   -2572.8161769433927475 [Eh]
                               Psi4 1.9 release
    Molecular point group: c1

    Geometry (in Bohr), charge = -1, multiplicity = 1:

       Center              X                  Y                   Z               Mass
    ------------   -----------------  -----------------  -----------------  -----------------
         BR           0.000000000000     0.000000000000     0.000000000000    78.918337600000
         O            2.295554259531     3.840683156833     4.445703542338    15.994914619570
         H            1.593755329962     2.439368086856     3.379433134953     1.007825032230
         H            4.113055052473     3.997335783455     4.220062684054     1.007825032230
         O           -3.588775105405     5.467176102193     0.497702838840    15.994914619570
         H           -4.493043071507     5.895994644308    -1.001872320482     1.007825032230
         H           -3.121734962676     3.688992951016     0.436003280844     1.007825032230
         O            2.238180284635     5.144085847071    -3.375243612132    15.994914619570
         H            1.679890936487     3.693532073169    -2.463843819633     1.007825032230
         H            1.862684144603     6.503103177181    -2.258196263756     1.007825032230
         O           -6.267331497139    -2.077642381099    -0.153175530551    15.994914619570
         H           -4.736596643734    -1.134599124629    -0.347155917329     1.007825032230
         H           -6.587260240452    -2.094869124459     1.701993173250     1.007825032230

  Charge       = -1
  Multiplicity = 1
  Basis Set: AUG-CC-PVTZ
    Blend: AUG-CC-PVTZ
  Basis Set: (AUG-CC-PVTZ AUX)
    Blend: AUG-CC-PVTZ-JKFIT

    Orbital Energies [Eh]
    ---------------------

    Doubly Occupied:

       1A   -489.786101     2A    -64.926473     3A    -58.280987
       4A    -58.280964     5A    -58.280930     6A    -20.429458
       7A    -20.421697     8A    -20.411960     9A    -20.411788
      10A     -9.598795    11A     -7.206399    12A     -7.206246
      13A     -7.206138    14A     -2.948055    15A     -2.948021
      16A     -2.947860    17A     -2.947674    18A     -2.947653
      19A     -1.205646    20A     -1.205136    21A     -1.204135
      22A     -1.181397    23A     -0.763490    24A     -0.581571
      25A     -0.570427    26A     -0.566352    27A     -0.560880
      28A     -0.446361    29A     -0.441040    30A     -0.435218
      31A     -0.417955    32A     -0.371575    33A     -0.368400
      34A     -0.359324    35A     -0.352846    36A     -0.213705
      37A     -0.211318    38A     -0.210642

  @DF-RHF Final Energy: -2876.81609559575963

   => Energetics <=

    Nuclear Repulsion Energy =            329.4534292973413585
    One-Electron Energy =               -4674.8298134739188754
    Two-Electron Energy =                1468.5602885808182236
    Total Energy =                      -2876.8160955957591796
 Dipole X            :         52.8314500          -52.2682259            0.5632241
 Dipole Y            :       -123.2824981          121.9832803           -1.2992179
 Dipole Z            :        -14.8643010           14.9863219            0.1220208
 Magnitude           :                                                    1.4212943
  Basis Set: (AUG-CC-PVTZ AUX)
    Blend: AUG-CC-PVTZ-RI
	 Reference Energy          =   -2876.8160955957596343 [Eh]
	 Singles Energy            =      -0.0000000000000000 [Eh]
	 Same-Spin Energy          =      -0.3731072736136174 [Eh]
	 Opposite-Spin Energy      =      -1.0821657720614937 [Eh]
	 Correlation Energy        =      -1.4552730456751111 [Eh]
	 Total Energy              =   -2878.2713686414349468 [Eh]

	 ================> DF-SCS-MP2 Energies <==================
	-----------------------------------------------------------
	 SCS Same-Spin Scale       =       0.3333333333333333 [-]
	 SCS Opposite-Spin Scale   =       1.2000000000000000 [-]
	 SCS Same-Spin Energy      =      -0.1243690912045391 [Eh]
	 SCS Opposite-Spin Energy  =      -1.2985989264737923 [Eh]
	 SCS Correlation Energy    =      -1.4229680176783315 [Eh]
	 SCS Total Energy          =   -2878.2390636134377928 [Eh]
	-----------------------------------------------------------

*** Psi4 exiting successfully. Buy a developer a beer!
