                               Psi4 1.9 release

  ==> Input File <==

--------------------------------------------------------------------------
MEMORY 60 GB

molecule dimer {
-1 1
Br     0.000000     0.000000     0.000000
--
0 1
O     -0.088017     2.381552    -2.261185
H      0.085852     1.513908    -1.878612
H     -0.607832     2.226833    -3.041716
O      3.292755    -0.049072    -1.394388
H      3.313770     0.293662    -0.438862
H      3.329681    -1.029261    -1.327193
O     -1.887489    -1.542891     2.210978
H     -1.391426    -1.135169     1.456088
H     -2.055481    -2.392826     1.818252
O     -1.984809     2.487522     0.009885
H     -1.495227     1.853035    -0.535053
H     -2.258934     2.039837     0.854695
O     -2.275006    -1.329324    -2.141041
H     -1.778768    -1.181051    -2.948824
H     -1.760804    -0.928569    -1.475808

units ang
no_reorient
no_com
symmetry c1
}

set {
basis        aug-cc-pVTZ
scf_type     df
}

energy("mp2", bsse_type="cp")
--------------------------------------------------------------------------

                               Psi4 1.9 release
    Molecular point group: c1
  Charge       = 0
  Multiplicity = 1
  Basis Set: AUG-CC-PVTZ
    Blend: AUG-CC-PVTZ
  Basis Set: (AUG-CC-PVTZ AUX)
    Blend: AUG-CC-PVTZ-JKFIT
  @DF-RHF Final Energy:  -380.28198098352181
    Total Energy =                       -380.2819809835218052
 Dipole X            :         54.0750798          -53.2141151            0.8609647
 Dipole Y            :        -33.4953834           31.8280808           -1.6673026
 Dipole Z            :         67.9499346          -68.2626543           -0.3127197
 Magnitude           :                                                    1.9023543
  Basis Set: (AUG-CC-PVTZ AUX)
    Blend: AUG-CC-PVTZ-RI
	 Reference Energy          =    -380.2819809835218052 [Eh]
	 Singles Energy            =      -0.0000000000000000 [Eh]
	 Same-Spin Energy          =      -0.3450494262202971 [Eh]
	 Opposite-Spin Energy      =      -1.0848762403127248 [Eh]
	 Correlation Energy        =      -1.4299256665330220 [Eh]
	 Total Energy              =    -381.7119066500548001 [Eh]
	 SCS Total Energy          =    -381.6988489473038157 [Eh]
                               Psi4 1.9 release
    Molecular point group: c1
  Multiplicity = 1
  Basis Set: AUG-CC-PVTZ
    Blend: AUG-CC-PVTZ
  Basis Set: (AUG-CC-PVTZ AUX)
    Blend: AUG-CC-PVTZ-JKFIT
  @DF-RHF Final Energy: -2572.53372687808269
    Total Energy =                      -2572.5337268780826889
  Basis Set: (AUG-CC-PVTZ AUX)
	 Singles Energy            =      -0.0000000000000000 [Eh]
	 Same-Spin Energy          =      -0.0910701108977660 [Eh]
	 Opposite-Spin Energy      =      -0.2119776117987081 [Eh]
	 Correlation Energy        =      -0.3030477226964741 [Eh]
	 Total Energy              =   -2572.8367746007793357 [Eh]
	 SCS Total Energy          =   -2572.8184567158737082 [Eh]
                               Psi4 1.9 release
    Molecular point group: c1

    Geometry (in Bohr), charge = -1, multiplicity = 1:

       Center              X                  Y                   Z               Mass
    ------------   -----------------  -----------------  -----------------  -----------------
         BR           0.000000000000     0.000000000000     0.000000000000    78.918337600000
         O           -0.166328024384     4.500481033536    -4.273020368993    15.994914619570
         H            0.162236767323     2.860871499140    -3.550062175999     1.007825032230
         H           -1.148636010289     4.208104497132    -5.748010191423     1.007825032230
         O            6.222405148232    -0.092732640428    -2.635011432625    15.994914619570
         H            6.262117742758     0.554940753454    -0.829328986871     1.007825032230
         H            6.292185175141    -1.945021401615    -2.508031285625     1.007825032230
         O           -3.566837274814    -2.915641431434     4.178142889412    15.994914619570
         H           -2.629414063841    -2.145158516110     2.751607534566     1.007825032230
         H           -3.884296146082    -4.521785805875     3.435998307066     1.007825032230
         O           -3.750745421344     4.700735311051     0.018679942750    15.994914619570
         H           -2.825569525390     3.501728650888    -1.011103632605     1.007825032230
         H           -4.268766595485     3.854733270576     1.615139470798     1.007825032230
         O           -4.299138273773    -2.512058291998    -4.045981113376    15.994914619570
         H           -3.361384360728    -2.231862930198    -5.572469752177     1.007825032230
         H           -3.327437320611    -1.754741098590    -2.788872933760     1.007825032230

  Charge       = -1
  Multiplicity = 1
  Basis Set: AUG-CC-PVTZ
    Blend: AUG-CC-PVTZ
  Basis Set: (AUG-CC-PVTZ AUX)
    Blend: AUG-CC-PVTZ-JKFIT

    Orbital Energies [Eh]
    ---------------------

    Doubly Occupied:

       1A   -489.785363     2A    -64.926020     3A    -58.280519
       4A    -58.280492     5A    -58.280439     6A    -20.452854
       7A    -20.424972     8A    -20.417907     9A    -20.415789
      10A    -20.395401    11A     -9.598558    12A     -7.206258
      13A     -7.206158    14A     -7.205756    15A     -2.947998
      16A     -2.947985    17A     -2.947476    18A     -2.947348
      19A     -2.947227    20A     -1.222486    21A     -1.212197
      22A     -1.209288    23A     -1.200096    24A     -1.168428
      25A     -0.767734    26A     -0.587828    27A     -0.579197
      28A     -0.577934    29A     -0.548232    30A     -0.543999
      31A     -0.455554    32A     -0.454633    33A     -0.448424
      34A     -0.439789    35A     -0.408794    36A     -0.387491
      37A     -0.375095    38A     -0.365500    39A     -0.360192
      40A     -0.338111    41A     -0.216493    42A     -0.214665
      43A     -0.207024

  @DF-RHF Final Energy: -2952.85940533438315

   => Energetics <=

    Nuclear Repulsion Energy =            444.0602349321579254
    One-Electron Energy =               -5010.0318678658268254
    Two-Electron Energy =                1613.1122275992856885
    Total Energy =                      -2952.8594053343831547
 Dipole X            :         54.6857518          -53.2141151            1.4716367
 Dipole Y            :        -33.4780393           31.8280808           -1.6499585
 Dipole Z            :         68.2702880          -68.2626543            0.0076337
 Magnitude           :                                                    2.2109129
  Basis Set: (AUG-CC-PVTZ AUX)
    Blend: AUG-CC-PVTZ-RI
	 Reference Energy          =   -2952.8594053343831547 [Eh]
	 Singles Energy            =      -0.0000000000000000 [Eh]
	 Same-Spin Energy          =      -0.4459619234239123 [Eh]
	 Opposite-Spin Energy      =      -1.3044104881117147 [Eh]
	 Correlation Energy        =      -1.7503724115356269 [Eh]
	 Total Energy              =   -2954.6097777459185636 [Eh]

	 ================> DF-SCS-MP2 Energies <==================
	-----------------------------------------------------------
	 SCS Same-Spin Scale       =       0.3333333333333333 [-]
	 SCS Opposite-Spin Scale   =       1.2000000000000000 [-]
	 SCS Same-Spin Energy      =      -0.1486539744746374 [Eh]
	 SCS Opposite-Spin Energy  =      -1.5652925857340576 [Eh]
	 SCS Correlation Energy    =      -1.7139465602086950 [Eh]
	 SCS Total Energy          =   -2954.5733518945917240 [Eh]
	-----------------------------------------------------------

*** Psi4 exiting successfully. Buy a developer a beer!
