                               Psi4 1.9 release

  ==> Input File <==

--------------------------------------------------------------------------
MEMORY 60 GB

molecule dimer {
1 1
Li     0.000000     0.000000     0.000000
--
-1 1
F     1.900986     0.000000     0.000000

units ang
no_reorient
no_com
symmetry c1
}

set {
basis        aug-cc-pVTZ
scf_type     df
}

energy("sapt2+")
--------------------------------------------------------------------------

  //              Dimer HF             //
    Molecular point group: c1
  Charge       = 0
  Multiplicity = 1
  Basis Set: AUG-CC-PVTZ
    Blend: AUG-CC-PVTZ
  Basis Set: (AUG-CC-PVTZ AUX)
    Blend: AUG-CC-PVTZ-JKFIT + DEF2-UNIVERSAL-JKFIT
  @DF-RHF Final Energy:  -106.96238218928302
    Total Energy =                       -106.9623821892830193
 Dipole X            :        -35.4826850           32.3310862           -3.1515988
 Dipole Y            :         -0.0000000            0.0000000           -0.0000000
 Dipole Z            :          0.0000000            0.0000000            0.0000000
 Magnitude           :                                                    3.1515988
  //            Monomer A HF           //
    Molecular point group: c1
  Multiplicity = 1
  Basis Set: AUG-CC-PVTZ
    Blend: AUG-CC-PVTZ
  Basis Set: (AUG-CC-PVTZ AUX)
    Blend: AUG-CC-PVTZ-JKFIT + DEF2-UNIVERSAL-JKFIT
  @DF-RHF Final Energy:    -7.23638317184790
    Total Energy =                         -7.2363831718479004
  //            Monomer B HF           //
    Molecular point group: c1

    Geometry (in Angstrom), charge = -1, multiplicity = 1:

       Center              X                  Y                   Z               Mass
    ------------   -----------------  -----------------  -----------------  -----------------
      Gh(LI)          0.000000000000     0.000000000000     0.000000000000     7.016003436600
         F            1.900986000000     0.000000000000     0.000000000000    18.998403162730

  Charge       = -1
  Multiplicity = 1
  Basis Set: AUG-CC-PVTZ
    Blend: AUG-CC-PVTZ
  Basis Set: (AUG-CC-PVTZ AUX)
    Blend: AUG-CC-PVTZ-JKFIT + DEF2-UNIVERSAL-JKFIT

    Orbital Energies [Eh]
    ---------------------

    Doubly Occupied:

       1A    -25.833788     2A     -1.076054     3A     -0.181028
       4A     -0.180983     5A     -0.180983

  @DF-RHF Final Energy:   -99.45087810148557

   => Energetics <=

    Nuclear Repulsion Energy =              0.0000000000000000
    One-Electron Energy =                -143.9960848437629295
    Two-Electron Energy =                  44.5452067422773581
    Total Energy =                        -99.4508781014855714
 Dipole X            :        -35.9235122           32.3310862           -3.5924260
 Dipole Y            :         -0.0000000            0.0000000           -0.0000000
 Dipole Z            :          0.0000000            0.0000000            0.0000000
 Magnitude           :                                                    3.5924260

    SAPT Results
  --------------------------------------------------------------------------------------------------------
    Electrostatics               -273.03124929 [mEh]    -171.32969556 [kcal/mol]    -716.84344624 [kJ/mol]
      Elst10,r                   -275.53881711 [mEh]    -172.90321813 [kcal/mol]    -723.42706466 [kJ/mol]
      Elst12,r                      2.50756783 [mEh]       1.57352257 [kcal/mol]       6.58361842 [kJ/mol]

    Exchange                       25.40340774 [mEh]      15.94087903 [kcal/mol]      66.69663785 [kJ/mol]
      Exch10                       20.24948787 [mEh]      12.70674548 [kcal/mol]      53.16502307 [kJ/mol]
      Exch10(S^2)                  20.14471397 [mEh]      12.64099887 [kcal/mol]      52.88993925 [kJ/mol]
      Exch11(S^2)                  -0.18226522 [mEh]      -0.11437315 [kcal/mol]      -0.47853726 [kJ/mol]
      Exch12(S^2)                   5.33618509 [mEh]       3.34850670 [kcal/mol]      14.01015203 [kJ/mol]

    Induction                     -24.31248370 [mEh]     -15.25631385 [kcal/mol]     -63.83241715 [kJ/mol]
      Ind20,r                     -37.73503745 [mEh]     -23.67909349 [kcal/mol]     -99.07332717 [kJ/mol]
      Ind22                        -9.47982437 [mEh]      -5.94867960 [kcal/mol]     -24.88927546 [kJ/mol]
      Exch-Ind20,r                 19.89854500 [mEh]      12.48652550 [kcal/mol]      52.24362269 [kJ/mol]
      Exch-Ind22                    4.99892738 [mEh]       3.13687429 [kcal/mol]      13.12468203 [kJ/mol]
      delta HF,r (2)               -1.99509425 [mEh]      -1.25194054 [kcal/mol]      -5.23811923 [kJ/mol]

    Dispersion                     -0.77804265 [mEh]      -0.48822914 [kcal/mol]      -2.04275070 [kJ/mol]
      Disp20                       -0.68495078 [mEh]      -0.42981310 [kcal/mol]      -1.79833801 [kJ/mol]
      Disp21                       -0.05636027 [mEh]      -0.03536660 [kcal/mol]      -0.14797386 [kJ/mol]
      Disp22 (SDQ)                 -0.07127780 [mEh]      -0.04472749 [kcal/mol]      -0.18713983 [kJ/mol]
      Disp22 (T)                   -0.05637464 [mEh]      -0.03537562 [kcal/mol]      -0.14801160 [kJ/mol]
      Est. Disp22 (T)              -0.07153846 [mEh]      -0.04489106 [kcal/mol]      -0.18782419 [kJ/mol]
      Exch-Disp20                   0.10608464 [mEh]       0.06656912 [kcal/mol]       0.27852519 [kJ/mol]

  Total HF                       -275.12091595 [mEh]    -172.64098119 [kcal/mol]    -722.32986531 [kJ/mol]
  Total SAPT0                    -275.69978208 [mEh]    -173.00422517 [kcal/mol]    -723.84967813 [kJ/mol]
  Total SAPT2                    -272.51919137 [mEh]    -171.00837437 [kcal/mol]    -715.49903837 [kJ/mol]
  Total SAPT2+                   -272.71836789 [mEh]    -171.13335952 [kcal/mol]    -716.02197625 [kJ/mol]

  Special recipe for scaled SAPT0 (see Manual):
    Electrostatics sSAPT0        -275.53881711 [mEh]    -172.90321813 [kcal/mol]    -723.42706466 [kJ/mol]
    Exchange sSAPT0                20.24948787 [mEh]      12.70674548 [kcal/mol]      53.16502307 [kJ/mol]
    Induction sSAPT0              -19.51948842 [mEh]     -12.24866391 [kcal/mol]     -51.24840978 [kJ/mol]
    Dispersion sSAPT0              -0.57720225 [mEh]      -0.36219988 [kcal/mol]      -1.51544430 [kJ/mol]
  Total sSAPT0                   -275.38601992 [mEh]    -172.80733644 [kcal/mol]    -723.02589568 [kJ/mol]
  --------------------------------------------------------------------------------------------------------

*** Psi4 exiting successfully. Buy a developer a beer!
