                               Psi4 1.9 release

  ==> Input File <==

--------------------------------------------------------------------------
MEMORY 60 GB

molecule dimer {
1 1
Li     0.000000     0.000000     0.000000
--
-1 1
F     1.584155     0.000000     0.000000

units ang
no_reorient
no_com
symmetry c1
}

set {
basis        aug-cc-pVTZ
scf_type     df
}

energy("sapt2+")
--------------------------------------------------------------------------

  //              Dimer HF             //
    Molecular point group: c1
  Charge       = 0
  Multiplicity = 1
  Basis Set: AUG-CC-PVTZ
    Blend: AUG-CC-PVTZ
  Basis Set: (AUG-CC-PVTZ AUX)
    Blend: AUG-CC-PVTZ-JKFIT + DEF2-UNIVERSAL-JKFIT
  @DF-RHF Final Energy:  -106.98265584408885
    Total Energy =                       -106.9826558440888533
 Dipole X            :        -29.5196951           26.9425718           -2.5771233
 Dipole Y            :         -0.0000000            0.0000000           -0.0000000
 Dipole Z            :         -0.0000000            0.0000000           -0.0000000
 Magnitude           :                                                    2.5771233
  //            Monomer A HF           //
    Molecular point group: c1
  Multiplicity = 1
  Basis Set: AUG-CC-PVTZ
    Blend: AUG-CC-PVTZ
  Basis Set: (AUG-CC-PVTZ AUX)
    Blend: AUG-CC-PVTZ-JKFIT + DEF2-UNIVERSAL-JKFIT
  @DF-RHF Final Energy:    -7.23638314790707
    Total Energy =                         -7.2363831479070662
  //            Monomer B HF           //
    Molecular point group: c1

    Geometry (in Angstrom), charge = -1, multiplicity = 1:

       Center              X                  Y                   Z               Mass
    ------------   -----------------  -----------------  -----------------  -----------------
      Gh(LI)          0.000000000000     0.000000000000     0.000000000000     7.016003436600
         F            1.584155000000     0.000000000000     0.000000000000    18.998403162730

  Charge       = -1
  Multiplicity = 1
  Basis Set: AUG-CC-PVTZ
    Blend: AUG-CC-PVTZ
  Basis Set: (AUG-CC-PVTZ AUX)
    Blend: AUG-CC-PVTZ-JKFIT + DEF2-UNIVERSAL-JKFIT

    Orbital Energies [Eh]
    ---------------------

    Doubly Occupied:

       1A    -25.833759     2A     -1.076040     3A     -0.180995
       4A     -0.180986     5A     -0.180986

  @DF-RHF Final Energy:   -99.45088196273277

   => Energetics <=

    Nuclear Repulsion Energy =              0.0000000000000000
    One-Electron Energy =                -143.9962310036484894
    Two-Electron Energy =                  44.5453490409157240
    Total Energy =                        -99.4508819627327654
 Dipole X            :        -29.9365798           26.9425718           -2.9940080
 Dipole Y            :         -0.0000000            0.0000000           -0.0000000
 Dipole Z            :         -0.0000000            0.0000000           -0.0000000
 Magnitude           :                                                    2.9940080

    SAPT Results
  --------------------------------------------------------------------------------------------------------
    Electrostatics               -320.47759661 [mEh]    -201.10272801 [kcal/mol]    -841.41381398 [kJ/mol]
      Elst10,r                   -326.46728161 [mEh]    -204.86131209 [kcal/mol]    -857.13972978 [kJ/mol]
      Elst12,r                      5.98968500 [mEh]       3.75858408 [kcal/mol]      15.72591580 [kJ/mol]

    Exchange                       72.30952862 [mEh]      45.37491425 [kcal/mol]     189.84864124 [kJ/mol]
      Exch10                       63.52596922 [mEh]      39.86314752 [kcal/mol]     166.78740921 [kJ/mol]
      Exch10(S^2)                  62.52685560 [mEh]      39.23619425 [kcal/mol]     164.16423676 [kJ/mol]
      Exch11(S^2)                  -0.67873743 [mEh]      -0.42591417 [kcal/mol]      -1.78202488 [kJ/mol]
      Exch12(S^2)                   9.46229683 [mEh]       5.93768091 [kcal/mol]      24.84325691 [kJ/mol]

    Induction                     -37.20718274 [mEh]     -23.34785966 [kcal/mol]     -97.68744482 [kJ/mol]
      Ind20,r                     -70.63890024 [mEh]     -44.32657912 [kcal/mol]    -185.46240702 [kJ/mol]
      Ind22                       -14.34740735 [mEh]      -9.00313404 [kcal/mol]     -37.66911280 [kJ/mol]
      Exch-Ind20,r                 47.21424626 [mEh]      29.62738683 [kcal/mol]     123.96098649 [kJ/mol]
      Exch-Ind22                    9.58964567 [mEh]       6.01759351 [kcal/mol]      25.17761124 [kJ/mol]
      delta HF,r (2)               -9.02476708 [mEh]      -5.66312684 [kcal/mol]     -23.69452272 [kJ/mol]

    Dispersion                     -1.96510309 [mEh]      -1.23312081 [kcal/mol]      -5.15937746 [kJ/mol]
      Disp20                       -1.79981549 [mEh]      -1.12940127 [kcal/mol]      -4.72541493 [kJ/mol]
      Disp21                       -0.08754149 [mEh]      -0.05493311 [kcal/mol]      -0.22984015 [kJ/mol]
      Disp22 (SDQ)                 -0.13497511 [mEh]      -0.08469816 [kcal/mol]      -0.35437710 [kJ/mol]
      Disp22 (T)                   -0.12746700 [mEh]      -0.07998675 [kcal/mol]      -0.33466455 [kJ/mol]
      Est. Disp22 (T)              -0.16457354 [mEh]      -0.10327145 [kcal/mol]      -0.43208776 [kJ/mol]
      Exch-Disp20                   0.22180254 [mEh]       0.13918319 [kcal/mol]       0.58234249 [kJ/mol]

  Total HF                       -295.39073345 [mEh]    -185.36048371 [kcal/mol]    -775.54826382 [kJ/mol]
  Total SAPT0                    -296.96874640 [mEh]    -186.35070178 [kcal/mol]    -779.69133626 [kJ/mol]
  Total SAPT2                    -286.95326368 [mEh]    -180.06589149 [kcal/mol]    -753.39569000 [kJ/mol]
  Total SAPT2+                   -287.34035382 [mEh]    -180.30879422 [kcal/mol]    -754.41199502 [kJ/mol]

  Special recipe for scaled SAPT0 (see Manual):
    Electrostatics sSAPT0        -326.46728161 [mEh]    -204.86131209 [kcal/mol]    -857.13972978 [kJ/mol]
    Exchange sSAPT0                63.52596922 [mEh]      39.86314752 [kcal/mol]     166.78740921 [kJ/mol]
    Induction sSAPT0              -30.14976071 [mEh]     -18.91926048 [kcal/mol]     -79.15818585 [kJ/mol]
    Dispersion sSAPT0              -1.56720964 [mEh]      -0.98343889 [kcal/mol]      -4.11470833 [kJ/mol]
  Total sSAPT0                   -294.65828274 [mEh]    -184.90086395 [kcal/mol]    -773.62521476 [kJ/mol]
  --------------------------------------------------------------------------------------------------------

*** Psi4 exiting successfully. Buy a developer a beer!
