                               Psi4 1.9 release

  ==> Input File <==

--------------------------------------------------------------------------
MEMORY 60 GB

molecule dimer {
1 1
Li     0.000000     0.000000     0.000000
--
-1 1
F     1.267324     0.000000     0.000000

units ang
no_reorient
no_com
symmetry c1
}

set {
basis        aug-cc-pVTZ
scf_type     df
}

energy("sapt2+")
--------------------------------------------------------------------------

  //              Dimer HF             //
    Molecular point group: c1
  Charge       = 0
  Multiplicity = 1
  Basis Set: AUG-CC-PVTZ
    Blend: AUG-CC-PVTZ
  Basis Set: (AUG-CC-PVTZ AUX)
    Blend: AUG-CC-PVTZ-JKFIT + DEF2-UNIVERSAL-JKFIT
  @DF-RHF Final Energy:  -106.93678116018707
    Total Energy =                       -106.9367811601870670
 Dipole X            :        -23.5705909           21.5540574           -2.0165334
 Dipole Y            :          0.0000000            0.0000000            0.0000000
 Dipole Z            :          0.0000000            0.0000000            0.0000000
 Magnitude           :                                                    2.0165334
  //            Monomer A HF           //
    Molecular point group: c1
  Multiplicity = 1
  Basis Set: AUG-CC-PVTZ
    Blend: AUG-CC-PVTZ
  Basis Set: (AUG-CC-PVTZ AUX)
    Blend: AUG-CC-PVTZ-JKFIT + DEF2-UNIVERSAL-JKFIT
  @DF-RHF Final Energy:    -7.23638347259294
    Total Energy =                         -7.2363834725929364
  //            Monomer B HF           //
    Molecular point group: c1

    Geometry (in Angstrom), charge = -1, multiplicity = 1:

       Center              X                  Y                   Z               Mass
    ------------   -----------------  -----------------  -----------------  -----------------
      Gh(LI)          0.000000000000     0.000000000000     0.000000000000     7.016003436600
         F            1.267324000000     0.000000000000     0.000000000000    18.998403162730

  Charge       = -1
  Multiplicity = 1
  Basis Set: AUG-CC-PVTZ
    Blend: AUG-CC-PVTZ
  Basis Set: (AUG-CC-PVTZ AUX)
    Blend: AUG-CC-PVTZ-JKFIT + DEF2-UNIVERSAL-JKFIT

    Orbital Energies [Eh]
    ---------------------

    Doubly Occupied:

       1A    -25.833712     2A     -1.076019     3A     -0.180980
       4A     -0.180976     5A     -0.180976

  @DF-RHF Final Energy:   -99.45089752791385

   => Energetics <=

    Nuclear Repulsion Energy =              0.0000000000000000
    One-Electron Energy =                -143.9964659670397964
    Two-Electron Energy =                  44.5455684391259439
    Total Energy =                        -99.4508975279138525
 Dipole X            :        -23.9501295           21.5540574           -2.3960720
 Dipole Y            :          0.0000000            0.0000000            0.0000000
 Dipole Z            :          0.0000000            0.0000000            0.0000000
 Magnitude           :                                                    2.3960720

    SAPT Results
  --------------------------------------------------------------------------------------------------------
    Electrostatics               -382.69608278 [mEh]    -240.14541752 [kcal/mol]   -1004.76842691 [kJ/mol]
      Elst10,r                   -397.00514530 [mEh]    -249.12448981 [kcal/mol]   -1042.33686538 [kJ/mol]
      Elst12,r                     14.30906252 [mEh]       8.97907229 [kcal/mol]      37.56843848 [kJ/mol]

    Exchange                      226.72685584 [mEh]     142.27325000 [kcal/mol]     595.27127799 [kJ/mol]
      Exch10                      216.72626015 [mEh]     135.99778146 [kcal/mol]     569.01471762 [kJ/mol]
      Exch10(S^2)                 205.95140773 [mEh]     129.23645949 [kcal/mol]     540.72534650 [kJ/mol]
      Exch11(S^2)                  -2.13261027 [mEh]      -1.33823315 [kcal/mol]      -5.59916750 [kJ/mol]
      Exch12(S^2)                  12.13320596 [mEh]       7.61370169 [kcal/mol]      31.85572787 [kJ/mol]

    Induction                     -75.21038635 [mEh]     -47.19522996 [kcal/mol]    -197.46484217 [kJ/mol]
      Ind20,r                    -143.34011860 [mEh]     -89.94728239 [kcal/mol]    -376.33942953 [kJ/mol]
      Ind22                       -22.20919646 [mEh]     -13.93648118 [kcal/mol]     -58.31023727 [kJ/mol]
      Exch-Ind20,r                104.68586105 [mEh]      65.69136958 [kcal/mol]     274.85269033 [kJ/mol]
      Exch-Ind22                   16.22008463 [mEh]      10.17825677 [kcal/mol]      42.58582633 [kJ/mol]
      delta HF,r (2)              -30.56701698 [mEh]     -19.18109274 [kcal/mol]     -80.25369203 [kJ/mol]

    Dispersion                     -5.81266929 [mEh]      -3.64750505 [kcal/mol]     -15.26116111 [kJ/mol]
      Disp20                       -5.45686532 [mEh]      -3.42423469 [kcal/mol]     -14.32699792 [kJ/mol]
      Disp21                        0.04443176 [mEh]       0.02788135 [kcal/mol]       0.11665557 [kJ/mol]
      Disp22 (SDQ)                 -0.30631582 [mEh]      -0.19221608 [kcal/mol]      -0.80423208 [kJ/mol]
      Disp22 (T)                   -0.34368256 [mEh]      -0.21566406 [kcal/mol]      -0.90233843 [kJ/mol]
      Est. Disp22 (T)              -0.38806831 [mEh]      -0.24351654 [kcal/mol]      -1.01887320 [kJ/mol]
      Exch-Disp20                   0.29414840 [mEh]       0.18458091 [kcal/mol]       0.77228652 [kJ/mol]

  Total HF                       -249.50015968 [mEh]    -156.56371391 [kcal/mol]    -655.06257899 [kJ/mol]
  Total SAPT0                    -254.66287660 [mEh]    -159.80336768 [kcal/mol]    -668.61729039 [kJ/mol]
  Total SAPT2                    -236.34233022 [mEh]    -148.30705127 [kcal/mol]    -620.51670249 [kJ/mol]
  Total SAPT2+                   -236.99228259 [mEh]    -148.71490253 [kcal/mol]    -622.22315220 [kJ/mol]

  Special recipe for scaled SAPT0 (see Manual):
    Electrostatics sSAPT0        -397.00514530 [mEh]    -249.12448981 [kcal/mol]   -1042.33686538 [kJ/mol]
    Exchange sSAPT0               216.72626015 [mEh]     135.99778146 [kcal/mol]     569.01471762 [kJ/mol]
    Induction sSAPT0              -51.91597992 [mEh]     -32.57776924 [kcal/mol]    -136.30538651 [kJ/mol]
    Dispersion sSAPT0              -5.11409216 [mEh]      -3.20914128 [kcal/mol]     -13.42704711 [kJ/mol]
  Total sSAPT0                   -237.30895724 [mEh]    -148.91361888 [kcal/mol]    -623.05458138 [kJ/mol]
  --------------------------------------------------------------------------------------------------------

*** Psi4 exiting successfully. Buy a developer a beer!
