                               Psi4 1.9 release

  ==> Input File <==

--------------------------------------------------------------------------
MEMORY 60 GB

molecule dimer {
1 1
Li     0.000000     0.000000     0.000000
--
-1 1
F     1.504947     0.000000     0.000000

units ang
no_reorient
no_com
symmetry c1
}

set {
basis        aug-cc-pVTZ
scf_type     df
}

energy("sapt2+")
--------------------------------------------------------------------------

  //              Dimer HF             //
    Molecular point group: c1
  Charge       = 0
  Multiplicity = 1
  Basis Set: AUG-CC-PVTZ
    Blend: AUG-CC-PVTZ
  Basis Set: (AUG-CC-PVTZ AUX)
    Blend: AUG-CC-PVTZ-JKFIT + DEF2-UNIVERSAL-JKFIT
  @DF-RHF Final Energy:  -106.98166855906535
    Total Energy =                       -106.9816685590653549
 Dipole X            :        -28.0317742           25.5954390           -2.4363352
 Dipole Y            :         -0.0000000            0.0000000           -0.0000000
 Dipole Z            :         -0.0000000            0.0000000           -0.0000000
 Magnitude           :                                                    2.4363352
  //            Monomer A HF           //
    Molecular point group: c1
  Multiplicity = 1
  Basis Set: AUG-CC-PVTZ
    Blend: AUG-CC-PVTZ
  Basis Set: (AUG-CC-PVTZ AUX)
    Blend: AUG-CC-PVTZ-JKFIT + DEF2-UNIVERSAL-JKFIT
  @DF-RHF Final Energy:    -7.23638319102813
    Total Energy =                         -7.2363831910281311
  //            Monomer B HF           //
    Molecular point group: c1

    Geometry (in Angstrom), charge = -1, multiplicity = 1:

       Center              X                  Y                   Z               Mass
    ------------   -----------------  -----------------  -----------------  -----------------
      Gh(LI)          0.000000000000     0.000000000000     0.000000000000     7.016003436600
         F            1.504947000000     0.000000000000     0.000000000000    18.998403162730

  Charge       = -1
  Multiplicity = 1
  Basis Set: AUG-CC-PVTZ
    Blend: AUG-CC-PVTZ
  Basis Set: (AUG-CC-PVTZ AUX)
    Blend: AUG-CC-PVTZ-JKFIT + DEF2-UNIVERSAL-JKFIT

    Orbital Energies [Eh]
    ---------------------

    Doubly Occupied:

       1A    -25.833751     2A     -1.076035     3A     -0.180986
       4A     -0.180986     5A     -0.180986

  @DF-RHF Final Energy:   -99.45088174425975

   => Energetics <=

    Nuclear Repulsion Energy =              0.0000000000000000
    One-Electron Energy =                -143.9962750068926312
    Two-Electron Energy =                  44.5453932626328992
    Total Energy =                        -99.4508817442597319
 Dipole X            :        -28.4398813           25.5954390           -2.8444424
 Dipole Y            :         -0.0000000            0.0000000           -0.0000000
 Dipole Z            :         -0.0000000            0.0000000           -0.0000000
 Magnitude           :                                                    2.8444424

    SAPT Results
  --------------------------------------------------------------------------------------------------------
    Electrostatics               -334.47716648 [mEh]    -209.88759073 [kcal/mol]    -878.16967961 [kJ/mol]
      Elst10,r                   -341.92412376 [mEh]    -214.56062697 [kcal/mol]    -897.72166326 [kJ/mol]
      Elst12,r                      7.44695728 [mEh]       4.67303624 [kcal/mol]      19.55198365 [kJ/mol]

    Exchange                       95.22470271 [mEh]      59.75440309 [kcal/mol]     250.01242251 [kJ/mol]
      Exch10                       85.60454292 [mEh]      53.71766168 [kcal/mol]     224.75469648 [kJ/mol]
      Exch10(S^2)                  83.81480656 [mEh]      52.59458516 [kcal/mol]     220.05574431 [kJ/mol]
      Exch11(S^2)                  -0.92566734 [mEh]      -0.58086502 [kcal/mol]      -2.43033926 [kJ/mol]
      Exch12(S^2)                  10.54582712 [mEh]       6.61760643 [kcal/mol]      27.68806529 [kJ/mol]

    Induction                     -42.91617888 [mEh]     -26.93030883 [kcal/mol]    -112.67641213 [kJ/mol]
      Ind20,r                     -83.50923514 [mEh]     -52.40283620 [kcal/mol]    -219.25346666 [kJ/mol]
      Ind22                       -15.92227453 [mEh]      -9.99137811 [kcal/mol]     -41.80392603 [kJ/mol]
      Exch-Ind20,r                 58.16562133 [mEh]      36.49947844 [kcal/mol]     152.71381777 [kJ/mol]
      Exch-Ind22                   11.09013859 [mEh]       6.95916703 [kcal/mol]      29.11715486 [kJ/mol]
      delta HF,r (2)              -12.74042913 [mEh]      -7.99473998 [kcal/mol]     -33.44999207 [kJ/mol]

    Dispersion                     -2.53003051 [mEh]      -1.58761811 [kcal/mol]      -6.64259419 [kJ/mol]
      Disp20                       -2.33708854 [mEh]      -1.46654520 [kcal/mol]      -6.13602510 [kJ/mol]
      Disp21                       -0.08517876 [mEh]      -0.05345048 [kcal/mol]      -0.22363679 [kJ/mol]
      Disp22 (SDQ)                 -0.16166630 [mEh]      -0.10144713 [kcal/mol]      -0.42445480 [kJ/mol]
      Disp22 (T)                   -0.15712243 [mEh]      -0.09859581 [kcal/mol]      -0.41252489 [kJ/mol]
      Est. Disp22 (T)              -0.20506460 [mEh]      -0.12867998 [kcal/mol]      -0.53839704 [kJ/mol]
      Exch-Disp20                   0.25896768 [mEh]       0.16250467 [kcal/mol]       0.67991955 [kJ/mol]

  Total HF                       -294.40362378 [mEh]    -184.74106303 [kcal/mol]    -772.95660774 [kJ/mol]
  Total SAPT0                    -296.48174463 [mEh]    -186.04510356 [kcal/mol]    -778.41271329 [kJ/mol]
  Total SAPT2                    -284.24676351 [mEh]    -178.36753699 [kcal/mol]    -746.28977478 [kJ/mol]
  Total SAPT2+                   -284.69867316 [mEh]    -178.65111458 [kcal/mol]    -747.47626341 [kJ/mol]

  Special recipe for scaled SAPT0 (see Manual):
    Electrostatics sSAPT0        -341.92412376 [mEh]    -214.56062697 [kcal/mol]    -897.72166326 [kJ/mol]
    Exchange sSAPT0                85.60454292 [mEh]      53.71766168 [kcal/mol]     224.75469648 [kJ/mol]
    Induction sSAPT0              -34.27779889 [mEh]     -21.50964355 [kcal/mol]     -89.99634860 [kJ/mol]
    Dispersion sSAPT0              -2.06117452 [mEh]      -1.29340654 [kcal/mol]      -5.41161295 [kJ/mol]
  Total sSAPT0                   -292.65855425 [mEh]    -183.64601538 [kcal/mol]    -768.37492833 [kJ/mol]
  --------------------------------------------------------------------------------------------------------

*** Psi4 exiting successfully. Buy a developer a beer!
