                               Psi4 1.9 release

  ==> Input File <==

--------------------------------------------------------------------------
MEMORY 60 GB

molecule dimer {
1 1
Li     0.000000     0.000000     0.000000
--
-1 1
F     2.059401     0.000000     0.000000

units ang
no_reorient
no_com
symmetry c1
}

set {
basis        aug-cc-pVTZ
scf_type     df
}

energy("sapt2+")
--------------------------------------------------------------------------

  //              Dimer HF             //
    Molecular point group: c1
  Charge       = 0
  Multiplicity = 1
  Basis Set: AUG-CC-PVTZ
    Blend: AUG-CC-PVTZ
  Basis Set: (AUG-CC-PVTZ AUX)
    Blend: AUG-CC-PVTZ-JKFIT + DEF2-UNIVERSAL-JKFIT
  @DF-RHF Final Energy:  -106.94715369436778
    Total Energy =                       -106.9471536943677847
 Dipole X            :        -38.4724874           35.0253349           -3.4471526
 Dipole Y            :         -0.0000000            0.0000000           -0.0000000
 Dipole Z            :         -0.0000000            0.0000000           -0.0000000
 Magnitude           :                                                    3.4471526
  //            Monomer A HF           //
    Molecular point group: c1
  Multiplicity = 1
  Basis Set: AUG-CC-PVTZ
    Blend: AUG-CC-PVTZ
  Basis Set: (AUG-CC-PVTZ AUX)
    Blend: AUG-CC-PVTZ-JKFIT + DEF2-UNIVERSAL-JKFIT
  @DF-RHF Final Energy:    -7.23638310346037
    Total Energy =                         -7.2363831034603709
  //            Monomer B HF           //
    Molecular point group: c1

    Geometry (in Angstrom), charge = -1, multiplicity = 1:

       Center              X                  Y                   Z               Mass
    ------------   -----------------  -----------------  -----------------  -----------------
      Gh(LI)          0.000000000000     0.000000000000     0.000000000000     7.016003436600
         F            2.059401000000     0.000000000000     0.000000000000    18.998403162730

  Charge       = -1
  Multiplicity = 1
  Basis Set: AUG-CC-PVTZ
    Blend: AUG-CC-PVTZ
  Basis Set: (AUG-CC-PVTZ AUX)
    Blend: AUG-CC-PVTZ-JKFIT + DEF2-UNIVERSAL-JKFIT

    Orbital Energies [Eh]
    ---------------------

    Doubly Occupied:

       1A    -25.833801     2A     -1.076060     3A     -0.181033
       4A     -0.180985     5A     -0.180985

  @DF-RHF Final Energy:   -99.45086840856629

   => Energetics <=

    Nuclear Repulsion Energy =              0.0000000000000000
    One-Electron Energy =                -143.9960109399060286
    Two-Electron Energy =                  44.5451425313397351
    Total Energy =                        -99.4508684085662935
 Dipole X            :        -38.9168182           35.0253349           -3.8914833
 Dipole Y            :         -0.0000000            0.0000000           -0.0000000
 Dipole Z            :          0.0000000            0.0000000            0.0000000
 Magnitude           :                                                    3.8914833

    SAPT Results
  --------------------------------------------------------------------------------------------------------
    Electrostatics               -253.62336110 [mEh]    -159.15106186 [kcal/mol]    -665.88804282 [kJ/mol]
      Elst10,r                   -255.23762243 [mEh]    -160.16402614 [kcal/mol]    -670.12628536 [kJ/mol]
      Elst12,r                      1.61426133 [mEh]       1.01296428 [kcal/mol]       4.23824254 [kJ/mol]

    Exchange                       15.46881773 [mEh]       9.70682968 [kcal/mol]      40.61337536 [kJ/mol]
      Exch10                       11.74082270 [mEh]       7.36747747 [kcal/mol]      30.82552575 [kJ/mol]
      Exch10(S^2)                  11.70538113 [mEh]       7.34523755 [kcal/mol]      30.73247392 [kJ/mol]
      Exch11(S^2)                  -0.09295991 [mEh]      -0.05833322 [kcal/mol]      -0.24406621 [kJ/mol]
      Exch12(S^2)                   3.82095494 [mEh]       2.39768543 [kcal/mol]      10.03191583 [kJ/mol]

    Induction                     -20.59674400 [mEh]     -12.92465199 [kcal/mol]     -54.07674391 [kJ/mol]
      Ind20,r                     -28.19160968 [mEh]     -17.69050216 [kcal/mol]     -74.01706102 [kJ/mol]
      Ind22                        -7.68929210 [mEh]      -4.82510364 [kcal/mol]     -20.18823363 [kJ/mol]
      Exch-Ind20,r                 12.82462627 [mEh]       8.04757448 [kcal/mol]      33.67105164 [kJ/mol]
      Exch-Ind22                    3.49793072 [mEh]       2.19498466 [kcal/mol]       9.18381584 [kJ/mol]
      delta HF,r (2)               -1.03839920 [mEh]      -0.65160534 [kcal/mol]      -2.72631673 [kJ/mol]

    Dispersion                     -0.50673185 [mEh]      -0.31797903 [kcal/mol]      -1.33042428 [kJ/mol]
      Disp20                       -0.43742656 [mEh]      -0.27448931 [kcal/mol]      -1.14846327 [kJ/mol]
      Disp21                       -0.04023333 [mEh]      -0.02524679 [kcal/mol]      -0.10563258 [kJ/mol]
      Disp22 (SDQ)                 -0.05284215 [mEh]      -0.03315895 [kcal/mol]      -0.13873704 [kJ/mol]
      Disp22 (T)                   -0.03857910 [mEh]      -0.02420875 [kcal/mol]      -0.10128942 [kJ/mol]
      Est. Disp22 (T)              -0.04811321 [mEh]      -0.03019150 [kcal/mol]      -0.12632122 [kJ/mol]
      Exch-Disp20                   0.07188339 [mEh]       0.04510751 [kcal/mol]       0.18872982 [kJ/mol]

  Total HF                       -259.90218234 [mEh]    -163.09108167 [kcal/mol]    -682.37308573 [kJ/mol]
  Total SAPT0                    -260.26772551 [mEh]    -163.32046347 [kcal/mol]    -683.33281917 [kJ/mol]
  Total SAPT2                    -259.11683053 [mEh]    -162.59826597 [kcal/mol]    -680.31114482 [kJ/mol]
  Total SAPT2+                   -259.25801921 [mEh]    -162.68686321 [kcal/mol]    -680.68183565 [kJ/mol]

  Special recipe for scaled SAPT0 (see Manual):
    Electrostatics sSAPT0        -255.23762243 [mEh]    -160.16402614 [kcal/mol]    -670.12628536 [kJ/mol]
    Exchange sSAPT0                11.74082270 [mEh]       7.36747747 [kcal/mol]      30.82552575 [kJ/mol]
    Induction sSAPT0              -16.28853828 [mEh]     -10.22121209 [kcal/mol]     -42.76555136 [kJ/mol]
    Dispersion sSAPT0              -0.36488824 [mEh]      -0.22897083 [kcal/mol]      -0.95801394 [kJ/mol]
  Total sSAPT0                   -260.15022625 [mEh]    -163.24673158 [kcal/mol]    -683.02432491 [kJ/mol]
  --------------------------------------------------------------------------------------------------------

*** Psi4 exiting successfully. Buy a developer a beer!
