                               Psi4 1.9 release

  ==> Input File <==

--------------------------------------------------------------------------
MEMORY 60 GB

molecule dimer {
1 1
Li     0.000000     0.000000     0.000000
--
-1 1
F     1.742571     0.000000     0.000000

units ang
no_reorient
no_com
symmetry c1
}

set {
basis        aug-cc-pVTZ
scf_type     df
}

energy("sapt2+")
--------------------------------------------------------------------------

  //              Dimer HF             //
    Molecular point group: c1
  Charge       = 0
  Multiplicity = 1
  Basis Set: AUG-CC-PVTZ
    Blend: AUG-CC-PVTZ
  Basis Set: (AUG-CC-PVTZ AUX)
    Blend: AUG-CC-PVTZ-JKFIT + DEF2-UNIVERSAL-JKFIT
  @DF-RHF Final Energy:  -106.97552838462316
    Total Energy =                       -106.9755283846231606
 Dipole X            :        -32.4986182           29.6368375           -2.8617807
 Dipole Y            :         -0.0000000            0.0000000           -0.0000000
 Dipole Z            :         -0.0000000            0.0000000           -0.0000000
 Magnitude           :                                                    2.8617807
  //            Monomer A HF           //
    Molecular point group: c1
  Multiplicity = 1
  Basis Set: AUG-CC-PVTZ
    Blend: AUG-CC-PVTZ
  Basis Set: (AUG-CC-PVTZ AUX)
    Blend: AUG-CC-PVTZ-JKFIT + DEF2-UNIVERSAL-JKFIT
  @DF-RHF Final Energy:    -7.23638316712998
    Total Energy =                         -7.2363831671299801
  //            Monomer B HF           //
    Molecular point group: c1

    Geometry (in Angstrom), charge = -1, multiplicity = 1:

       Center              X                  Y                   Z               Mass
    ------------   -----------------  -----------------  -----------------  -----------------
      Gh(LI)          0.000000000000     0.000000000000     0.000000000000     7.016003436600
         F            1.742571000000     0.000000000000     0.000000000000    18.998403162730

  Charge       = -1
  Multiplicity = 1
  Basis Set: AUG-CC-PVTZ
    Blend: AUG-CC-PVTZ
  Basis Set: (AUG-CC-PVTZ AUX)
    Blend: AUG-CC-PVTZ-JKFIT + DEF2-UNIVERSAL-JKFIT

    Orbital Energies [Eh]
    ---------------------

    Doubly Occupied:

       1A    -25.833773     2A     -1.076047     3A     -0.181015
       4A     -0.180983     5A     -0.180983

  @DF-RHF Final Energy:   -99.45088334421848

   => Energetics <=

    Nuclear Repulsion Energy =              0.0000000000000000
    One-Electron Energy =                -143.9961605406294325
    Two-Electron Energy =                  44.5452771964109431
    Total Energy =                        -99.4508833442184823
 Dipole X            :        -32.9300868           29.6368375           -3.2932493
 Dipole Y            :         -0.0000000            0.0000000           -0.0000000
 Dipole Z            :         -0.0000000            0.0000000           -0.0000000
 Magnitude           :                                                    3.2932493

    SAPT Results
  --------------------------------------------------------------------------------------------------------
    Electrostatics               -295.16568304 [mEh]    -185.21926244 [kcal/mol]    -774.95739404 [kJ/mol]
      Elst10,r                   -299.04292679 [mEh]    -187.65226963 [kcal/mol]    -785.13709613 [kJ/mol]
      Elst12,r                      3.87724376 [mEh]       2.43300719 [kcal/mol]      10.17970209 [kJ/mol]

    Exchange                       42.42825705 [mEh]      26.62413326 [kcal/mol]     111.39537355 [kJ/mol]
      Exch10                       35.52610217 [mEh]      22.29296568 [kcal/mol]      93.27376839 [kJ/mol]
      Exch10(S^2)                  35.20742524 [mEh]      22.09299288 [kcal/mol]      92.43708222 [kJ/mol]
      Exch11(S^2)                  -0.35519232 [mEh]      -0.22288654 [kcal/mol]      -0.93255730 [kJ/mol]
      Exch12(S^2)                   7.25734720 [mEh]       4.55405412 [kcal/mol]      19.05416245 [kJ/mol]

    Induction                     -29.40295418 [mEh]     -18.45063231 [kcal/mol]     -77.19744558 [kJ/mol]
      Ind20,r                     -51.22795701 [mEh]     -32.14602834 [kcal/mol]    -134.49898259 [kJ/mol]
      Ind22                       -11.66742867 [mEh]      -7.32142202 [kcal/mol]     -30.63282975 [kJ/mol]
      Exch-Ind20,r                 30.77657982 [mEh]      19.31259541 [kcal/mol]      80.80389918 [kJ/mol]
      Exch-Ind22                    7.00952313 [mEh]       4.39854217 [kcal/mol]      18.40350045 [kJ/mol]
      delta HF,r (2)               -4.29367146 [mEh]      -2.69431952 [kcal/mol]     -11.27303286 [kJ/mol]

    Dispersion                     -1.21924788 [mEh]      -0.76508959 [kcal/mol]      -3.20113486 [kJ/mol]
      Disp20                       -1.09517178 [mEh]      -0.68723067 [kcal/mol]      -2.87537312 [kJ/mol]
      Disp21                       -0.07478300 [mEh]      -0.04692704 [kcal/mol]      -0.19634273 [kJ/mol]
      Disp22 (SDQ)                 -0.09698990 [mEh]      -0.06086208 [kcal/mol]      -0.25464695 [kJ/mol]
      Disp22 (T)                   -0.08462508 [mEh]      -0.05310304 [kcal/mol]      -0.22218312 [kJ/mol]
      Est. Disp22 (T)              -0.10761747 [mEh]      -0.06753098 [kcal/mol]      -0.28254964 [kJ/mol]
      Exch-Disp20                   0.15531428 [mEh]       0.09746118 [kcal/mol]       0.40777757 [kJ/mol]

  Total HF                       -288.26187327 [mEh]    -180.88705641 [kcal/mol]    -756.83144401 [kJ/mol]
  Total SAPT0                    -289.20173078 [mEh]    -181.47682590 [kcal/mol]    -759.29903956 [kJ/mol]
  Total SAPT2                    -283.08023767 [mEh]    -177.63553098 [kcal/mol]    -743.22706162 [kJ/mol]
  Total SAPT2+                   -283.35962804 [mEh]    -177.81085108 [kcal/mol]    -743.96060093 [kJ/mol]

  Special recipe for scaled SAPT0 (see Manual):
    Electrostatics sSAPT0        -299.04292679 [mEh]    -187.65226963 [kcal/mol]    -785.13709613 [kJ/mol]
    Exchange sSAPT0                35.52610217 [mEh]      22.29296568 [kcal/mol]      93.27376839 [kJ/mol]
    Induction sSAPT0              -23.90174686 [mEh]     -14.99857259 [kcal/mol]     -62.75402774 [kJ/mol]
    Dispersion sSAPT0              -0.93560178 [mEh]      -0.58709898 [kcal/mol]      -2.45642213 [kJ/mol]
  Total sSAPT0                   -288.35417327 [mEh]    -180.94497553 [kcal/mol]    -757.07377761 [kJ/mol]
  --------------------------------------------------------------------------------------------------------

*** Psi4 exiting successfully. Buy a developer a beer!
