                               Psi4 1.9 release

  ==> Input File <==

--------------------------------------------------------------------------
MEMORY 60 GB

molecule dimer {
1 1
Li     0.000000     0.000000     0.000000
--
-1 1
F     3.168310     0.000000     0.000000

units ang
no_reorient
no_com
symmetry c1
}

set {
basis        aug-cc-pVTZ
scf_type     df
}

energy("sapt2+")
--------------------------------------------------------------------------

  //              Dimer HF             //
    Molecular point group: c1
  Charge       = 0
  Multiplicity = 1
  Basis Set: AUG-CC-PVTZ
    Blend: AUG-CC-PVTZ
  Basis Set: (AUG-CC-PVTZ AUX)
    Blend: AUG-CC-PVTZ-JKFIT + DEF2-UNIVERSAL-JKFIT
  @DF-RHF Final Energy:  -106.85905175354236
    Total Energy =                       -106.8590517535423743
 Dipole X            :        -59.5287624           53.8851436           -5.6436188
 Dipole Y            :         -0.0000000            0.0000000           -0.0000000
 Dipole Z            :         -0.0000000            0.0000000           -0.0000000
 Magnitude           :                                                    5.6436188
  //            Monomer A HF           //
    Molecular point group: c1
  Multiplicity = 1
  Basis Set: AUG-CC-PVTZ
    Blend: AUG-CC-PVTZ
  Basis Set: (AUG-CC-PVTZ AUX)
    Blend: AUG-CC-PVTZ-JKFIT + DEF2-UNIVERSAL-JKFIT
  @DF-RHF Final Energy:    -7.23638253022172
    Total Energy =                         -7.2363825302217242
  //            Monomer B HF           //
    Molecular point group: c1

    Geometry (in Angstrom), charge = -1, multiplicity = 1:

       Center              X                  Y                   Z               Mass
    ------------   -----------------  -----------------  -----------------  -----------------
      Gh(LI)          0.000000000000     0.000000000000     0.000000000000     7.016003436600
         F            3.168310000000     0.000000000000     0.000000000000    18.998403162730

  Charge       = -1
  Multiplicity = 1
  Basis Set: AUG-CC-PVTZ
    Blend: AUG-CC-PVTZ
  Basis Set: (AUG-CC-PVTZ AUX)
    Blend: AUG-CC-PVTZ-JKFIT + DEF2-UNIVERSAL-JKFIT

    Orbital Energies [Eh]
    ---------------------

    Doubly Occupied:

       1A    -25.833841     2A     -1.076085     3A     -0.181013
       4A     -0.181013     5A     -0.181013

  @DF-RHF Final Energy:   -99.45082503331888

   => Energetics <=

    Nuclear Repulsion Energy =              0.0000000000000000
    One-Electron Energy =                -143.9957212561369033
    Two-Electron Energy =                  44.5448962228180179
    Total Energy =                        -99.4508250333188926
 Dipole X            :        -59.8718933           53.8851436           -5.9867496
 Dipole Y            :         -0.0000000            0.0000000           -0.0000000
 Dipole Z            :         -0.0000000            0.0000000           -0.0000000
 Magnitude           :                                                    5.9867496

    SAPT Results
  --------------------------------------------------------------------------------------------------------
    Electrostatics               -166.98878603 [mEh]    -104.78704525 [kcal/mol]    -438.42899733 [kJ/mol]
      Elst10,r                   -166.98848180 [mEh]    -104.78685434 [kcal/mol]    -438.42819856 [kJ/mol]
      Elst12,r                     -0.00030423 [mEh]      -0.00019091 [kcal/mol]      -0.00079876 [kJ/mol]

    Exchange                        0.63153752 [mEh]       0.39629578 [kcal/mol]       1.65810153 [kJ/mol]
      Exch10                        0.35410484 [mEh]       0.22220414 [kcal/mol]       0.92970213 [kJ/mol]
      Exch10(S^2)                   0.35407285 [mEh]       0.22218407 [kcal/mol]       0.92961814 [kJ/mol]
      Exch11(S^2)                  -0.00111130 [mEh]      -0.00069735 [kcal/mol]      -0.00291771 [kJ/mol]
      Exch12(S^2)                   0.27854398 [mEh]       0.17478899 [kcal/mol]       0.73131712 [kJ/mol]

    Induction                      -6.75698080 [mEh]      -4.24006946 [kcal/mol]     -17.74045064 [kJ/mol]
      Ind20,r                      -4.98987206 [mEh]      -3.13119199 [kcal/mol]     -13.10090728 [kJ/mol]
      Ind22                        -1.76514271 [mEh]      -1.10764378 [kcal/mol]      -4.63438156 [kJ/mol]
      Exch-Ind20,r                  0.61619219 [mEh]       0.38666644 [kcal/mol]       1.61781237 [kJ/mol]
      Exch-Ind22                    0.21797496 [mEh]       0.13678135 [kcal/mol]       0.57229317 [kJ/mol]
      delta HF,r (2)               -0.83613317 [mEh]      -0.52468149 [kcal/mol]      -2.19526734 [kJ/mol]

    Dispersion                     -0.03951855 [mEh]      -0.02479826 [kcal/mol]      -0.10375593 [kJ/mol]
      Disp20                       -0.02946063 [mEh]      -0.01848683 [kcal/mol]      -0.07734889 [kJ/mol]
      Disp21                       -0.00319853 [mEh]      -0.00200711 [kcal/mol]      -0.00839773 [kJ/mol]
      Disp22 (SDQ)                 -0.00665555 [mEh]      -0.00417642 [kcal/mol]      -0.01747413 [kJ/mol]
      Disp22 (T)                   -0.00311083 [mEh]      -0.00195208 [kcal/mol]      -0.00816748 [kJ/mol]
      Est. Disp22 (T)              -0.00389311 [mEh]      -0.00244296 [kcal/mol]      -0.01022136 [kJ/mol]
      Exch-Disp20                   0.00368927 [mEh]       0.00231505 [kcal/mol]       0.00968618 [kJ/mol]

  Total HF                       -171.84419000 [mEh]    -107.83385724 [kcal/mol]    -451.17685869 [kJ/mol]
  Total SAPT0                    -171.86996137 [mEh]    -107.85002901 [kcal/mol]    -451.24452140 [kJ/mol]
  Total SAPT2                    -173.14000067 [mEh]    -108.64699071 [kcal/mol]    -454.57900914 [kJ/mol]
  Total SAPT2+                   -173.15374786 [mEh]    -108.65561720 [kcal/mol]    -454.61510237 [kJ/mol]

  Special recipe for scaled SAPT0 (see Manual):
    Electrostatics sSAPT0        -166.98848180 [mEh]    -104.78685434 [kcal/mol]    -438.42819856 [kJ/mol]
    Exchange sSAPT0                 0.35410484 [mEh]       0.22220414 [kcal/mol]       0.92970213 [kJ/mol]
    Induction sSAPT0               -5.20964601 [mEh]      -3.26910223 [kcal/mol]     -13.67792371 [kJ/mol]
    Dispersion sSAPT0              -0.02577036 [mEh]      -0.01617115 [kcal/mol]      -0.06766008 [kJ/mol]
  Total sSAPT0                   -171.86979333 [mEh]    -107.84992357 [kcal/mol]    -451.24408023 [kJ/mol]
  --------------------------------------------------------------------------------------------------------

*** Psi4 exiting successfully. Buy a developer a beer!
