                               Psi4 1.9 release

  ==> Input File <==

--------------------------------------------------------------------------
MEMORY 60 GB

molecule dimer {
1 1
Li     0.000000     0.000000     0.000000
--
-1 1
F     2.217817     0.000000     0.000000

units ang
no_reorient
no_com
symmetry c1
}

set {
basis        aug-cc-pVTZ
scf_type     df
}

energy("sapt2+")
--------------------------------------------------------------------------

  //              Dimer HF             //
    Molecular point group: c1
  Charge       = 0
  Multiplicity = 1
  Basis Set: AUG-CC-PVTZ
    Blend: AUG-CC-PVTZ
  Basis Set: (AUG-CC-PVTZ AUX)
    Blend: AUG-CC-PVTZ-JKFIT + DEF2-UNIVERSAL-JKFIT
  @DF-RHF Final Energy:  -106.93172140043085
    Total Energy =                       -106.9317214004308596
 Dipole X            :        -41.4680842           37.7196005           -3.7484836
 Dipole Y            :          0.0000000            0.0000000            0.0000000
 Dipole Z            :         -0.0000000            0.0000000           -0.0000000
 Magnitude           :                                                    3.7484836
  //            Monomer A HF           //
    Molecular point group: c1
  Multiplicity = 1
  Basis Set: AUG-CC-PVTZ
    Blend: AUG-CC-PVTZ
  Basis Set: (AUG-CC-PVTZ AUX)
    Blend: AUG-CC-PVTZ-JKFIT + DEF2-UNIVERSAL-JKFIT
  @DF-RHF Final Energy:    -7.23638302448400
    Total Energy =                         -7.2363830244840033
  //            Monomer B HF           //
    Molecular point group: c1

    Geometry (in Angstrom), charge = -1, multiplicity = 1:

       Center              X                  Y                   Z               Mass
    ------------   -----------------  -----------------  -----------------  -----------------
      Gh(LI)          0.000000000000     0.000000000000     0.000000000000     7.016003436600
         F            2.217817000000     0.000000000000     0.000000000000    18.998403162730

  Charge       = -1
  Multiplicity = 1
  Basis Set: AUG-CC-PVTZ
    Blend: AUG-CC-PVTZ
  Basis Set: (AUG-CC-PVTZ AUX)
    Blend: AUG-CC-PVTZ-JKFIT + DEF2-UNIVERSAL-JKFIT

    Orbital Energies [Eh]
    ---------------------

    Doubly Occupied:

       1A    -25.833811     2A     -1.076064     3A     -0.181033
       4A     -0.180988     5A     -0.180988

  @DF-RHF Final Energy:   -99.45085838725875

   => Energetics <=

    Nuclear Repulsion Energy =              0.0000000000000000
    One-Electron Energy =                -143.9959492025328984
    Two-Electron Energy =                  44.5450908152741505
    Total Energy =                        -99.4508583872587479
 Dipole X            :        -41.9101403           37.7196005           -4.1905398
 Dipole Y            :          0.0000000            0.0000000            0.0000000
 Dipole Z            :         -0.0000000            0.0000000           -0.0000000
 Magnitude           :                                                    4.1905398

    SAPT Results
  --------------------------------------------------------------------------------------------------------
    Electrostatics               -236.53910399 [mEh]    -148.43052868 [kcal/mol]    -621.03333198 [kJ/mol]
      Elst10,r                   -237.56832287 [mEh]    -149.07637327 [kcal/mol]    -623.73554576 [kJ/mol]
      Elst12,r                      1.02921887 [mEh]       0.64584459 [kcal/mol]       2.70221378 [kJ/mol]

    Exchange                        9.54754576 [mEh]       5.99117541 [kcal/mol]      25.06707793 [kJ/mol]
      Exch10                        6.90713709 [mEh]       4.33429396 [kcal/mol]      18.13468592 [kJ/mol]
      Exch10(S^2)                   6.89484311 [mEh]       4.32657937 [kcal/mol]      18.10240808 [kJ/mol]
      Exch11(S^2)                  -0.04750676 [mEh]      -0.02981094 [kcal/mol]      -0.12472898 [kJ/mol]
      Exch12(S^2)                   2.68791543 [mEh]       1.68669240 [kcal/mol]       7.05712099 [kJ/mol]

    Induction                     -17.63511609 [mEh]     -11.06620241 [kcal/mol]     -46.30099090 [kJ/mol]
      Ind20,r                     -21.33643143 [mEh]     -13.38881286 [kcal/mol]     -56.01879299 [kJ/mol]
      Ind22                        -6.22730900 [mEh]      -3.90769539 [kcal/mol]     -16.34979753 [kJ/mol]
      Exch-Ind20,r                  8.26071855 [mEh]       5.18367915 [kcal/mol]      21.68851357 [kJ/mol]
      Exch-Ind22                    2.41099582 [mEh]       1.51292272 [kcal/mol]       6.33006865 [kJ/mol]
      delta HF,r (2)               -0.74309003 [mEh]      -0.46629604 [kcal/mol]      -1.95098261 [kJ/mol]

    Dispersion                     -0.33553833 [mEh]      -0.21055348 [kcal/mol]      -0.88095576 [kJ/mol]
      Disp20                       -0.28395397 [mEh]      -0.17818381 [kcal/mol]      -0.74552104 [kJ/mol]
      Disp21                       -0.02800976 [mEh]      -0.01757639 [kcal/mol]      -0.07353962 [kJ/mol]
      Disp22 (SDQ)                 -0.03924769 [mEh]      -0.02462830 [kcal/mol]      -0.10304479 [kJ/mol]
      Disp22 (T)                   -0.02660045 [mEh]      -0.01669203 [kcal/mol]      -0.06983946 [kJ/mol]
      Est. Disp22 (T)              -0.03270444 [mEh]      -0.02052234 [kcal/mol]      -0.08586548 [kJ/mol]
      Exch-Disp20                   0.04837753 [mEh]       0.03035736 [kcal/mol]       0.12701518 [kJ/mol]

  Total HF                       -244.47998869 [mEh]    -153.41350905 [kcal/mol]    -641.88212187 [kJ/mol]
  Total SAPT0                    -244.71556513 [mEh]    -153.56133550 [kcal/mol]    -642.50062773 [kJ/mol]
  Total SAPT2                    -244.86225077 [mEh]    -153.65338213 [kcal/mol]    -642.88575082 [kJ/mol]
  Total SAPT2+                   -244.96221265 [mEh]    -153.71610916 [kcal/mol]    -643.14820071 [kJ/mol]

  Special recipe for scaled SAPT0 (see Manual):
    Electrostatics sSAPT0        -237.56832287 [mEh]    -149.07637327 [kcal/mol]    -623.73554576 [kJ/mol]
    Exchange sSAPT0                 6.90713709 [mEh]       4.33429396 [kcal/mol]      18.13468592 [kJ/mol]
    Induction sSAPT0              -13.77453578 [mEh]      -8.64365170 [kcal/mol]     -36.16503870 [kJ/mol]
    Dispersion sSAPT0              -0.23531720 [mEh]      -0.14766377 [kcal/mol]      -0.61782522 [kJ/mol]
  Total sSAPT0                   -244.67103876 [mEh]    -153.53339478 [kcal/mol]    -642.38372376 [kJ/mol]
  --------------------------------------------------------------------------------------------------------

*** Psi4 exiting successfully. Buy a developer a beer!
