                               Psi4 1.9 release

  ==> Input File <==

--------------------------------------------------------------------------
MEMORY 60 GB

molecule dimer {
1 1
Li     0.000000     0.000000     0.000000
--
-1 1
F     1.663363     0.000000     0.000000

units ang
no_reorient
no_com
symmetry c1
}

set {
basis        aug-cc-pVTZ
scf_type     df
}

energy("sapt2+")
--------------------------------------------------------------------------

  //              Dimer HF             //
    Molecular point group: c1
  Charge       = 0
  Multiplicity = 1
  Basis Set: AUG-CC-PVTZ
    Blend: AUG-CC-PVTZ
  Basis Set: (AUG-CC-PVTZ AUX)
    Blend: AUG-CC-PVTZ-JKFIT + DEF2-UNIVERSAL-JKFIT
  @DF-RHF Final Energy:  -106.98021843430543
    Total Energy =                       -106.9802184343054279
 Dipole X            :        -31.0085752           28.2897047           -2.7188706
 Dipole Y            :         -0.0000000            0.0000000           -0.0000000
 Dipole Z            :          0.0000000            0.0000000            0.0000000
 Magnitude           :                                                    2.7188706
  //            Monomer A HF           //
    Molecular point group: c1
  Multiplicity = 1
  Basis Set: AUG-CC-PVTZ
    Blend: AUG-CC-PVTZ
  Basis Set: (AUG-CC-PVTZ AUX)
    Blend: AUG-CC-PVTZ-JKFIT + DEF2-UNIVERSAL-JKFIT
  @DF-RHF Final Energy:    -7.23638314711628
    Total Energy =                         -7.2363831471162818
  //            Monomer B HF           //
    Molecular point group: c1

    Geometry (in Angstrom), charge = -1, multiplicity = 1:

       Center              X                  Y                   Z               Mass
    ------------   -----------------  -----------------  -----------------  -----------------
      Gh(LI)          0.000000000000     0.000000000000     0.000000000000     7.016003436600
         F            1.663363000000     0.000000000000     0.000000000000    18.998403162730

  Charge       = -1
  Multiplicity = 1
  Basis Set: AUG-CC-PVTZ
    Blend: AUG-CC-PVTZ
  Basis Set: (AUG-CC-PVTZ AUX)
    Blend: AUG-CC-PVTZ-JKFIT + DEF2-UNIVERSAL-JKFIT

    Orbital Energies [Eh]
    ---------------------

    Doubly Occupied:

       1A    -25.833766     2A     -1.076044     3A     -0.181006
       4A     -0.180985     5A     -0.180985

  @DF-RHF Final Energy:   -99.45088317728033

   => Energetics <=

    Nuclear Repulsion Energy =              0.0000000000000000
    One-Electron Energy =                -143.9961952667660228
    Two-Electron Energy =                  44.5453120894856838
    Total Energy =                        -99.4508831772803319
 Dipole X            :        -31.4333274           28.2897047           -3.1436228
 Dipole Y            :         -0.0000000            0.0000000           -0.0000000
 Dipole Z            :         -0.0000000            0.0000000           -0.0000000
 Magnitude           :                                                    3.1436228

    SAPT Results
  --------------------------------------------------------------------------------------------------------
    Electrostatics               -307.39484813 [mEh]    -192.89317939 [kcal/mol]    -807.06506257 [kJ/mol]
      Elst10,r                   -312.21364531 [mEh]    -195.91702028 [kcal/mol]    -819.71681283 [kJ/mol]
      Elst12,r                      4.81879718 [mEh]       3.02384088 [kcal/mol]      12.65175026 [kJ/mol]

    Exchange                       55.23772439 [mEh]      34.66219536 [kcal/mol]     145.02662541 [kJ/mol]
      Exch10                       47.38812242 [mEh]      29.73649577 [kcal/mol]     124.41749828 [kJ/mol]
      Exch10(S^2)                  46.82602439 [mEh]      29.38377392 [kcal/mol]     122.94171009 [kJ/mol]
      Exch11(S^2)                  -0.49275405 [mEh]      -0.30920784 [kcal/mol]      -1.29372559 [kJ/mol]
      Exch12(S^2)                   8.34235602 [mEh]       5.23490744 [kcal/mol]      21.90285272 [kJ/mol]

    Induction                     -32.83701397 [mEh]     -20.60553736 [kcal/mol]     -86.21356831 [kJ/mol]
      Ind20,r                     -60.03040470 [mEh]     -37.66964766 [kcal/mol]    -157.60980582 [kJ/mol]
      Ind22                       -12.93780484 [mEh]      -8.11859511 [kcal/mol]     -33.96820193 [kJ/mol]
      Exch-Ind20,r                 38.17439127 [mEh]      23.95479218 [kcal/mol]     100.22685048 [kJ/mol]
      Exch-Ind22                    8.22737789 [mEh]       5.16275757 [kcal/mol]      21.60097767 [kJ/mol]
      delta HF,r (2)               -6.27057360 [mEh]      -3.93484434 [kcal/mol]     -16.46338871 [kJ/mol]

    Dispersion                     -1.54147566 [mEh]      -0.96729058 [kcal/mol]      -4.04714380 [kJ/mol]
      Disp20                       -1.39847988 [mEh]      -0.87755937 [kcal/mol]      -3.67170841 [kJ/mol]
      Disp21                       -0.08284015 [mEh]      -0.05198298 [kcal/mol]      -0.21749678 [kJ/mol]
      Disp22 (SDQ)                 -0.11395455 [mEh]      -0.07150756 [kcal/mol]      -0.29918764 [kJ/mol]
      Disp22 (T)                   -0.10369332 [mEh]      -0.06506854 [kcal/mol]      -0.27224678 [kJ/mol]
      Est. Disp22 (T)              -0.13276740 [mEh]      -0.08331280 [kcal/mol]      -0.34858076 [kJ/mol]
      Exch-Disp20                   0.18656631 [mEh]       0.11707213 [kcal/mol]       0.48982979 [kJ/mol]

  Total HF                       -292.95210991 [mEh]    -183.83022433 [kcal/mol]    -769.14565860 [kJ/mol]
  Total SAPT0                    -294.16402347 [mEh]    -184.59071157 [kcal/mol]    -772.32753722 [kJ/mol]
  Total SAPT2                    -286.20605127 [mEh]    -179.59700863 [kcal/mol]    -751.43388409 [kJ/mol]
  Total SAPT2+                   -286.53561338 [mEh]    -179.80381197 [kcal/mol]    -752.29914927 [kJ/mol]

  Special recipe for scaled SAPT0 (see Manual):
    Electrostatics sSAPT0        -312.21364531 [mEh]    -195.91702028 [kcal/mol]    -819.71681283 [kJ/mol]
    Exchange sSAPT0                47.38812242 [mEh]      29.73649577 [kcal/mol]     124.41749828 [kJ/mol]
    Induction sSAPT0              -26.73528638 [mEh]     -16.77664549 [kcal/mol]     -70.19348473 [kJ/mol]
    Dispersion sSAPT0              -1.20511398 [mEh]      -0.75622044 [kcal/mol]      -3.16402632 [kJ/mol]
  Total sSAPT0                   -292.76592325 [mEh]    -183.71339044 [kcal/mol]    -768.65682560 [kJ/mol]
  --------------------------------------------------------------------------------------------------------

*** Psi4 exiting successfully. Buy a developer a beer!
