                               Psi4 1.9 release

  ==> Input File <==

--------------------------------------------------------------------------
MEMORY 60 GB

molecule dimer {
1 1
Li     0.000000     0.000000     0.000000
--
-1 1
F     1.425739     0.000000     0.000000

units ang
no_reorient
no_com
symmetry c1
}

set {
basis        aug-cc-pVTZ
scf_type     df
}

energy("sapt2+")
--------------------------------------------------------------------------

  //              Dimer HF             //
    Molecular point group: c1
  Charge       = 0
  Multiplicity = 1
  Basis Set: AUG-CC-PVTZ
    Blend: AUG-CC-PVTZ
  Basis Set: (AUG-CC-PVTZ AUX)
    Blend: AUG-CC-PVTZ-JKFIT + DEF2-UNIVERSAL-JKFIT
  @DF-RHF Final Energy:  -106.97555031399071
    Total Energy =                       -106.9755503139907091
 Dipole X            :        -26.5445356           24.2483061           -2.2962295
 Dipole Y            :         -0.0000000            0.0000000           -0.0000000
 Dipole Z            :          0.0000000            0.0000000            0.0000000
 Magnitude           :                                                    2.2962295
  //            Monomer A HF           //
    Molecular point group: c1
  Multiplicity = 1
  Basis Set: AUG-CC-PVTZ
    Blend: AUG-CC-PVTZ
  Basis Set: (AUG-CC-PVTZ AUX)
    Blend: AUG-CC-PVTZ-JKFIT + DEF2-UNIVERSAL-JKFIT
  @DF-RHF Final Energy:    -7.23638327083298
    Total Energy =                         -7.2363832708329801
  //            Monomer B HF           //
    Molecular point group: c1

    Geometry (in Angstrom), charge = -1, multiplicity = 1:

       Center              X                  Y                   Z               Mass
    ------------   -----------------  -----------------  -----------------  -----------------
      Gh(LI)          0.000000000000     0.000000000000     0.000000000000     7.016003436600
         F            1.425739000000     0.000000000000     0.000000000000    18.998403162730

  Charge       = -1
  Multiplicity = 1
  Basis Set: AUG-CC-PVTZ
    Blend: AUG-CC-PVTZ
  Basis Set: (AUG-CC-PVTZ AUX)
    Blend: AUG-CC-PVTZ-JKFIT + DEF2-UNIVERSAL-JKFIT

    Orbital Energies [Eh]
    ---------------------

    Doubly Occupied:

       1A    -25.833740     2A     -1.076029     3A     -0.180984
       4A     -0.180984     5A     -0.180980

  @DF-RHF Final Energy:   -99.45088467944794

   => Energetics <=

    Nuclear Repulsion Energy =              0.0000000000000000
    One-Electron Energy =                -143.9963338651461697
    Two-Electron Energy =                  44.5454491856982386
    Total Energy =                        -99.4508846794479382
 Dipole X            :        -26.9432548           24.2483061           -2.6949487
 Dipole Y            :         -0.0000000            0.0000000           -0.0000000
 Dipole Z            :          0.0000000            0.0000000            0.0000000
 Magnitude           :                                                    2.6949487

    SAPT Results
  --------------------------------------------------------------------------------------------------------
    Electrostatics               -349.46304608 [mEh]    -219.29137215 [kcal/mol]    -917.51510109 [kJ/mol]
      Elst10,r                   -358.72347608 [mEh]    -225.10237971 [kcal/mol]    -941.82835670 [kJ/mol]
      Elst12,r                      9.26043000 [mEh]       5.81100756 [kcal/mol]      24.31325561 [kJ/mol]

    Exchange                      126.22582647 [mEh]      79.20790194 [kcal/mol]     331.40586173 [kJ/mol]
      Exch10                      115.99207995 [mEh]      72.78612905 [kcal/mol]     304.53716396 [kJ/mol]
      Exch10(S^2)                 112.76094290 [mEh]      70.75855994 [kcal/mol]     296.05381479 [kJ/mol]
      Exch11(S^2)                  -1.24578869 [mEh]      -0.78174420 [kcal/mol]      -3.27081775 [kJ/mol]
      Exch12(S^2)                  11.47953520 [mEh]       7.20351709 [kcal/mol]      30.13951551 [kJ/mol]

    Induction                     -50.54112796 [mEh]     -31.71503661 [kcal/mol]    -132.69571318 [kJ/mol]
      Ind20,r                     -99.26309589 [mEh]     -62.28853307 [kcal/mol]    -260.61522237 [kJ/mol]
      Ind22                       -17.70512623 [mEh]     -11.11013445 [kcal/mol]     -46.48480252 [kJ/mol]
      Exch-Ind20,r                 71.28595742 [mEh]      44.73261363 [kcal/mol]     187.16125543 [kJ/mol]
      Exch-Ind22                   12.71496585 [mEh]       7.97876153 [kcal/mol]      33.38313825 [kJ/mol]
      delta HF,r (2)              -17.57382911 [mEh]     -11.02774426 [kcal/mol]     -46.14008197 [kJ/mol]

    Dispersion                     -3.29604714 [mEh]      -2.06830081 [kcal/mol]      -8.65377058 [kJ/mol]
      Disp20                       -3.06547745 [mEh]      -1.92361614 [kcal/mol]      -8.04840994 [kJ/mol]
      Disp21                       -0.06968815 [mEh]      -0.04372997 [kcal/mol]      -0.18296620 [kJ/mol]
      Disp22 (SDQ)                 -0.19646167 [mEh]      -0.12328156 [kcal/mol]      -0.51581005 [kJ/mol]
      Disp22 (T)                   -0.19555892 [mEh]      -0.12271508 [kcal/mol]      -0.51343988 [kJ/mol]
      Est. Disp22 (T)              -0.25731244 [mEh]      -0.16146599 [kcal/mol]      -0.67557371 [kJ/mol]
      Exch-Disp20                   0.29289256 [mEh]       0.18379286 [kcal/mol]       0.76898932 [kJ/mol]

  Total HF                       -288.28236371 [mEh]    -180.89991435 [kcal/mol]    -756.88524164 [kJ/mol]
  Total SAPT0                    -291.05494860 [mEh]    -182.63973763 [kcal/mol]    -764.16466226 [kJ/mol]
  Total SAPT2                    -276.55093247 [mEh]    -173.53833010 [kcal/mol]    -726.08437316 [kJ/mol]
  Total SAPT2+                   -277.07439472 [mEh]    -173.86680763 [kcal/mol]    -727.45872312 [kJ/mol]

  Special recipe for scaled SAPT0 (see Manual):
    Electrostatics sSAPT0        -358.72347608 [mEh]    -225.10237971 [kcal/mol]    -941.82835670 [kJ/mol]
    Exchange sSAPT0               115.99207995 [mEh]      72.78612905 [kcal/mol]     304.53716396 [kJ/mol]
    Induction sSAPT0              -39.24564806 [mEh]     -24.62701596 [kcal/mol]    -103.03943478 [kJ/mol]
    Dispersion sSAPT0              -2.74667823 [mEh]      -1.72356661 [kcal/mol]      -7.21140269 [kJ/mol]
  Total sSAPT0                   -284.72372241 [mEh]    -178.66683322 [kcal/mol]    -747.54203021 [kJ/mol]
  --------------------------------------------------------------------------------------------------------

*** Psi4 exiting successfully. Buy a developer a beer!
