                               Psi4 1.9 release

  ==> Input File <==

--------------------------------------------------------------------------
MEMORY 60 GB

molecule dimer {
1 1
Li     0.000000     0.000000     0.000000
--
-1 1
F     2.376232     0.000000     0.000000

units ang
no_reorient
no_com
symmetry c1
}

set {
basis        aug-cc-pVTZ
scf_type     df
}

energy("sapt2+")
--------------------------------------------------------------------------

  //              Dimer HF             //
    Molecular point group: c1
  Charge       = 0
  Multiplicity = 1
  Basis Set: AUG-CC-PVTZ
    Blend: AUG-CC-PVTZ
  Basis Set: (AUG-CC-PVTZ AUX)
    Blend: AUG-CC-PVTZ-JKFIT + DEF2-UNIVERSAL-JKFIT
  @DF-RHF Final Energy:  -106.91694452862531
    Total Energy =                       -106.9169445286253080
 Dipole X            :        -44.4691083           40.4138492           -4.0552591
 Dipole Y            :          0.0000000            0.0000000            0.0000000
 Dipole Z            :          0.0000000            0.0000000            0.0000000
 Magnitude           :                                                    4.0552591
  //            Monomer A HF           //
    Molecular point group: c1
  Multiplicity = 1
  Basis Set: AUG-CC-PVTZ
    Blend: AUG-CC-PVTZ
  Basis Set: (AUG-CC-PVTZ AUX)
    Blend: AUG-CC-PVTZ-JKFIT + DEF2-UNIVERSAL-JKFIT
  @DF-RHF Final Energy:    -7.23638297505769
    Total Energy =                         -7.2363829750576878
  //            Monomer B HF           //
    Molecular point group: c1

    Geometry (in Angstrom), charge = -1, multiplicity = 1:

       Center              X                  Y                   Z               Mass
    ------------   -----------------  -----------------  -----------------  -----------------
      Gh(LI)          0.000000000000     0.000000000000     0.000000000000     7.016003436600
         F            2.376232000000     0.000000000000     0.000000000000    18.998403162730

  Charge       = -1
  Multiplicity = 1
  Basis Set: AUG-CC-PVTZ
    Blend: AUG-CC-PVTZ
  Basis Set: (AUG-CC-PVTZ AUX)
    Blend: AUG-CC-PVTZ-JKFIT + DEF2-UNIVERSAL-JKFIT

    Orbital Energies [Eh]
    ---------------------

    Doubly Occupied:

       1A    -25.833820     2A     -1.076068     3A     -0.181030
       4A     -0.180992     5A     -0.180992

  @DF-RHF Final Energy:   -99.45084940038427

   => Energetics <=

    Nuclear Repulsion Energy =              0.0000000000000000
    One-Electron Energy =                -143.9958960532683250
    Two-Electron Energy =                  44.5450466528840607
    Total Energy =                        -99.4508494003842713
 Dipole X            :        -44.9035640           40.4138492           -4.4897148
 Dipole Y            :         -0.0000000            0.0000000           -0.0000000
 Dipole Z            :          0.0000000            0.0000000            0.0000000
 Magnitude           :                                                    4.4897148

    SAPT Results
  --------------------------------------------------------------------------------------------------------
    Electrostatics               -221.43451320 [mEh]    -138.95225485 [kcal/mol]    -581.37623430 [kJ/mol]
      Elst10,r                   -222.07995976 [mEh]    -139.35727868 [kcal/mol]    -583.07085402 [kJ/mol]
      Elst12,r                      0.64544656 [mEh]       0.40502383 [kcal/mol]       1.69461972 [kJ/mol]

    Exchange                        5.95580244 [mEh]       3.73732245 [kcal/mol]      15.63695715 [kJ/mol]
      Exch10                        4.11251082 [mEh]       2.58063950 [kcal/mol]      10.79739566 [kJ/mol]
      Exch10(S^2)                   4.10815302 [mEh]       2.57790494 [kcal/mol]      10.78595427 [kJ/mol]
      Exch11(S^2)                  -0.02444462 [mEh]      -0.01533923 [kcal/mol]      -0.06417934 [kJ/mol]
      Exch12(S^2)                   1.86773624 [mEh]       1.17202219 [kcal/mol]       4.90374083 [kJ/mol]

    Induction                     -15.14102243 [mEh]      -9.50113502 [kcal/mol]     -39.75274892 [kJ/mol]
      Ind20,r                     -16.33995215 [mEh]     -10.25347477 [kcal/mol]     -42.90053846 [kJ/mol]
      Ind22                        -5.03795772 [mEh]      -3.16136620 [kcal/mol]     -13.22715617 [kJ/mol]
      Exch-Ind20,r                  5.32444153 [mEh]       3.34113750 [kcal/mol]      13.97931931 [kJ/mol]
      Exch-Ind22                    1.64163953 [mEh]       1.03014436 [kcal/mol]       4.31012398 [kJ/mol]
      delta HF,r (2)               -0.72919362 [mEh]      -0.45757591 [kcal/mol]      -1.91449759 [kJ/mol]

    Dispersion                     -0.22565804 [mEh]      -0.14160256 [kcal/mol]      -0.59246509 [kJ/mol]
      Disp20                       -0.18700768 [mEh]      -0.11734909 [kcal/mol]      -0.49098860 [kJ/mol]
      Disp21                       -0.01929730 [mEh]      -0.01210924 [kcal/mol]      -0.05066506 [kJ/mol]
      Disp22 (SDQ)                 -0.02914123 [mEh]      -0.01828640 [kcal/mol]      -0.07651030 [kJ/mol]
      Disp22 (T)                   -0.01835880 [mEh]      -0.01152032 [kcal/mol]      -0.04820101 [kJ/mol]
      Est. Disp22 (T)              -0.02242171 [mEh]      -0.01406984 [kcal/mol]      -0.05886820 [kJ/mol]
      Exch-Disp20                   0.03220990 [mEh]       0.02021201 [kcal/mol]       0.08456707 [kJ/mol]

  Total HF                       -229.71215318 [mEh]    -144.14655236 [kcal/mol]    -603.10917509 [kJ/mol]
  Total SAPT0                    -229.86695097 [mEh]    -144.24368944 [kcal/mol]    -603.51559663 [kJ/mol]
  Total SAPT2                    -230.77453098 [mEh]    -144.81320449 [kcal/mol]    -605.89844761 [kJ/mol]
  Total SAPT2+                   -230.84539123 [mEh]    -144.85766997 [kcal/mol]    -606.08449116 [kJ/mol]

  Special recipe for scaled SAPT0 (see Manual):
    Electrostatics sSAPT0        -222.07995976 [mEh]    -139.35727868 [kcal/mol]    -583.07085402 [kJ/mol]
    Exchange sSAPT0                 4.11251082 [mEh]       2.58063950 [kcal/mol]      10.79739566 [kJ/mol]
    Induction sSAPT0              -11.72774228 [mEh]      -7.35926939 [kcal/mol]     -30.79118311 [kJ/mol]
    Dispersion sSAPT0              -0.15469518 [mEh]      -0.09707269 [kcal/mol]      -0.40615213 [kJ/mol]
  Total sSAPT0                   -229.84988640 [mEh]    -144.23298126 [kcal/mol]    -603.47079360 [kJ/mol]
  --------------------------------------------------------------------------------------------------------

*** Psi4 exiting successfully. Buy a developer a beer!
