                               Psi4 1.9 release

  ==> Input File <==

--------------------------------------------------------------------------
MEMORY 60 GB

molecule dimer {
1 1
Li     0.000000     0.000000     0.000000
--
-1 1
Cl     2.638736     0.000000     0.000000

units ang
no_reorient
no_com
symmetry c1
}

set {
basis        aug-cc-pVTZ
scf_type     df
}

energy("sapt2+")
--------------------------------------------------------------------------

  //              Dimer HF             //
    Molecular point group: c1
  Charge       = 0
  Multiplicity = 1
  Basis Set: AUG-CC-PVTZ
    Blend: AUG-CC-PVTZ
  Basis Set: (AUG-CC-PVTZ AUX)
    Blend: AUG-CC-PVTZ-JKFIT + DEF2-UNIVERSAL-JKFIT
  @DF-RHF Final Energy:  -467.02304686247527
    Total Energy =                       -467.0230468624752689
 Dipole X            :        -88.7753476           84.7703021           -4.0050455
 Dipole Y            :          0.0000000            0.0000000            0.0000000
 Dipole Z            :         -0.0000000            0.0000000           -0.0000000
 Magnitude           :                                                    4.0050455
  //            Monomer A HF           //
    Molecular point group: c1
  Multiplicity = 1
  Basis Set: AUG-CC-PVTZ
    Blend: AUG-CC-PVTZ
  Basis Set: (AUG-CC-PVTZ AUX)
    Blend: AUG-CC-PVTZ-JKFIT + DEF2-UNIVERSAL-JKFIT
  @DF-RHF Final Energy:    -7.23638290951970
    Total Energy =                         -7.2363829095196976
  //            Monomer B HF           //
    Molecular point group: c1

    Geometry (in Angstrom), charge = -1, multiplicity = 1:

       Center              X                  Y                   Z               Mass
    ------------   -----------------  -----------------  -----------------  -----------------
      Gh(LI)          0.000000000000     0.000000000000     0.000000000000     7.016003436600
         CL           2.638736000000     0.000000000000     0.000000000000    34.968852682000

  Charge       = -1
  Multiplicity = 1
  Basis Set: AUG-CC-PVTZ
    Blend: AUG-CC-PVTZ
  Basis Set: (AUG-CC-PVTZ AUX)
    Blend: AUG-CC-PVTZ-JKFIT + DEF2-UNIVERSAL-JKFIT

    Orbital Energies [Eh]
    ---------------------

    Doubly Occupied:

       1A   -104.506312     2A    -10.229827     3A     -7.695873
       4A     -7.695873     5A     -7.695856     6A     -0.733500
       7A     -0.150341     8A     -0.150322     9A     -0.150322

  @DF-RHF Final Energy:  -459.57350240263145

   => Energetics <=

    Nuclear Repulsion Energy =              0.0000000000000000
    One-Electron Energy =                -641.1305505431881784
    Two-Electron Energy =                 181.5570481405567307
    Total Energy =                       -459.5735024026314477
 Dipole X            :        -89.7569266           84.7703021           -4.9866245
 Dipole Y            :          0.0000000            0.0000000            0.0000000
 Dipole Z            :         -0.0000000            0.0000000           -0.0000000
 Magnitude           :                                                    4.9866245

    SAPT Results
  --------------------------------------------------------------------------------------------------------
    Electrostatics               -198.44395927 [mEh]    -124.52546446 [kcal/mol]    -521.01454329 [kJ/mol]
      Elst10,r                   -198.79755877 [mEh]    -124.74735150 [kcal/mol]    -521.94291866 [kJ/mol]
      Elst12,r                      0.35359950 [mEh]       0.22188704 [kcal/mol]       0.92837537 [kJ/mol]

    Exchange                        8.56466325 [mEh]       5.37440733 [kcal/mol]      22.48652026 [kJ/mol]
      Exch10                        7.91820768 [mEh]       4.96875033 [kcal/mol]      20.78925139 [kJ/mol]
      Exch10(S^2)                   7.90235460 [mEh]       4.95880237 [kcal/mol]      20.74762914 [kJ/mol]
      Exch11(S^2)                  -0.06881641 [mEh]      -0.04318295 [kcal/mol]      -0.18067745 [kJ/mol]
      Exch12(S^2)                   0.71527198 [mEh]       0.44883994 [kcal/mol]       1.87794632 [kJ/mol]

    Induction                     -24.18897991 [mEh]     -15.17881406 [kcal/mol]     -63.50815801 [kJ/mol]
      Ind20,r                     -32.47149249 [mEh]     -20.37616917 [kcal/mol]     -85.25389180 [kJ/mol]
      Ind22                        -2.90348325 [mEh]      -1.82196325 [kcal/mol]      -7.62309424 [kJ/mol]
      Exch-Ind20,r                 11.14675619 [mEh]       6.99469511 [kcal/mol]      29.26580436 [kJ/mol]
      Exch-Ind22                    0.99670257 [mEh]       0.62544030 [kcal/mol]       2.61684223 [kJ/mol]
      delta HF,r (2)               -0.95746293 [mEh]      -0.60081706 [kcal/mol]      -2.51381857 [kJ/mol]

    Dispersion                     -0.30379013 [mEh]      -0.19063119 [kcal/mol]      -0.79760088 [kJ/mol]
      Disp20                       -0.32430225 [mEh]      -0.20350274 [kcal/mol]      -0.85145545 [kJ/mol]
      Disp21                       -0.01598898 [mEh]      -0.01003324 [kcal/mol]      -0.04197907 [kJ/mol]
      Disp22 (SDQ)                 -0.00443545 [mEh]      -0.00278329 [kcal/mol]      -0.01164527 [kJ/mol]
      Disp22 (T)                   -0.01971250 [mEh]      -0.01236978 [kcal/mol]      -0.05175515 [kJ/mol]
      Est. Disp22 (T)              -0.02486601 [mEh]      -0.01560366 [kcal/mol]      -0.06528571 [kJ/mol]
      Exch-Disp20                   0.06580257 [mEh]       0.04129173 [kcal/mol]       0.17276462 [kJ/mol]

  Total HF                       -213.16155032 [mEh]    -133.76089227 [kcal/mol]    -559.65557327 [kJ/mol]
  Total SAPT0                    -213.42005001 [mEh]    -133.92310327 [kcal/mol]    -560.33426410 [kJ/mol]
  Total SAPT2                    -214.32677562 [mEh]    -134.49208219 [kcal/mol]    -562.71487187 [kJ/mol]
  Total SAPT2+                   -214.37206607 [mEh]    -134.52050237 [kcal/mol]    -562.83378192 [kJ/mol]

  Special recipe for scaled SAPT0 (see Manual):
    Electrostatics sSAPT0        -198.79755877 [mEh]    -124.74735150 [kcal/mol]    -521.94291866 [kJ/mol]
    Exchange sSAPT0                 7.91820768 [mEh]       4.96875033 [kcal/mol]      20.78925139 [kJ/mol]
    Induction sSAPT0              -22.21497933 [mEh]     -13.94010999 [kcal/mol]     -58.32542019 [kJ/mol]
    Dispersion sSAPT0              -0.25810287 [mEh]      -0.16196199 [kcal/mol]      -0.67764898 [kJ/mol]
  Total sSAPT0                   -213.35243329 [mEh]    -133.88067314 [kcal/mol]    -560.15673643 [kJ/mol]
  --------------------------------------------------------------------------------------------------------

*** Psi4 exiting successfully. Buy a developer a beer!
