                               Psi4 1.9 release

  ==> Input File <==

--------------------------------------------------------------------------
MEMORY 60 GB

molecule dimer {
1 1
Li     0.000000     0.000000     0.000000
--
-1 1
Cl     4.059594     0.000000     0.000000

units ang
no_reorient
no_com
symmetry c1
}

set {
basis        aug-cc-pVTZ
scf_type     df
}

energy("sapt2+")
--------------------------------------------------------------------------

  //              Dimer HF             //
    Molecular point group: c1
  Charge       = 0
  Multiplicity = 1
  Basis Set: AUG-CC-PVTZ
    Blend: AUG-CC-PVTZ
  Basis Set: (AUG-CC-PVTZ AUX)
    Blend: AUG-CC-PVTZ-JKFIT + DEF2-UNIVERSAL-JKFIT
  @DF-RHF Final Energy:  -466.94661141504810
    Total Energy =                       -466.9466114150480962
 Dipole X            :       -137.3825707          130.4158543           -6.9667164
 Dipole Y            :         -0.0000000            0.0000000           -0.0000000
 Dipole Z            :         -0.0000000            0.0000000           -0.0000000
 Magnitude           :                                                    6.9667164
  //            Monomer A HF           //
    Molecular point group: c1
  Multiplicity = 1
  Basis Set: AUG-CC-PVTZ
    Blend: AUG-CC-PVTZ
  Basis Set: (AUG-CC-PVTZ AUX)
    Blend: AUG-CC-PVTZ-JKFIT + DEF2-UNIVERSAL-JKFIT
  @DF-RHF Final Energy:    -7.23638247009257
    Total Energy =                         -7.2363824700925736
  //            Monomer B HF           //
    Molecular point group: c1

    Geometry (in Angstrom), charge = -1, multiplicity = 1:

       Center              X                  Y                   Z               Mass
    ------------   -----------------  -----------------  -----------------  -----------------
      Gh(LI)          0.000000000000     0.000000000000     0.000000000000     7.016003436600
         CL           4.059594000000     0.000000000000     0.000000000000    34.968852682000

  Charge       = -1
  Multiplicity = 1
  Basis Set: AUG-CC-PVTZ
    Blend: AUG-CC-PVTZ
  Basis Set: (AUG-CC-PVTZ AUX)
    Blend: AUG-CC-PVTZ-JKFIT + DEF2-UNIVERSAL-JKFIT

    Orbital Energies [Eh]
    ---------------------

    Doubly Occupied:

       1A   -104.506082     2A    -10.229773     3A     -7.695812
       4A     -7.695812     5A     -7.695801     6A     -0.733511
       7A     -0.150338     8A     -0.150335     9A     -0.150335

  @DF-RHF Final Energy:  -459.57348840131607

   => Energetics <=

    Nuclear Repulsion Energy =              0.0000000000000000
    One-Electron Energy =                -641.1313753993256341
    Two-Electron Energy =                 181.5578869980095931
    Total Energy =                       -459.5734884013160126
 Dipole X            :       -138.0874792          130.4158543           -7.6716249
 Dipole Y            :         -0.0000000            0.0000000           -0.0000000
 Dipole Z            :         -0.0000000            0.0000000           -0.0000000
 Magnitude           :                                                    7.6716249

    SAPT Results
  --------------------------------------------------------------------------------------------------------
    Electrostatics               -130.34493872 [mEh]     -81.79268391 [kcal/mol]    -342.22058946 [kJ/mol]
      Elst10,r                   -130.31687560 [mEh]     -81.77507403 [kcal/mol]    -342.14690974 [kJ/mol]
      Elst12,r                     -0.02806312 [mEh]      -0.01760988 [kcal/mol]      -0.07367972 [kJ/mol]

    Exchange                        0.20103848 [mEh]       0.12615355 [kcal/mol]       0.52782644 [kJ/mol]
      Exch10                        0.16240980 [mEh]       0.10191369 [kcal/mol]       0.42640687 [kJ/mol]
      Exch10(S^2)                   0.16240327 [mEh]       0.10190959 [kcal/mol]       0.42638973 [kJ/mol]
      Exch11(S^2)                  -0.00060911 [mEh]      -0.00038222 [kcal/mol]      -0.00159921 [kJ/mol]
      Exch12(S^2)                   0.03923778 [mEh]       0.02462208 [kcal/mol]       0.10301878 [kJ/mol]

    Induction                      -7.14505703 [mEh]      -4.48359098 [kcal/mol]     -18.75934466 [kJ/mol]
      Ind20,r                      -5.49062485 [mEh]      -3.44541911 [kcal/mol]     -14.41563355 [kJ/mol]
      Ind22                        -0.59772607 [mEh]      -0.37507877 [kcal/mol]      -1.56932957 [kJ/mol]
      Exch-Ind20,r                  0.35592318 [mEh]       0.22334517 [kcal/mol]       0.93447619 [kJ/mol]
      Exch-Ind22                    0.03874688 [mEh]       0.02431403 [kcal/mol]       0.10172991 [kJ/mol]
      delta HF,r (2)               -1.45137618 [mEh]      -0.91075230 [kcal/mol]      -3.81058762 [kJ/mol]

    Dispersion                     -0.01864508 [mEh]      -0.01169996 [kcal/mol]      -0.04895265 [kJ/mol]
      Disp20                       -0.01763360 [mEh]      -0.01106525 [kcal/mol]      -0.04629701 [kJ/mol]
      Disp21                       -0.00061091 [mEh]      -0.00038335 [kcal/mol]      -0.00160395 [kJ/mol]
      Disp22 (SDQ)                 -0.00071778 [mEh]      -0.00045041 [kcal/mol]      -0.00188453 [kJ/mol]
      Disp22 (T)                   -0.00122439 [mEh]      -0.00076832 [kcal/mol]      -0.00321464 [kJ/mol]
      Est. Disp22 (T)              -0.00155520 [mEh]      -0.00097590 [kcal/mol]      -0.00408318 [kJ/mol]
      Exch-Disp20                   0.00187241 [mEh]       0.00117496 [kcal/mol]       0.00491602 [kJ/mol]

  Total HF                       -136.74054364 [mEh]     -85.80598658 [kcal/mol]    -359.01224786 [kJ/mol]
  Total SAPT0                    -136.75630482 [mEh]     -85.81587688 [kcal/mol]    -359.05362885 [kJ/mol]
  Total SAPT2                    -137.30471846 [mEh]     -86.16001163 [kcal/mol]    -360.49348866 [kJ/mol]
  Total SAPT2+                   -137.30760235 [mEh]     -86.16182130 [kcal/mol]    -360.50106032 [kJ/mol]

  Special recipe for scaled SAPT0 (see Manual):
    Electrostatics sSAPT0        -130.31687560 [mEh]     -81.77507403 [kcal/mol]    -342.14690974 [kJ/mol]
    Exchange sSAPT0                 0.16240980 [mEh]       0.10191369 [kcal/mol]       0.42640687 [kJ/mol]
    Induction sSAPT0               -6.58603492 [mEh]      -4.13279931 [kcal/mol]     -17.29163231 [kJ/mol]
    Dispersion sSAPT0              -0.01576096 [mEh]      -0.00989015 [kcal/mol]      -0.04138039 [kJ/mol]
  Total sSAPT0                   -136.75626168 [mEh]     -85.81584980 [kcal/mol]    -359.05351557 [kJ/mol]
  --------------------------------------------------------------------------------------------------------

*** Psi4 exiting successfully. Buy a developer a beer!
