                               Psi4 1.9 release

  ==> Input File <==

--------------------------------------------------------------------------
MEMORY 60 GB

molecule dimer {
1 1
Li     0.000000     0.000000     0.000000
--
-1 1
Cl     3.044695     0.000000     0.000000

units ang
no_reorient
no_com
symmetry c1
}

set {
basis        aug-cc-pVTZ
scf_type     df
}

energy("sapt2+")
--------------------------------------------------------------------------

  //              Dimer HF             //
    Molecular point group: c1
  Charge       = 0
  Multiplicity = 1
  Basis Set: AUG-CC-PVTZ
    Blend: AUG-CC-PVTZ
  Basis Set: (AUG-CC-PVTZ AUX)
    Blend: AUG-CC-PVTZ-JKFIT + DEF2-UNIVERSAL-JKFIT
  @DF-RHF Final Energy:  -466.99651584046387
    Total Energy =                       -466.9965158404638714
 Dipole X            :       -102.6302512           97.8118747           -4.8183765
 Dipole Y            :          0.0000000            0.0000000            0.0000000
 Dipole Z            :          0.0000000            0.0000000            0.0000000
 Magnitude           :                                                    4.8183765
  //            Monomer A HF           //
    Molecular point group: c1
  Multiplicity = 1
  Basis Set: AUG-CC-PVTZ
    Blend: AUG-CC-PVTZ
  Basis Set: (AUG-CC-PVTZ AUX)
    Blend: AUG-CC-PVTZ-JKFIT + DEF2-UNIVERSAL-JKFIT
  @DF-RHF Final Energy:    -7.23638270601103
    Total Energy =                         -7.2363827060110344
  //            Monomer B HF           //
    Molecular point group: c1

    Geometry (in Angstrom), charge = -1, multiplicity = 1:

       Center              X                  Y                   Z               Mass
    ------------   -----------------  -----------------  -----------------  -----------------
      Gh(LI)          0.000000000000     0.000000000000     0.000000000000     7.016003436600
         CL           3.044695000000     0.000000000000     0.000000000000    34.968852682000

  Charge       = -1
  Multiplicity = 1
  Basis Set: AUG-CC-PVTZ
    Blend: AUG-CC-PVTZ
  Basis Set: (AUG-CC-PVTZ AUX)
    Blend: AUG-CC-PVTZ-JKFIT + DEF2-UNIVERSAL-JKFIT

    Orbital Energies [Eh]
    ---------------------

    Doubly Occupied:

       1A   -104.506213     2A    -10.229803     3A     -7.695847
       4A     -7.695847     5A     -7.695831     6A     -0.733504
       7A     -0.150341     8A     -0.150326     9A     -0.150326

  @DF-RHF Final Energy:  -459.57349663855376

   => Energetics <=

    Nuclear Repulsion Energy =              0.0000000000000000
    One-Electron Energy =                -641.1309187205051785
    Two-Electron Energy =                 181.5574220819513869
    Total Energy =                       -459.5734966385538200
 Dipole X            :       -103.5654007           97.8118747           -5.7535260
 Dipole Y            :          0.0000000            0.0000000            0.0000000
 Dipole Z            :          0.0000000            0.0000000            0.0000000
 Magnitude           :                                                    5.7535260

    SAPT Results
  --------------------------------------------------------------------------------------------------------
    Electrostatics               -173.12270964 [mEh]    -108.63614042 [kcal/mol]    -454.53361153 [kJ/mol]
      Elst10,r                   -173.21145747 [mEh]    -108.69183053 [kcal/mol]    -454.76661893 [kJ/mol]
      Elst12,r                      0.08874783 [mEh]       0.05569011 [kcal/mol]       0.23300740 [kJ/mol]

    Exchange                        2.81272781 [mEh]       1.76501335 [kcal/mol]       7.38481585 [kJ/mol]
      Exch10                        2.49770997 [mEh]       1.56733667 [kcal/mol]       6.55773663 [kJ/mol]
      Exch10(S^2)                   2.49614113 [mEh]       1.56635221 [kcal/mol]       6.55361763 [kJ/mol]
      Exch11(S^2)                  -0.01606220 [mEh]      -0.01007919 [kcal/mol]      -0.04217131 [kJ/mol]
      Exch12(S^2)                   0.33108004 [mEh]       0.20775586 [kcal/mol]       0.86925053 [kJ/mol]

    Induction                     -17.34980499 [mEh]     -10.88716700 [kcal/mol]     -45.55190674 [kJ/mol]
      Ind20,r                     -18.47823580 [mEh]     -11.59526803 [kcal/mol]     -48.51460142 [kJ/mol]
      Ind22                        -1.83926350 [mEh]      -1.15415527 [kcal/mol]      -4.82898566 [kJ/mol]
      Exch-Ind20,r                  4.14125357 [mEh]       2.59867585 [kcal/mol]      10.87285974 [kJ/mol]
      Exch-Ind22                    0.41220691 [mEh]       0.25866374 [kcal/mol]       1.08224910 [kJ/mol]
      delta HF,r (2)               -1.58576617 [mEh]      -0.99508329 [kcal/mol]      -4.16342850 [kJ/mol]

    Dispersion                     -0.12269244 [mEh]      -0.07699067 [kcal/mol]      -0.32212896 [kJ/mol]
      Disp20                       -0.12673246 [mEh]      -0.07952582 [kcal/mol]      -0.33273602 [kJ/mol]
      Disp21                       -0.00654920 [mEh]      -0.00410968 [kcal/mol]      -0.01719491 [kJ/mol]
      Disp22 (SDQ)                 -0.00318910 [mEh]      -0.00200119 [kcal/mol]      -0.00837299 [kJ/mol]
      Disp22 (T)                   -0.00821376 [mEh]      -0.00515421 [kcal/mol]      -0.02156523 [kJ/mol]
      Est. Disp22 (T)              -0.01046120 [mEh]      -0.00656451 [kcal/mol]      -0.02746589 [kJ/mol]
      Exch-Disp20                   0.02423952 [mEh]       0.01521053 [kcal/mol]       0.06364085 [kJ/mol]

  Total HF                       -186.63649590 [mEh]    -117.11616933 [kcal/mol]    -490.01405247 [kJ/mol]
  Total SAPT0                    -186.73898884 [mEh]    -117.18048462 [kcal/mol]    -490.28314764 [kJ/mol]
  Total SAPT2                    -187.76227976 [mEh]    -117.82260937 [kcal/mol]    -492.96979759 [kJ/mol]
  Total SAPT2+                   -187.78247926 [mEh]    -117.83528475 [kcal/mol]    -493.02283137 [kJ/mol]

  Special recipe for scaled SAPT0 (see Manual):
    Electrostatics sSAPT0        -173.21145747 [mEh]    -108.69183053 [kcal/mol]    -454.76661893 [kJ/mol]
    Exchange sSAPT0                 2.49770997 [mEh]       1.56733667 [kcal/mol]       6.55773663 [kJ/mol]
    Induction sSAPT0              -15.91493506 [mEh]      -9.98677252 [kcal/mol]     -41.78465624 [kJ/mol]
    Dispersion sSAPT0              -0.10244720 [mEh]      -0.06428659 [kcal/mol]      -0.26897510 [kJ/mol]
  Total sSAPT0                   -186.73112976 [mEh]    -117.17555297 [kcal/mol]    -490.26251363 [kJ/mol]
  --------------------------------------------------------------------------------------------------------

*** Psi4 exiting successfully. Buy a developer a beer!
