                               Psi4 1.9 release

  ==> Input File <==

--------------------------------------------------------------------------
MEMORY 60 GB

molecule dimer {
1 1
Li     0.000000     0.000000     0.000000
--
-1 1
Cl     2.029797     0.000000     0.000000

units ang
no_reorient
no_com
symmetry c1
}

set {
basis        aug-cc-pVTZ
scf_type     df
}

energy("sapt2+")
--------------------------------------------------------------------------

  //              Dimer HF             //
    Molecular point group: c1
  Charge       = 0
  Multiplicity = 1
  Basis Set: AUG-CC-PVTZ
    Blend: AUG-CC-PVTZ
  Basis Set: (AUG-CC-PVTZ AUX)
    Blend: AUG-CC-PVTZ-JKFIT + DEF2-UNIVERSAL-JKFIT
  @DF-RHF Final Energy:  -467.05204408456700
    Total Energy =                       -467.0520440845670009
 Dipole X            :        -68.0893441           65.2079271           -2.8814169
 Dipole Y            :         -0.0000000            0.0000000           -0.0000000
 Dipole Z            :          0.0000000            0.0000000            0.0000000
 Magnitude           :                                                    2.8814169
  //            Monomer A HF           //
    Molecular point group: c1
  Multiplicity = 1
  Basis Set: AUG-CC-PVTZ
    Blend: AUG-CC-PVTZ
  Basis Set: (AUG-CC-PVTZ AUX)
    Blend: AUG-CC-PVTZ-JKFIT + DEF2-UNIVERSAL-JKFIT
  @DF-RHF Final Energy:    -7.23638322022216
    Total Energy =                         -7.2363832202221552
  //            Monomer B HF           //
    Molecular point group: c1

    Geometry (in Angstrom), charge = -1, multiplicity = 1:

       Center              X                  Y                   Z               Mass
    ------------   -----------------  -----------------  -----------------  -----------------
      Gh(LI)          0.000000000000     0.000000000000     0.000000000000     7.016003436600
         CL           2.029797000000     0.000000000000     0.000000000000    34.968852682000

  Charge       = -1
  Multiplicity = 1
  Basis Set: AUG-CC-PVTZ
    Blend: AUG-CC-PVTZ
  Basis Set: (AUG-CC-PVTZ AUX)
    Blend: AUG-CC-PVTZ-JKFIT + DEF2-UNIVERSAL-JKFIT

    Orbital Energies [Eh]
    ---------------------

    Doubly Occupied:

       1A   -104.506564     2A    -10.229892     3A     -7.695946
       4A     -7.695946     5A     -7.695917     6A     -0.733496
       7A     -0.150330     8A     -0.150324     9A     -0.150324

  @DF-RHF Final Energy:  -459.57351709847245

   => Energetics <=

    Nuclear Repulsion Energy =              0.0000000000000000
    One-Electron Energy =                -641.1295562053246613
    Two-Electron Energy =                 181.5560391068522108
    Total Energy =                       -459.5735170984724505
 Dipole X            :        -69.0446691           65.2079271           -3.8367419
 Dipole Y            :          0.0000000            0.0000000            0.0000000
 Dipole Z            :          0.0000000            0.0000000            0.0000000
 Magnitude           :                                                    3.8367419

    SAPT Results
  --------------------------------------------------------------------------------------------------------
    Electrostatics               -249.33545301 [mEh]    -156.46035891 [kcal/mol]    -654.63014168 [kJ/mol]
      Elst10,r                   -251.04439450 [mEh]    -157.53273589 [kcal/mol]    -659.11696695 [kJ/mol]
      Elst12,r                      1.70894149 [mEh]       1.07237698 [kcal/mol]       4.48682527 [kJ/mol]

    Exchange                       49.71154924 [mEh]      31.19446810 [kcal/mol]     130.51765455 [kJ/mol]
      Exch10                       48.77416043 [mEh]      30.60624774 [kcal/mol]     128.05654056 [kJ/mol]
      Exch10(S^2)                  48.17838463 [mEh]      30.23239279 [kcal/mol]     126.49233142 [kJ/mol]
      Exch11(S^2)                  -0.67046992 [mEh]      -0.42072623 [kcal/mol]      -1.76031854 [kJ/mol]
      Exch12(S^2)                   1.60785873 [mEh]       1.00894659 [kcal/mol]       4.22143253 [kJ/mol]

    Induction                     -42.20827165 [mEh]     -26.48609033 [kcal/mol]    -110.81780195 [kJ/mol]
      Ind20,r                     -83.33427818 [mEh]     -52.29304905 [kcal/mol]    -218.79411721 [kJ/mol]
      Ind22                        -5.52393753 [mEh]      -3.46632313 [kcal/mol]     -14.50309599 [kJ/mol]
      Exch-Ind20,r                 48.11232661 [mEh]      30.19094075 [kcal/mol]     126.31889611 [kJ/mol]
      Exch-Ind22                    3.18919768 [mEh]       2.00125176 [kcal/mol]       8.37323736 [kJ/mol]
      delta HF,r (2)               -4.65158023 [mEh]      -2.91891066 [kcal/mol]     -12.21272222 [kJ/mol]

    Dispersion                     -1.40321404 [mEh]      -0.88053010 [kcal/mol]      -3.68413794 [kJ/mol]
      Disp20                       -1.51967066 [mEh]      -0.95360774 [kcal/mol]      -3.98989478 [kJ/mol]
      Disp21                       -0.05176319 [mEh]      -0.03248189 [kcal/mol]      -0.13590425 [kJ/mol]
      Disp22 (SDQ)                  0.00351118 [mEh]       0.00220330 [kcal/mol]       0.00921859 [kJ/mol]
      Disp22 (T)                   -0.08396577 [mEh]      -0.05268932 [kcal/mol]      -0.22045211 [kJ/mol]
      Est. Disp22 (T)              -0.09935804 [mEh]      -0.06234811 [kcal/mol]      -0.26086450 [kJ/mol]
      Exch-Disp20                   0.26406669 [mEh]       0.16570435 [kcal/mol]       0.69330699 [kJ/mol]

  Total HF                       -242.14376587 [mEh]    -151.94750710 [kcal/mol]    -635.74836971 [kJ/mol]
  Total SAPT0                    -243.39936985 [mEh]    -152.73541049 [kcal/mol]    -639.04495750 [kJ/mol]
  Total SAPT2                    -243.08777940 [mEh]    -152.53988453 [kcal/mol]    -638.22687688 [kJ/mol]
  Total SAPT2+                   -243.23538945 [mEh]    -152.63251124 [kcal/mol]    -638.61442703 [kJ/mol]

  Special recipe for scaled SAPT0 (see Manual):
    Electrostatics sSAPT0        -251.04439450 [mEh]    -157.53273589 [kcal/mol]    -659.11696695 [kJ/mol]
    Exchange sSAPT0                48.77416043 [mEh]      30.60624774 [kcal/mol]     128.05654056 [kJ/mol]
    Induction sSAPT0              -38.06649221 [mEh]     -23.88708449 [kcal/mol]     -99.94356153 [kJ/mol]
    Dispersion sSAPT0              -1.24568596 [mEh]      -0.78167974 [kcal/mol]      -3.27054803 [kJ/mol]
  Total sSAPT0                   -241.58241224 [mEh]    -151.59525238 [kcal/mol]    -634.27453595 [kJ/mol]
  --------------------------------------------------------------------------------------------------------

*** Psi4 exiting successfully. Buy a developer a beer!
