                               Psi4 1.9 release

  ==> Input File <==

--------------------------------------------------------------------------
MEMORY 60 GB

molecule dimer {
1 1
Li     0.000000     0.000000     0.000000
--
-1 1
Cl     2.435756     0.000000     0.000000

units ang
no_reorient
no_com
symmetry c1
}

set {
basis        aug-cc-pVTZ
scf_type     df
}

energy("sapt2+")
--------------------------------------------------------------------------

  //              Dimer HF             //
    Molecular point group: c1
  Charge       = 0
  Multiplicity = 1
  Basis Set: AUG-CC-PVTZ
    Blend: AUG-CC-PVTZ
  Basis Set: (AUG-CC-PVTZ AUX)
    Blend: AUG-CC-PVTZ-JKFIT + DEF2-UNIVERSAL-JKFIT
  @DF-RHF Final Energy:  -467.03628586753206
    Total Energy =                       -467.0362858675320581
 Dipole X            :        -81.8653983           78.2494997           -3.6158986
 Dipole Y            :         -0.0000000            0.0000000           -0.0000000
 Dipole Z            :         -0.0000000            0.0000000           -0.0000000
 Magnitude           :                                                    3.6158986
  //            Monomer A HF           //
    Molecular point group: c1
  Multiplicity = 1
  Basis Set: AUG-CC-PVTZ
    Blend: AUG-CC-PVTZ
  Basis Set: (AUG-CC-PVTZ AUX)
    Blend: AUG-CC-PVTZ-JKFIT + DEF2-UNIVERSAL-JKFIT
  @DF-RHF Final Energy:    -7.23638296462627
    Total Energy =                         -7.2363829646262738
  //            Monomer B HF           //
    Molecular point group: c1

    Geometry (in Angstrom), charge = -1, multiplicity = 1:

       Center              X                  Y                   Z               Mass
    ------------   -----------------  -----------------  -----------------  -----------------
      Gh(LI)          0.000000000000     0.000000000000     0.000000000000     7.016003436600
         CL           2.435756000000     0.000000000000     0.000000000000    34.968852682000

  Charge       = -1
  Multiplicity = 1
  Basis Set: AUG-CC-PVTZ
    Blend: AUG-CC-PVTZ
  Basis Set: (AUG-CC-PVTZ AUX)
    Blend: AUG-CC-PVTZ-JKFIT + DEF2-UNIVERSAL-JKFIT

    Orbital Energies [Eh]
    ---------------------

    Doubly Occupied:

       1A   -104.506384     2A    -10.229845     3A     -7.695893
       4A     -7.695893     5A     -7.695874     6A     -0.733498
       7A     -0.150339     8A     -0.150321     9A     -0.150321

  @DF-RHF Final Energy:  -459.57350701362543

   => Energetics <=

    Nuclear Repulsion Energy =              0.0000000000000000
    One-Electron Energy =                -641.1302729408254208
    Two-Electron Energy =                 181.5567659271999617
    Total Energy =                       -459.5735070136254308
 Dipole X            :        -82.8528378           78.2494997           -4.6033381
 Dipole Y            :         -0.0000000            0.0000000           -0.0000000
 Dipole Z            :         -0.0000000            0.0000000           -0.0000000
 Magnitude           :                                                    4.6033381

    SAPT Results
  --------------------------------------------------------------------------------------------------------
    Electrostatics               -213.59761047 [mEh]    -134.03452414 [kcal/mol]    -560.80044902 [kJ/mol]
      Elst10,r                   -214.21819769 [mEh]    -134.42394850 [kcal/mol]    -562.42980054 [kJ/mol]
      Elst12,r                      0.62058722 [mEh]       0.38942436 [kcal/mol]       1.62935152 [kJ/mol]

    Exchange                       15.19106560 [mEh]       9.53253758 [kcal/mol]      39.88413723 [kJ/mol]
      Exch10                       14.33261683 [mEh]       8.99385285 [kcal/mol]      37.63028031 [kJ/mol]
      Exch10(S^2)                  14.28065238 [mEh]       8.96124466 [kcal/mol]      37.49384766 [kJ/mol]
      Exch11(S^2)                  -0.14552455 [mEh]      -0.09131803 [kcal/mol]      -0.38207464 [kJ/mol]
      Exch12(S^2)                   1.00397331 [mEh]       0.63000276 [kcal/mol]       2.63593156 [kJ/mol]

    Induction                     -28.62711187 [mEh]     -17.96378391 [kcal/mol]     -75.16047186 [kJ/mol]
      Ind20,r                     -43.85296608 [mEh]     -27.51815167 [kcal/mol]    -115.13594659 [kJ/mol]
      Ind22                        -3.62578692 [mEh]      -2.27521564 [kcal/mol]      -9.51950225 [kJ/mol]
      Exch-Ind20,r                 18.25076948 [mEh]      11.45253075 [kcal/mol]      47.91738866 [kJ/mol]
      Exch-Ind22                    1.50898348 [mEh]       0.94690143 [kcal/mol]       3.96183558 [kJ/mol]
      delta HF,r (2)               -0.90811182 [mEh]      -0.56984877 [kcal/mol]      -2.38424726 [kJ/mol]

    Dispersion                     -0.49438871 [mEh]      -0.31023360 [kcal/mol]      -1.29801738 [kJ/mol]
      Disp20                       -0.53344254 [mEh]      -0.33474025 [kcal/mol]      -1.40055319 [kJ/mol]
      Disp21                       -0.02434384 [mEh]      -0.01527599 [kcal/mol]      -0.06391475 [kJ/mol]
      Disp22 (SDQ)                 -0.00421445 [mEh]      -0.00264461 [kcal/mol]      -0.01106504 [kJ/mol]
      Disp22 (T)                   -0.03093505 [mEh]      -0.01941204 [kcal/mol]      -0.08121997 [kJ/mol]
      Est. Disp22 (T)              -0.03894244 [mEh]      -0.02443675 [kcal/mol]      -0.10224336 [kJ/mol]
      Exch-Disp20                   0.10655456 [mEh]       0.06686399 [kcal/mol]       0.27975895 [kJ/mol]

  Total HF                       -226.39588928 [mEh]    -142.06556535 [kcal/mol]    -594.40232541 [kJ/mol]
  Total SAPT0                    -226.82277726 [mEh]    -142.33344160 [kcal/mol]    -595.52311965 [kJ/mol]
  Total SAPT2                    -227.46054472 [mEh]    -142.73364672 [kcal/mol]    -597.19757789 [kJ/mol]
  Total SAPT2+                   -227.52804545 [mEh]    -142.77600407 [kcal/mol]    -597.37480103 [kJ/mol]

  Special recipe for scaled SAPT0 (see Manual):
    Electrostatics sSAPT0        -214.21819769 [mEh]    -134.42394850 [kcal/mol]    -562.42980054 [kJ/mol]
    Exchange sSAPT0                14.33261683 [mEh]       8.99385285 [kcal/mol]      37.63028031 [kJ/mol]
    Induction sSAPT0              -26.31034982 [mEh]     -16.50999377 [kcal/mol]     -69.07781393 [kJ/mol]
    Dispersion sSAPT0              -0.42572055 [mEh]      -0.26714368 [kcal/mol]      -1.11772915 [kJ/mol]
  Total sSAPT0                   -226.62165122 [mEh]    -142.20723310 [kcal/mol]    -594.99506330 [kJ/mol]
  --------------------------------------------------------------------------------------------------------

*** Psi4 exiting successfully. Buy a developer a beer!
