                               Psi4 1.9 release

  ==> Input File <==

--------------------------------------------------------------------------
MEMORY 60 GB

molecule dimer {
1 1
Li     0.000000     0.000000     0.000000
--
-1 1
Cl     2.232777     0.000000     0.000000

units ang
no_reorient
no_com
symmetry c1
}

set {
basis        aug-cc-pVTZ
scf_type     df
}

energy("sapt2+")
--------------------------------------------------------------------------

  //              Dimer HF             //
    Molecular point group: c1
  Charge       = 0
  Multiplicity = 1
  Basis Set: AUG-CC-PVTZ
    Blend: AUG-CC-PVTZ
  Basis Set: (AUG-CC-PVTZ AUX)
    Blend: AUG-CC-PVTZ-JKFIT + DEF2-UNIVERSAL-JKFIT
  @DF-RHF Final Energy:  -467.04728898159414
    Total Energy =                       -467.0472889815940789
 Dipole X            :        -74.9696080           71.7287295           -3.2408785
 Dipole Y            :         -0.0000000            0.0000000           -0.0000000
 Dipole Z            :          0.0000000            0.0000000            0.0000000
 Magnitude           :                                                    3.2408785
  //            Monomer A HF           //
    Molecular point group: c1
  Multiplicity = 1
  Basis Set: AUG-CC-PVTZ
    Blend: AUG-CC-PVTZ
  Basis Set: (AUG-CC-PVTZ AUX)
    Blend: AUG-CC-PVTZ-JKFIT + DEF2-UNIVERSAL-JKFIT
  @DF-RHF Final Energy:    -7.23638303855028
    Total Energy =                         -7.2363830385502830
  //            Monomer B HF           //
    Molecular point group: c1

    Geometry (in Angstrom), charge = -1, multiplicity = 1:

       Center              X                  Y                   Z               Mass
    ------------   -----------------  -----------------  -----------------  -----------------
      Gh(LI)          0.000000000000     0.000000000000     0.000000000000     7.016003436600
         CL           2.232777000000     0.000000000000     0.000000000000    34.968852682000

  Charge       = -1
  Multiplicity = 1
  Basis Set: AUG-CC-PVTZ
    Blend: AUG-CC-PVTZ
  Basis Set: (AUG-CC-PVTZ AUX)
    Blend: AUG-CC-PVTZ-JKFIT + DEF2-UNIVERSAL-JKFIT

    Orbital Energies [Eh]
    ---------------------

    Doubly Occupied:

       1A   -104.506471     2A    -10.229868     3A     -7.695919
       4A     -7.695919     5A     -7.695895     6A     -0.733497
       7A     -0.150335     8A     -0.150322     9A     -0.150322

  @DF-RHF Final Energy:  -459.57351231719394

   => Energetics <=

    Nuclear Repulsion Energy =              0.0000000000000000
    One-Electron Energy =                -641.1299299111630035
    Two-Electron Energy =                 181.5564175939690870
    Total Energy =                       -459.5735123171939449
 Dipole X            :        -75.9488106           71.7287295           -4.2200811
 Dipole Y            :         -0.0000000            0.0000000           -0.0000000
 Dipole Z            :          0.0000000            0.0000000            0.0000000
 Magnitude           :                                                    4.2200811

    SAPT Results
  --------------------------------------------------------------------------------------------------------
    Electrostatics               -230.59540243 [mEh]    -144.70079964 [kcal/mol]    -605.42814568 [kJ/mol]
      Elst10,r                   -231.63972766 [mEh]    -145.35612361 [kcal/mol]    -608.17002119 [kJ/mol]
      Elst12,r                      1.04432523 [mEh]       0.65532397 [kcal/mol]       2.74187551 [kJ/mol]

    Exchange                       27.28751517 [mEh]      17.12317428 [kcal/mol]      71.64336120 [kJ/mol]
      Exch10                       26.26676810 [mEh]      16.48264583 [kcal/mol]      68.96339015 [kJ/mol]
      Exch10(S^2)                  26.09268648 [mEh]      16.37340796 [kcal/mol]      68.50633891 [kJ/mol]
      Exch11(S^2)                  -0.31134445 [mEh]      -0.19537159 [kcal/mol]      -0.81743475 [kJ/mol]
      Exch12(S^2)                   1.33209152 [mEh]       0.83590005 [kcal/mol]       3.49740580 [kJ/mol]

    Induction                     -34.28789795 [mEh]     -21.51598080 [kcal/mol]     -90.02286367 [kJ/mol]
      Ind20,r                     -60.01884084 [mEh]     -37.66239123 [kcal/mol]    -157.57944492 [kJ/mol]
      Ind22                        -4.49665980 [mEh]      -2.82169662 [kcal/mol]     -11.80597868 [kJ/mol]
      Exch-Ind20,r                 29.75713052 [mEh]      18.67288131 [kcal/mol]      78.12733541 [kJ/mol]
      Exch-Ind22                    2.22942814 [mEh]       1.39898728 [kcal/mol]       5.85336277 [kJ/mol]
      delta HF,r (2)               -1.75895597 [mEh]      -1.10376153 [kcal/mol]      -4.61813826 [kJ/mol]

    Dispersion                     -0.82212906 [mEh]      -0.51589378 [kcal/mol]      -2.15849956 [kJ/mol]
      Disp20                       -0.89155614 [mEh]      -0.55945993 [kcal/mol]      -2.34078033 [kJ/mol]
      Disp21                       -0.03610342 [mEh]      -0.02265524 [kcal/mol]      -0.09478952 [kJ/mol]
      Disp22 (SDQ)                 -0.00227826 [mEh]      -0.00142963 [kcal/mol]      -0.00598157 [kJ/mol]
      Disp22 (T)                   -0.05071882 [mEh]      -0.03182654 [kcal/mol]      -0.13316225 [kJ/mol]
      Est. Disp22 (T)              -0.06208403 [mEh]      -0.03895832 [kcal/mol]      -0.16300159 [kJ/mol]
      Exch-Disp20                   0.16989279 [mEh]       0.10660933 [kcal/mol]       0.44605345 [kJ/mol]

  Total HF                       -237.39362585 [mEh]    -148.96674924 [kcal/mol]    -623.27687880 [kJ/mol]
  Total SAPT0                    -238.11528921 [mEh]    -149.41959983 [kcal/mol]    -625.17160568 [kJ/mol]
  Total SAPT2                    -238.31744857 [mEh]    -149.54645675 [kcal/mol]    -625.70237502 [kJ/mol]
  Total SAPT2+                   -238.41791428 [mEh]    -149.60949993 [kcal/mol]    -625.96614770 [kJ/mol]

  Special recipe for scaled SAPT0 (see Manual):
    Electrostatics sSAPT0        -231.63972766 [mEh]    -145.35612361 [kcal/mol]    -608.17002119 [kJ/mol]
    Exchange sSAPT0                26.26676810 [mEh]      16.48264583 [kcal/mol]      68.96339015 [kJ/mol]
    Induction sSAPT0              -31.42109521 [mEh]     -19.71703492 [kcal/mol]     -82.49607411 [kJ/mol]
    Dispersion sSAPT0              -0.71824022 [mEh]      -0.45070254 [kcal/mol]      -1.88573943 [kJ/mol]
  Total sSAPT0                   -237.51229499 [mEh]    -149.04121524 [kcal/mol]    -623.58844458 [kJ/mol]
  --------------------------------------------------------------------------------------------------------

*** Psi4 exiting successfully. Buy a developer a beer!
