                               Psi4 1.9 release

  ==> Input File <==

--------------------------------------------------------------------------
MEMORY 60 GB

molecule dimer {
1 1
Li     0.000000     0.000000     0.000000
--
-1 1
Cl     2.841716     0.000000     0.000000

units ang
no_reorient
no_com
symmetry c1
}

set {
basis        aug-cc-pVTZ
scf_type     df
}

energy("sapt2+")
--------------------------------------------------------------------------

  //              Dimer HF             //
    Molecular point group: c1
  Charge       = 0
  Multiplicity = 1
  Basis Set: AUG-CC-PVTZ
    Blend: AUG-CC-PVTZ
  Basis Set: (AUG-CC-PVTZ AUX)
    Blend: AUG-CC-PVTZ-JKFIT + DEF2-UNIVERSAL-JKFIT
  @DF-RHF Final Energy:  -467.00949476908409
    Total Energy =                       -467.0094947690840286
 Dipole X            :        -95.6976266           91.2911044           -4.4065222
 Dipole Y            :         -0.0000000            0.0000000           -0.0000000
 Dipole Z            :          0.0000000            0.0000000            0.0000000
 Magnitude           :                                                    4.4065222
  //            Monomer A HF           //
    Molecular point group: c1
  Multiplicity = 1
  Basis Set: AUG-CC-PVTZ
    Blend: AUG-CC-PVTZ
  Basis Set: (AUG-CC-PVTZ AUX)
    Blend: AUG-CC-PVTZ-JKFIT + DEF2-UNIVERSAL-JKFIT
  @DF-RHF Final Energy:    -7.23638281691092
    Total Energy =                         -7.2363828169109210
  //            Monomer B HF           //
    Molecular point group: c1

    Geometry (in Angstrom), charge = -1, multiplicity = 1:

       Center              X                  Y                   Z               Mass
    ------------   -----------------  -----------------  -----------------  -----------------
      Gh(LI)          0.000000000000     0.000000000000     0.000000000000     7.016003436600
         CL           2.841716000000     0.000000000000     0.000000000000    34.968852682000

  Charge       = -1
  Multiplicity = 1
  Basis Set: AUG-CC-PVTZ
    Blend: AUG-CC-PVTZ
  Basis Set: (AUG-CC-PVTZ AUX)
    Blend: AUG-CC-PVTZ-JKFIT + DEF2-UNIVERSAL-JKFIT

    Orbital Energies [Eh]
    ---------------------

    Doubly Occupied:

       1A   -104.506256     2A    -10.229813     3A     -7.695858
       4A     -7.695858     5A     -7.695842     6A     -0.733502
       7A     -0.150342     8A     -0.150324     9A     -0.150324

  @DF-RHF Final Energy:  -459.57349890851731

   => Energetics <=

    Nuclear Repulsion Energy =              0.0000000000000000
    One-Electron Energy =                -641.1307593333995101
    Two-Electron Energy =                 181.5572604248822017
    Total Energy =                       -459.5734989085173083
 Dipole X            :        -96.6611173           91.2911044           -5.3700129
 Dipole Y            :         -0.0000000            0.0000000           -0.0000000
 Dipole Z            :          0.0000000            0.0000000            0.0000000
 Magnitude           :                                                    5.3700129

    SAPT Results
  --------------------------------------------------------------------------------------------------------
    Electrostatics               -185.01638018 [mEh]    -116.09953137 [kcal/mol]    -485.76043925 [kJ/mol]
      Elst10,r                   -185.20463446 [mEh]    -116.21766271 [kcal/mol]    -486.25470078 [kJ/mol]
      Elst12,r                      0.18825428 [mEh]       0.11813134 [kcal/mol]       0.49426153 [kJ/mol]

    Exchange                        4.88360818 [mEh]       3.06451040 [kcal/mol]      12.82191152 [kJ/mol]
      Exch10                        4.42456072 [mEh]       2.77645377 [kcal/mol]      11.61668256 [kJ/mol]
      Exch10(S^2)                   4.41962193 [mEh]       2.77335463 [kcal/mol]      11.60371577 [kJ/mol]
      Exch11(S^2)                  -0.03299370 [mEh]      -0.02070386 [kcal/mol]      -0.08662496 [kJ/mol]
      Exch12(S^2)                   0.49204117 [mEh]       0.30876050 [kcal/mol]       1.29185392 [kJ/mol]

    Induction                     -20.50085101 [mEh]     -12.86447823 [kcal/mol]     -53.82497692 [kJ/mol]
      Ind20,r                     -24.34839864 [mEh]     -15.27885082 [kcal/mol]     -63.92671183 [kJ/mol]
      Ind22                        -2.31359732 [mEh]      -1.45180424 [kcal/mol]      -6.07434893 [kJ/mol]
      Exch-Ind20,r                  6.79554554 [mEh]       4.26426921 [kcal/mol]      17.84170236 [kJ/mol]
      Exch-Ind22                    0.64571622 [mEh]       0.40519305 [kcal/mol]       1.69532770 [kJ/mol]
      delta HF,r (2)               -1.28011681 [mEh]      -0.80328542 [kcal/mol]      -3.36094622 [kJ/mol]

    Dispersion                     -0.19069752 [mEh]      -0.11966450 [kcal/mol]      -0.50067626 [kJ/mol]
      Disp20                       -0.20058666 [mEh]      -0.12587003 [kcal/mol]      -0.52664019 [kJ/mol]
      Disp21                       -0.01029837 [mEh]      -0.00646232 [kcal/mol]      -0.02703837 [kJ/mol]
      Disp22 (SDQ)                 -0.00392161 [mEh]      -0.00246085 [kcal/mol]      -0.01029619 [kJ/mol]
      Disp22 (T)                   -0.01261658 [mEh]      -0.00791703 [kcal/mol]      -0.03312484 [kJ/mol]
      Est. Disp22 (T)              -0.01601667 [mEh]      -0.01005061 [kcal/mol]      -0.04205175 [kJ/mol]
      Exch-Disp20                   0.04012578 [mEh]       0.02517931 [kcal/mol]       0.10535023 [kJ/mol]

  Total HF                       -199.61304366 [mEh]    -125.25907598 [kcal/mol]    -524.08397392 [kJ/mol]
  Total SAPT0                    -199.77350453 [mEh]    -125.35976670 [kcal/mol]    -524.50526387 [kJ/mol]
  Total SAPT2                    -200.79408388 [mEh]    -126.00018991 [kcal/mol]    -527.18479460 [kJ/mol]
  Total SAPT2+                   -200.82432053 [mEh]    -126.01916370 [kcal/mol]    -527.26418091 [kJ/mol]

  Special recipe for scaled SAPT0 (see Manual):
    Electrostatics sSAPT0        -185.20463446 [mEh]    -116.21766271 [kcal/mol]    -486.25470078 [kJ/mol]
    Exchange sSAPT0                 4.42456072 [mEh]       2.77645377 [kcal/mol]      11.61668256 [kJ/mol]
    Induction sSAPT0              -18.81016301 [mEh]     -11.80355549 [kcal/mol]     -49.38607619 [kJ/mol]
    Dispersion sSAPT0              -0.16032620 [mEh]      -0.10060621 [kcal/mol]      -0.42093639 [kJ/mol]
  Total sSAPT0                   -199.75056296 [mEh]    -125.34537065 [kcal/mol]    -524.44503080 [kJ/mol]
  --------------------------------------------------------------------------------------------------------

*** Psi4 exiting successfully. Buy a developer a beer!
