                               Psi4 1.9 release

  ==> Input File <==

--------------------------------------------------------------------------
MEMORY 60 GB

molecule dimer {
1 1
Li     0.000000     0.000000     0.000000
--
-1 1
Cl     1.826817     0.000000     0.000000

units ang
no_reorient
no_com
symmetry c1
}

set {
basis        aug-cc-pVTZ
scf_type     df
}

energy("sapt2+")
--------------------------------------------------------------------------

  //              Dimer HF             //
    Molecular point group: c1
  Charge       = 0
  Multiplicity = 1
  Basis Set: AUG-CC-PVTZ
    Blend: AUG-CC-PVTZ
  Basis Set: (AUG-CC-PVTZ AUX)
    Blend: AUG-CC-PVTZ-JKFIT + DEF2-UNIVERSAL-JKFIT
  @DF-RHF Final Energy:  -467.04225100943711
    Total Energy =                       -467.0422510094370523
 Dipole X            :        -61.2259476           58.6871248           -2.5388228
 Dipole Y            :          0.0000000            0.0000000            0.0000000
 Dipole Z            :         -0.0000000            0.0000000           -0.0000000
 Magnitude           :                                                    2.5388228
  //            Monomer A HF           //
    Molecular point group: c1
  Multiplicity = 1
  Basis Set: AUG-CC-PVTZ
    Blend: AUG-CC-PVTZ
  Basis Set: (AUG-CC-PVTZ AUX)
    Blend: AUG-CC-PVTZ-JKFIT + DEF2-UNIVERSAL-JKFIT
  @DF-RHF Final Energy:    -7.23638343064247
    Total Energy =                         -7.2363834306424710
  //            Monomer B HF           //
    Molecular point group: c1

    Geometry (in Angstrom), charge = -1, multiplicity = 1:

       Center              X                  Y                   Z               Mass
    ------------   -----------------  -----------------  -----------------  -----------------
      Gh(LI)          0.000000000000     0.000000000000     0.000000000000     7.016003436600
         CL           1.826817000000     0.000000000000     0.000000000000    34.968852682000

  Charge       = -1
  Multiplicity = 1
  Basis Set: AUG-CC-PVTZ
    Blend: AUG-CC-PVTZ
  Basis Set: (AUG-CC-PVTZ AUX)
    Blend: AUG-CC-PVTZ-JKFIT + DEF2-UNIVERSAL-JKFIT

    Orbital Energies [Eh]
    ---------------------

    Doubly Occupied:

       1A   -104.506671     2A    -10.229920     3A     -7.695979
       4A     -7.695979     5A     -7.695944     6A     -0.733496
       7A     -0.150327     8A     -0.150327     9A     -0.150324

  @DF-RHF Final Energy:  -459.57351994875745

   => Energetics <=

    Nuclear Repulsion Energy =              0.0000000000000000
    One-Electron Energy =                -641.1291063811067943
    Two-Electron Energy =                 181.5555864323493722
    Total Energy =                       -459.5735199487573936
 Dipole X            :        -62.1403668           58.6871248           -3.4532420
 Dipole Y            :          0.0000000            0.0000000            0.0000000
 Dipole Z            :         -0.0000000            0.0000000           -0.0000000
 Magnitude           :                                                    3.4532420

    SAPT Results
  --------------------------------------------------------------------------------------------------------
    Electrostatics               -269.17745920 [mEh]    -168.91140578 [kcal/mol]    -706.72532176 [kJ/mol]
      Elst10,r                   -271.90643405 [mEh]    -170.62386335 [kcal/mol]    -713.89024425 [kJ/mol]
      Elst12,r                      2.72897485 [mEh]       1.71245757 [kcal/mol]       7.16492249 [kJ/mol]

    Exchange                       91.91212106 [mEh]      57.67572672 [kcal/mol]     241.31524060 [kJ/mol]
      Exch10                       91.78329461 [mEh]      57.59488690 [kcal/mol]     240.97700679 [kJ/mol]
      Exch10(S^2)                  89.70564369 [mEh]      56.29114127 [kcal/mol]     235.52213506 [kJ/mol]
      Exch11(S^2)                  -1.44345863 [mEh]      -0.90578396 [kcal/mol]      -3.78980010 [kJ/mol]
      Exch12(S^2)                   1.57228508 [mEh]       0.98662378 [kcal/mol]       4.12803391 [kJ/mol]

    Induction                     -54.55860766 [mEh]     -34.23604318 [kcal/mol]    -143.24360468 [kJ/mol]
      Ind20,r                    -117.61227556 [mEh]     -73.80281715 [kcal/mol]    -308.79098695 [kJ/mol]
      Ind22                        -6.69827510 [mEh]      -4.20323108 [kcal/mol]     -17.58631885 [kJ/mol]
      Exch-Ind20,r                 76.62846770 [mEh]      48.08508944 [kcal/mol]     201.18801422 [kJ/mol]
      Exch-Ind22                    4.36415803 [mEh]       2.73855051 [kcal/mol]      11.45809534 [kJ/mol]
      delta HF,r (2)              -11.24068272 [mEh]      -7.05363490 [kcal/mol]     -29.51240842 [kJ/mol]

    Dispersion                     -2.47555308 [mEh]      -1.55343301 [kcal/mol]      -6.49956373 [kJ/mol]
      Disp20                       -2.64774573 [mEh]      -1.66148553 [kcal/mol]      -6.95165545 [kJ/mol]
      Disp21                       -0.06975018 [mEh]      -0.04376890 [kcal/mol]      -0.18312908 [kJ/mol]
      Disp22 (SDQ)                  0.01774103 [mEh]       0.01113266 [kcal/mol]       0.04657906 [kJ/mol]
      Disp22 (T)                   -0.13549402 [mEh]      -0.08502378 [kcal/mol]      -0.35573951 [kJ/mol]
      Est. Disp22 (T)              -0.16069670 [mEh]      -0.10083870 [kcal/mol]      -0.42190912 [kJ/mol]
      Exch-Disp20                   0.38489850 [mEh]       0.24152745 [kcal/mol]       1.01055087 [kJ/mol]

  Total HF                       -232.34763004 [mEh]    -145.80033906 [kcal/mol]    -610.02861862 [kJ/mol]
  Total SAPT0                    -234.61047727 [mEh]    -147.22029713 [kcal/mol]    -615.96972320 [kJ/mol]
  Total SAPT2                    -234.08679303 [mEh]    -146.89168031 [kcal/mol]    -614.59479043 [kJ/mol]
  Total SAPT2+                   -234.29949888 [mEh]    -147.02515525 [kcal/mol]    -615.15324957 [kJ/mol]

  Special recipe for scaled SAPT0 (see Manual):
    Electrostatics sSAPT0        -271.90643405 [mEh]    -170.62386335 [kcal/mol]    -713.89024425 [kJ/mol]
    Exchange sSAPT0                91.78329461 [mEh]      57.59488690 [kcal/mol]     240.97700679 [kJ/mol]
    Induction sSAPT0              -46.77590252 [mEh]     -29.35232198 [kcal/mol]    -122.81011514 [kJ/mol]
    Dispersion sSAPT0              -2.23547942 [mEh]      -1.40278451 [kcal/mol]      -5.86925041 [kJ/mol]
  Total sSAPT0                   -229.13452138 [mEh]    -143.78408294 [kcal/mol]    -601.59260301 [kJ/mol]
  --------------------------------------------------------------------------------------------------------

*** Psi4 exiting successfully. Buy a developer a beer!
