                               Psi4 1.9 release

  ==> Input File <==

--------------------------------------------------------------------------
MEMORY 60 GB

molecule dimer {
1 1
Li     0.000000     0.000000     0.000000
--
-1 1
Cl     2.131287     0.000000     0.000000

units ang
no_reorient
no_com
symmetry c1
}

set {
basis        aug-cc-pVTZ
scf_type     df
}

energy("sapt2+")
--------------------------------------------------------------------------

  //              Dimer HF             //
    Molecular point group: c1
  Charge       = 0
  Multiplicity = 1
  Basis Set: AUG-CC-PVTZ
    Blend: AUG-CC-PVTZ
  Basis Set: (AUG-CC-PVTZ AUX)
    Blend: AUG-CC-PVTZ-JKFIT + DEF2-UNIVERSAL-JKFIT
  @DF-RHF Final Energy:  -467.05082779235300
    Total Energy =                       -467.0508277923530613
 Dipole X            :        -71.5274568           68.4683283           -3.0591285
 Dipole Y            :          0.0000000            0.0000000            0.0000000
 Dipole Z            :         -0.0000000            0.0000000           -0.0000000
 Magnitude           :                                                    3.0591285
  //            Monomer A HF           //
    Molecular point group: c1
  Multiplicity = 1
  Basis Set: AUG-CC-PVTZ
    Blend: AUG-CC-PVTZ
  Basis Set: (AUG-CC-PVTZ AUX)
    Blend: AUG-CC-PVTZ-JKFIT + DEF2-UNIVERSAL-JKFIT
  @DF-RHF Final Energy:    -7.23638311668341
    Total Energy =                         -7.2363831166834061
  //            Monomer B HF           //
    Molecular point group: c1

    Geometry (in Angstrom), charge = -1, multiplicity = 1:

       Center              X                  Y                   Z               Mass
    ------------   -----------------  -----------------  -----------------  -----------------
      Gh(LI)          0.000000000000     0.000000000000     0.000000000000     7.016003436600
         CL           2.131287000000     0.000000000000     0.000000000000    34.968852682000

  Charge       = -1
  Multiplicity = 1
  Basis Set: AUG-CC-PVTZ
    Blend: AUG-CC-PVTZ
  Basis Set: (AUG-CC-PVTZ AUX)
    Blend: AUG-CC-PVTZ-JKFIT + DEF2-UNIVERSAL-JKFIT

    Orbital Energies [Eh]
    ---------------------

    Doubly Occupied:

       1A   -104.506517     2A    -10.229879     3A     -7.695932
       4A     -7.695932     5A     -7.695906     6A     -0.733496
       7A     -0.150333     8A     -0.150323     9A     -0.150323

  @DF-RHF Final Energy:  -459.57351489171748

   => Energetics <=

    Nuclear Repulsion Energy =              0.0000000000000000
    One-Electron Energy =                -641.1297455476878895
    Two-Electron Energy =                 181.5562306559703813
    Total Energy =                       -459.5735148917175366
 Dipole X            :        -72.4967566           68.4683283           -4.0284283
 Dipole Y            :         -0.0000000            0.0000000           -0.0000000
 Dipole Z            :         -0.0000000            0.0000000           -0.0000000
 Magnitude           :                                                    4.0284283

    SAPT Results
  --------------------------------------------------------------------------------------------------------
    Electrostatics               -239.76930902 [mEh]    -150.45751293 [kcal/mol]    -629.51423411 [kJ/mol]
      Elst10,r                   -241.10927783 [mEh]    -151.29835605 [kcal/mol]    -633.03232172 [kJ/mol]
      Elst12,r                      1.33996881 [mEh]       0.84084312 [kcal/mol]       3.51808762 [kJ/mol]

    Exchange                       36.76727347 [mEh]      23.07181243 [kcal/mol]      96.53246319 [kJ/mol]
      Exch10                       35.73313234 [mEh]      22.42287907 [kcal/mol]      93.81732603 [kJ/mol]
      Exch10(S^2)                  35.41191722 [mEh]      22.22131354 [kcal/mol]      92.97397586 [kJ/mol]
      Exch11(S^2)                  -0.45671668 [mEh]      -0.28659405 [kcal/mol]      -1.19910949 [kJ/mol]
      Exch12(S^2)                   1.49085781 [mEh]       0.93552740 [kcal/mol]       3.91424665 [kJ/mol]

    Induction                     -37.86687968 [mEh]     -23.76182574 [kcal/mol]     -99.41947890 [kJ/mol]
      Ind20,r                     -70.58895192 [mEh]     -44.29523607 [kcal/mol]    -185.33126774 [kJ/mol]
      Ind22                        -4.99381973 [mEh]      -3.13366919 [kcal/mol]     -13.11127190 [kJ/mol]
      Exch-Ind20,r                 37.89068050 [mEh]      23.77676098 [kcal/mol]      99.48196794 [kJ/mol]
      Exch-Ind22                    2.68057852 [mEh]       1.68208841 [kcal/mol]       7.03785792 [kJ/mol]
      delta HF,r (2)               -2.85536704 [mEh]      -1.79176987 [kcal/mol]      -7.49676512 [kJ/mol]

    Dispersion                     -1.07006677 [mEh]      -0.67147703 [kcal/mol]      -2.80945991 [kJ/mol]
      Disp20                       -1.16076897 [mEh]      -0.72839352 [kcal/mol]      -3.04759850 [kJ/mol]
      Disp21                       -0.04344841 [mEh]      -0.02726429 [kcal/mol]      -0.11407378 [kJ/mol]
      Disp22 (SDQ)                 -0.00008736 [mEh]      -0.00005482 [kcal/mol]      -0.00022936 [kJ/mol]
      Disp22 (T)                   -0.06637680 [mEh]      -0.04165207 [kcal/mol]      -0.17427226 [kJ/mol]
      Est. Disp22 (T)              -0.07854225 [mEh]      -0.04928600 [kcal/mol]      -0.20621264 [kJ/mol]
      Exch-Disp20                   0.21278021 [mEh]       0.13352160 [kcal/mol]       0.55865437 [kJ/mol]

  Total HF                       -240.92978395 [mEh]    -151.18572195 [kcal/mol]    -632.56106062 [kJ/mol]
  Total SAPT0                    -241.87777271 [mEh]    -151.78059387 [kcal/mol]    -635.05000475 [kJ/mol]
  Total SAPT2                    -241.81690399 [mEh]    -151.74239817 [kcal/mol]    -634.89019395 [kJ/mol]
  Total SAPT2+                   -241.93898200 [mEh]    -151.81900328 [kcal/mol]    -635.21070973 [kJ/mol]

  Special recipe for scaled SAPT0 (see Manual):
    Electrostatics sSAPT0        -241.10927783 [mEh]    -151.29835605 [kcal/mol]    -633.03232172 [kJ/mol]
    Exchange sSAPT0                35.73313234 [mEh]      22.42287907 [kcal/mol]      93.81732603 [kJ/mol]
    Induction sSAPT0              -34.51315869 [mEh]     -21.65733405 [kcal/mol]     -90.61428565 [kJ/mol]
    Dispersion sSAPT0              -0.94214580 [mEh]      -0.59120542 [kcal/mol]      -2.47360346 [kJ/mol]
  Total sSAPT0                   -240.83144998 [mEh]    -151.12401644 [kcal/mol]    -632.30288480 [kJ/mol]
  --------------------------------------------------------------------------------------------------------

*** Psi4 exiting successfully. Buy a developer a beer!
