                               Psi4 1.9 release

  ==> Input File <==

--------------------------------------------------------------------------
MEMORY 60 GB

molecule dimer {
1 1
Li     0.000000     0.000000     0.000000
--
-1 1
Cl     1.928307     0.000000     0.000000

units ang
no_reorient
no_com
symmetry c1
}

set {
basis        aug-cc-pVTZ
scf_type     df
}

energy("sapt2+")
--------------------------------------------------------------------------

  //              Dimer HF             //
    Molecular point group: c1
  Charge       = 0
  Multiplicity = 1
  Basis Set: AUG-CC-PVTZ
    Blend: AUG-CC-PVTZ
  Basis Set: (AUG-CC-PVTZ AUX)
    Blend: AUG-CC-PVTZ-JKFIT + DEF2-UNIVERSAL-JKFIT
  @DF-RHF Final Energy:  -467.04975386148334
    Total Energy =                       -467.0497538614833388
 Dipole X            :        -64.6554269           61.9475260           -2.7079009
 Dipole Y            :         -0.0000000            0.0000000           -0.0000000
 Dipole Z            :          0.0000000            0.0000000            0.0000000
 Magnitude           :                                                    2.7079009
  //            Monomer A HF           //
    Molecular point group: c1
  Multiplicity = 1
  Basis Set: AUG-CC-PVTZ
    Blend: AUG-CC-PVTZ
  Basis Set: (AUG-CC-PVTZ AUX)
    Blend: AUG-CC-PVTZ-JKFIT + DEF2-UNIVERSAL-JKFIT
  @DF-RHF Final Energy:    -7.23638332966103
    Total Energy =                         -7.2363833296610274
  //            Monomer B HF           //
    Molecular point group: c1

    Geometry (in Angstrom), charge = -1, multiplicity = 1:

       Center              X                  Y                   Z               Mass
    ------------   -----------------  -----------------  -----------------  -----------------
      Gh(LI)          0.000000000000     0.000000000000     0.000000000000     7.016003436600
         CL           1.928307000000     0.000000000000     0.000000000000    34.968852682000

  Charge       = -1
  Multiplicity = 1
  Basis Set: AUG-CC-PVTZ
    Blend: AUG-CC-PVTZ
  Basis Set: (AUG-CC-PVTZ AUX)
    Blend: AUG-CC-PVTZ-JKFIT + DEF2-UNIVERSAL-JKFIT

    Orbital Energies [Eh]
    ---------------------

    Doubly Occupied:

       1A   -104.506613     2A    -10.229905     3A     -7.695961
       4A     -7.695961     5A     -7.695930     6A     -0.733496
       7A     -0.150327     8A     -0.150325     9A     -0.150325

  @DF-RHF Final Energy:  -459.57351875924661

   => Energetics <=

    Nuclear Repulsion Energy =              0.0000000000000000
    One-Electron Energy =                -641.1293517692289470
    Two-Electron Energy =                 181.5558330099823650
    Total Energy =                       -459.5735187592465536
 Dipole X            :        -65.5925400           61.9475260           -3.6450141
 Dipole Y            :          0.0000000            0.0000000            0.0000000
 Dipole Z            :         -0.0000000            0.0000000           -0.0000000
 Magnitude           :                                                    3.6450141

    SAPT Results
  --------------------------------------------------------------------------------------------------------
    Electrostatics               -259.19571378 [mEh]    -162.64776596 [kcal/mol]    -680.51825276 [kJ/mol]
      Elst10,r                   -261.36226348 [mEh]    -164.00729642 [kcal/mol]    -686.20652823 [kJ/mol]
      Elst12,r                      2.16654970 [mEh]       1.35953046 [kcal/mol]       5.68827546 [kJ/mol]

    Exchange                       67.46688088 [mEh]      42.33610692 [kcal/mol]     177.13427134 [kJ/mol]
      Exch10                       66.79854603 [mEh]      41.91672047 [kcal/mol]     175.37955844 [kJ/mol]
      Exch10(S^2)                  65.68824141 [mEh]      41.21999380 [kcal/mol]     172.46445405 [kJ/mol]
      Exch11(S^2)                  -0.98415297 [mEh]      -0.61756531 [kcal/mol]      -2.58389326 [kJ/mol]
      Exch12(S^2)                   1.65248781 [mEh]       1.03695176 [kcal/mol]       4.33860616 [kJ/mol]

    Induction                     -47.62636696 [mEh]     -29.88599647 [kcal/mol]    -125.04300923 [kJ/mol]
      Ind20,r                     -98.77969835 [mEh]     -61.98519653 [kcal/mol]    -259.34606230 [kJ/mol]
      Ind22                        -6.09202691 [mEh]      -3.82280460 [kcal/mol]     -15.99461444 [kJ/mol]
      Exch-Ind20,r                 60.86493838 [mEh]      38.19332546 [kcal/mol]     159.80087371 [kJ/mol]
      Exch-Ind22                    3.75371507 [mEh]       2.35549177 [kcal/mol]       9.85537756 [kJ/mol]
      delta HF,r (2)               -7.37329516 [mEh]      -4.62681256 [kcal/mol]     -19.35858377 [kJ/mol]

    Dispersion                     -1.85584184 [mEh]      -1.16455834 [kcal/mol]      -4.87251209 [kJ/mol]
      Disp20                       -2.00082474 [mEh]      -1.25553648 [kcal/mol]      -5.25316463 [kJ/mol]
      Disp21                       -0.06078730 [mEh]      -0.03814461 [kcal/mol]      -0.15959705 [kJ/mol]
      Disp22 (SDQ)                  0.00913960 [mEh]       0.00573518 [kcal/mol]       0.02399601 [kJ/mol]
      Disp22 (T)                   -0.10653618 [mEh]      -0.06685246 [kcal/mol]      -0.27971070 [kJ/mol]
      Est. Disp22 (T)              -0.12618229 [mEh]      -0.07918058 [kcal/mol]      -0.33129156 [kJ/mol]
      Exch-Disp20                   0.32281289 [mEh]       0.20256815 [kcal/mol]       0.84754513 [kJ/mol]

  Total HF                       -239.85177258 [mEh]    -150.50925959 [kcal/mol]    -629.73074214 [kJ/mol]
  Total SAPT0                    -241.52978442 [mEh]    -151.56222792 [kcal/mol]    -634.13636163 [kJ/mol]
  Total SAPT2                    -241.03321171 [mEh]    -151.25062384 [kcal/mol]    -632.83261015 [kJ/mol]
  Total SAPT2+                   -241.21104170 [mEh]    -151.36221385 [kcal/mol]    -633.29950275 [kJ/mol]

  Special recipe for scaled SAPT0 (see Manual):
    Electrostatics sSAPT0        -261.36226348 [mEh]    -164.00729642 [kcal/mol]    -686.20652823 [kJ/mol]
    Exchange sSAPT0                66.79854603 [mEh]      41.91672047 [kcal/mol]     175.37955844 [kJ/mol]
    Induction sSAPT0              -42.14925979 [mEh]     -26.44905983 [kcal/mol]    -110.66286632 [kJ/mol]
    Dispersion sSAPT0              -1.66136443 [mEh]      -1.04252192 [kcal/mol]      -4.36191172 [kJ/mol]
  Total sSAPT0                   -238.37434167 [mEh]    -149.58215770 [kcal/mol]    -625.85174783 [kJ/mol]
  --------------------------------------------------------------------------------------------------------

*** Psi4 exiting successfully. Buy a developer a beer!
