                               Psi4 1.9 release

  ==> Input File <==

--------------------------------------------------------------------------
MEMORY 60 GB

molecule dimer {
1 1
Li     0.000000     0.000000     0.000000
--
-1 1
Cl     1.623838     0.000000     0.000000

units ang
no_reorient
no_com
symmetry c1
}

set {
basis        aug-cc-pVTZ
scf_type     df
}

energy("sapt2+")
--------------------------------------------------------------------------

  //              Dimer HF             //
    Molecular point group: c1
  Charge       = 0
  Multiplicity = 1
  Basis Set: AUG-CC-PVTZ
    Blend: AUG-CC-PVTZ
  Basis Set: (AUG-CC-PVTZ AUX)
    Blend: AUG-CC-PVTZ-JKFIT + DEF2-UNIVERSAL-JKFIT
  @DF-RHF Final Energy:  -467.00069698388768
    Total Energy =                       -467.0006969838876216
 Dipole X            :        -54.3824596           52.1663546           -2.2161050
 Dipole Y            :         -0.0000000            0.0000000           -0.0000000
 Dipole Z            :          0.0000000            0.0000000            0.0000000
 Magnitude           :                                                    2.2161050
  //            Monomer A HF           //
    Molecular point group: c1
  Multiplicity = 1
  Basis Set: AUG-CC-PVTZ
    Blend: AUG-CC-PVTZ
  Basis Set: (AUG-CC-PVTZ AUX)
    Blend: AUG-CC-PVTZ-JKFIT + DEF2-UNIVERSAL-JKFIT
  @DF-RHF Final Energy:    -7.23638364116664
    Total Energy =                         -7.2363836411666398
  //            Monomer B HF           //
    Molecular point group: c1

    Geometry (in Angstrom), charge = -1, multiplicity = 1:

       Center              X                  Y                   Z               Mass
    ------------   -----------------  -----------------  -----------------  -----------------
      Gh(LI)          0.000000000000     0.000000000000     0.000000000000     7.016003436600
         CL           1.623838000000     0.000000000000     0.000000000000    34.968852682000

  Charge       = -1
  Multiplicity = 1
  Basis Set: AUG-CC-PVTZ
    Blend: AUG-CC-PVTZ
  Basis Set: (AUG-CC-PVTZ AUX)
    Blend: AUG-CC-PVTZ-JKFIT + DEF2-UNIVERSAL-JKFIT

    Orbital Energies [Eh]
    ---------------------

    Doubly Occupied:

       1A   -104.506837     2A    -10.229968     3A     -7.696031
       4A     -7.696031     5A     -7.695989     6A     -0.733496
       7A     -0.150329     8A     -0.150329     9A     -0.150320

  @DF-RHF Final Energy:  -459.57352272218827

   => Energetics <=

    Nuclear Repulsion Energy =              0.0000000000000000
    One-Electron Energy =                -641.1283864697355739
    Two-Electron Energy =                 181.5548637475473299
    Total Energy =                       -459.5735227221882724
 Dipole X            :        -55.2359165           52.1663546           -3.0695620
 Dipole Y            :         -0.0000000            0.0000000           -0.0000000
 Dipole Z            :          0.0000000            0.0000000            0.0000000
 Magnitude           :                                                    3.0695620

    SAPT Results
  --------------------------------------------------------------------------------------------------------
    Electrostatics               -288.14474786 [mEh]    -180.81355910 [kcal/mol]    -756.52393129 [kJ/mol]
      Elst10,r                   -292.37233168 [mEh]    -183.46640800 [kcal/mol]    -767.62345107 [kJ/mol]
      Elst12,r                      4.22758382 [mEh]       2.65284890 [kcal/mol]      11.09951978 [kJ/mol]

    Exchange                      172.42891622 [mEh]     108.20077848 [kcal/mol]     452.71205718 [kJ/mol]
      Exch10                      174.77655579 [mEh]     109.67394455 [kcal/mol]     458.87578401 [kJ/mol]
      Exch10(S^2)                 167.44917467 [mEh]     105.07594348 [kcal/mol]     439.63774753 [kJ/mol]
      Exch11(S^2)                  -3.09235664 [mEh]      -1.94048309 [kcal/mol]      -8.11898123 [kJ/mol]
      Exch12(S^2)                   0.74471707 [mEh]       0.46731702 [kcal/mol]       1.95525440 [kJ/mol]

    Induction                     -75.58596065 [mEh]     -47.43090639 [kcal/mol]    -198.45091235 [kJ/mol]
      Ind20,r                    -169.50945444 [mEh]    -106.36878856 [kcal/mol]    -445.04701132 [kJ/mol]
      Ind22                        -8.03950284 [mEh]      -5.04486420 [kcal/mol]     -21.10771181 [kJ/mol]
      Exch-Ind20,r                119.09380341 [mEh]      74.73248991 [kcal/mol]     312.68073779 [kJ/mol]
      Exch-Ind22                    5.64838684 [mEh]       3.54441625 [kcal/mol]      14.82983760 [kJ/mol]
      delta HF,r (2)              -22.77919362 [mEh]     -14.29415980 [kcal/mol]     -59.80676460 [kJ/mol]

    Dispersion                     -4.51014092 [mEh]      -2.83015616 [kcal/mol]     -11.84137336 [kJ/mol]
      Disp20                       -4.68989436 [mEh]      -2.94295314 [kcal/mol]     -12.31331594 [kJ/mol]
      Disp21                       -0.07944509 [mEh]      -0.04985255 [kcal/mol]      -0.20858306 [kJ/mol]
      Disp22 (SDQ)                  0.04963413 [mEh]       0.03114589 [kcal/mol]       0.13031440 [kJ/mol]
      Disp22 (T)                   -0.21903848 [mEh]      -0.13744872 [kcal/mol]      -0.57508546 [kJ/mol]
      Est. Disp22 (T)              -0.26053429 [mEh]      -0.16348773 [kcal/mol]      -0.68403268 [kJ/mol]
      Exch-Disp20                   0.47009868 [mEh]       0.29499138 [kcal/mol]       1.23424392 [kJ/mol]

  Total HF                       -190.79062053 [mEh]    -119.72292189 [kcal/mol]    -500.92070520 [kJ/mol]
  Total SAPT0                    -195.01041621 [mEh]    -122.37088366 [kcal/mol]    -511.99977722 [kJ/mol]
  Total SAPT2                    -195.52158797 [mEh]    -122.69164878 [kcal/mol]    -513.34185849 [kJ/mol]
  Total SAPT2+                   -195.81193322 [mEh]    -122.87384317 [kcal/mol]    -514.10415983 [kJ/mol]

  Special recipe for scaled SAPT0 (see Manual):
    Electrostatics sSAPT0        -292.37233168 [mEh]    -183.46640800 [kcal/mol]    -767.62345107 [kJ/mol]
    Exchange sSAPT0               174.77655579 [mEh]     109.67394455 [kcal/mol]     458.87578401 [kJ/mol]
    Induction sSAPT0              -56.86651147 [mEh]     -35.68427469 [kcal/mol]    -149.30300528 [kJ/mol]
    Dispersion sSAPT0              -4.15534289 [mEh]      -2.60751703 [kcal/mol]     -10.90985124 [kJ/mol]
  Total sSAPT0                   -178.61763024 [mEh]    -112.08425516 [kcal/mol]    -468.96052359 [kJ/mol]
  --------------------------------------------------------------------------------------------------------

*** Psi4 exiting successfully. Buy a developer a beer!
