                               Psi4 1.9 release

  ==> Input File <==

--------------------------------------------------------------------------
MEMORY 60 GB

molecule dimer {
1 1
Li     0.000000     0.000000     0.000000
--
-1 1
Br     2.062197     0.000000     0.000000

units ang
no_reorient
no_com
symmetry c1
}

set {
basis        aug-cc-pVTZ
scf_type     df
}

energy("sapt2+")
--------------------------------------------------------------------------

  //              Dimer HF             //
    Molecular point group: c1
  Charge       = 0
  Multiplicity = 1
  Basis Set: AUG-CC-PVTZ
    Blend: AUG-CC-PVTZ
  Basis Set: (AUG-CC-PVTZ AUX)
    Blend: AUG-CC-PVTZ-JKFIT + DEF2-UNIVERSAL-JKFIT
  @DF-RHF Final Energy: -2579.99653968725443
    Total Energy =                      -2579.9965396872539714
 Dipole X            :       -139.1435070          136.3945641           -2.7489429
 Dipole Y            :          0.0000000            0.0000000            0.0000000
 Dipole Z            :          0.0000000            0.0000000            0.0000000
 Magnitude           :                                                    2.7489429
  //            Monomer A HF           //
    Molecular point group: c1
  Multiplicity = 1
  Basis Set: AUG-CC-PVTZ
    Blend: AUG-CC-PVTZ
  Basis Set: (AUG-CC-PVTZ AUX)
    Blend: AUG-CC-PVTZ-JKFIT + DEF2-UNIVERSAL-JKFIT
  @DF-RHF Final Energy:    -7.23638319311545
    Total Energy =                         -7.2363831931154481
  //            Monomer B HF           //
    Molecular point group: c1

    Geometry (in Angstrom), charge = -1, multiplicity = 1:

       Center              X                  Y                   Z               Mass
    ------------   -----------------  -----------------  -----------------  -----------------
      Gh(LI)          0.000000000000     0.000000000000     0.000000000000     7.016003436600
         BR           2.062197000000     0.000000000000     0.000000000000    78.918337600000

  Charge       = -1
  Multiplicity = 1
  Basis Set: AUG-CC-PVTZ
    Blend: AUG-CC-PVTZ
  Basis Set: (AUG-CC-PVTZ AUX)
    Blend: AUG-CC-PVTZ-JKFIT + DEF2-UNIVERSAL-JKFIT

    Orbital Energies [Eh]
    ---------------------

    Doubly Occupied:

       1A   -489.721272     2A    -64.861086     3A    -58.215592
       4A    -58.215592     5A    -58.215589     6A     -9.533048
       7A     -7.140390     8A     -7.140390     9A     -7.140374
      10A     -2.882082    11A     -2.882082    12A     -2.882071
      13A     -2.882071    14A     -2.882067    15A     -0.686000
      16A     -0.139343    17A     -0.139343    18A     -0.139336

  @DF-RHF Final Energy: -2572.53369280712832

   => Energetics <=

    Nuclear Repulsion Energy =              0.0000000000000000
    One-Electron Energy =               -3593.6719325626550017
    Two-Electron Energy =                1021.1382397555264561
    Total Energy =                      -2572.5336928071283182
 Dipole X            :       -140.2921750          136.3945641           -3.8976109
 Dipole Y            :          0.0000000            0.0000000            0.0000000
 Dipole Z            :          0.0000000            0.0000000            0.0000000
 Magnitude           :                                                    3.8976109

    SAPT Results
  --------------------------------------------------------------------------------------------------------
    Electrostatics               -240.75418836 [mEh]    -151.07553405 [kcal/mol]    -632.10003444 [kJ/mol]
      Elst10,r                   -242.11591016 [mEh]    -151.93002737 [kcal/mol]    -635.67523454 [kJ/mol]
      Elst12,r                      1.36172180 [mEh]       0.85449333 [kcal/mol]       3.57520009 [kJ/mol]

    Exchange                       63.37428175 [mEh]      39.76796219 [kcal/mol]     166.38915381 [kJ/mol]
      Exch10                       62.87802077 [mEh]      39.45655373 [kcal/mol]     165.08622079 [kJ/mol]
      Exch10(S^2)                  61.89719585 [mEh]      38.84107679 [kcal/mol]     162.51106530 [kJ/mol]
      Exch11(S^2)                  -1.05962854 [mEh]      -0.66492695 [kcal/mol]      -2.78205434 [kJ/mol]
      Exch12(S^2)                   1.55588952 [mEh]       0.97633541 [kcal/mol]       4.08498737 [kJ/mol]

    Induction                     -49.67286104 [mEh]     -31.17019089 [kcal/mol]    -130.41607870 [kJ/mol]
      Ind20,r                    -103.46759171 [mEh]     -64.92689402 [kcal/mol]    -271.65412460 [kJ/mol]
      Ind22                        -6.12530936 [mEh]      -3.84368965 [kcal/mol]     -16.08199750 [kJ/mol]
      Exch-Ind20,r                 62.13224945 [mEh]      38.98857516 [kcal/mol]     163.12819847 [kJ/mol]
      Exch-Ind22                    3.67824594 [mEh]       2.30813417 [kcal/mol]       9.65723338 [kJ/mol]
      delta HF,r (2)               -5.89045537 [mEh]      -3.69631655 [kcal/mol]     -15.46538845 [kJ/mol]

    Dispersion                     -1.67757940 [mEh]      -1.05269697 [kcal/mol]      -4.40448411 [kJ/mol]
      Disp20                       -1.84379052 [mEh]      -1.15699602 [kcal/mol]      -4.84087134 [kJ/mol]
      Disp21                       -0.06078503 [mEh]      -0.03814318 [kcal/mol]      -0.15959108 [kJ/mol]
      Disp22 (SDQ)                  0.00364380 [mEh]       0.00228652 [kcal/mol]       0.00956679 [kJ/mol]
      Disp22 (T)                   -0.09576536 [mEh]      -0.06009367 [kcal/mol]      -0.25143193 [kJ/mol]
      Est. Disp22 (T)              -0.11110794 [mEh]      -0.06972128 [kcal/mol]      -0.29171385 [kJ/mol]
      Exch-Disp20                   0.33446029 [mEh]       0.20987700 [kcal/mol]       0.87812536 [kJ/mol]

  Total HF                       -226.46368701 [mEh]    -142.10810907 [kcal/mol]    -594.58032833 [kJ/mol]
  Total SAPT0                    -227.97301724 [mEh]    -143.05522809 [kcal/mol]    -598.54307431 [kJ/mol]
  Total SAPT2                    -228.56209788 [mEh]    -143.42488177 [kcal/mol]    -600.08970532 [kJ/mol]
  Total SAPT2+                   -228.73034705 [mEh]    -143.53045972 [kcal/mol]    -600.53144345 [kJ/mol]

  Special recipe for scaled SAPT0 (see Manual):
    Electrostatics sSAPT0        -242.11591016 [mEh]    -151.93002737 [kcal/mol]    -635.67523454 [kJ/mol]
    Exchange sSAPT0                62.87802077 [mEh]      39.45655373 [kcal/mol]     165.08622079 [kJ/mol]
    Induction sSAPT0              -44.22509802 [mEh]     -27.75166799 [kcal/mol]    -116.11297885 [kJ/mol]
    Dispersion sSAPT0              -1.49317735 [mEh]      -0.93698294 [kcal/mol]      -3.92033660 [kJ/mol]
  Total sSAPT0                   -224.95616476 [mEh]    -141.16212457 [kcal/mol]    -590.62232920 [kJ/mol]
  --------------------------------------------------------------------------------------------------------

*** Psi4 exiting successfully. Buy a developer a beer!
