                               Psi4 1.9 release

  ==> Input File <==

--------------------------------------------------------------------------
MEMORY 60 GB

molecule dimer {
1 1
Li     0.000000     0.000000     0.000000
--
-1 1
Br     1.953661     0.000000     0.000000

units ang
no_reorient
no_com
symmetry c1
}

set {
basis        aug-cc-pVTZ
scf_type     df
}

energy("sapt2+")
--------------------------------------------------------------------------

  //              Dimer HF             //
    Molecular point group: c1
  Charge       = 0
  Multiplicity = 1
  Basis Set: AUG-CC-PVTZ
    Blend: AUG-CC-PVTZ
  Basis Set: (AUG-CC-PVTZ AUX)
    Blend: AUG-CC-PVTZ-JKFIT + DEF2-UNIVERSAL-JKFIT
  @DF-RHF Final Energy: -2579.98831607857937
    Total Energy =                      -2579.9883160785798282
 Dipole X            :       -131.7895612          129.2159481           -2.5736130
 Dipole Y            :          0.0000000            0.0000000            0.0000000
 Dipole Z            :         -0.0000000            0.0000000           -0.0000000
 Magnitude           :                                                    2.5736130
  //            Monomer A HF           //
    Molecular point group: c1
  Multiplicity = 1
  Basis Set: AUG-CC-PVTZ
    Blend: AUG-CC-PVTZ
  Basis Set: (AUG-CC-PVTZ AUX)
    Blend: AUG-CC-PVTZ-JKFIT + DEF2-UNIVERSAL-JKFIT
  @DF-RHF Final Energy:    -7.23638330638430
    Total Energy =                         -7.2363833063843011
  //            Monomer B HF           //
    Molecular point group: c1

    Geometry (in Angstrom), charge = -1, multiplicity = 1:

       Center              X                  Y                   Z               Mass
    ------------   -----------------  -----------------  -----------------  -----------------
      Gh(LI)          0.000000000000     0.000000000000     0.000000000000     7.016003436600
         BR           1.953661000000     0.000000000000     0.000000000000    78.918337600000

  Charge       = -1
  Multiplicity = 1
  Basis Set: AUG-CC-PVTZ
    Blend: AUG-CC-PVTZ
  Basis Set: (AUG-CC-PVTZ AUX)
    Blend: AUG-CC-PVTZ-JKFIT + DEF2-UNIVERSAL-JKFIT

    Orbital Energies [Eh]
    ---------------------

    Doubly Occupied:

       1A   -489.721369     2A    -64.861151     3A    -58.215661
       4A    -58.215661     5A    -58.215658     6A     -9.533068
       7A     -7.140409     8A     -7.140409     9A     -7.140393
      10A     -2.882104    11A     -2.882104    12A     -2.882093
      13A     -2.882093    14A     -2.882090    15A     -0.686001
      16A     -0.139344    17A     -0.139344    18A     -0.139337

  @DF-RHF Final Energy: -2572.53369488119051

   => Energetics <=

    Nuclear Repulsion Energy =              0.0000000000000000
    One-Electron Energy =               -3593.6708158946826188
    Two-Electron Energy =                1021.1371210134919920
    Total Energy =                      -2572.5336948811905131
 Dipole X            :       -132.9084531          129.2159481           -3.6925050
 Dipole Y            :          0.0000000            0.0000000            0.0000000
 Dipole Z            :         -0.0000000            0.0000000           -0.0000000
 Magnitude           :                                                    3.6925050

    SAPT Results
  --------------------------------------------------------------------------------------------------------
    Electrostatics               -249.24863544 [mEh]    -156.40588007 [kcal/mol]    -654.40220219 [kJ/mol]
      Elst10,r                   -250.96838719 [mEh]    -157.48504058 [kcal/mol]    -658.91740978 [kJ/mol]
      Elst12,r                      1.71975175 [mEh]       1.07916051 [kcal/mol]       4.51520759 [kJ/mol]

    Exchange                       86.54885870 [mEh]      54.31022878 [kcal/mol]     227.23399720 [kJ/mol]
      Exch10                       86.51760291 [mEh]      54.29061548 [kcal/mol]     227.15193516 [kJ/mol]
      Exch10(S^2)                  84.67466713 [mEh]      53.13415581 [kcal/mol]     222.31330791 [kJ/mol]
      Exch11(S^2)                  -1.56790114 [mEh]      -0.98387282 [kcal/mol]      -4.11652387 [kJ/mol]
      Exch12(S^2)                   1.59915692 [mEh]       1.00348612 [kcal/mol]       4.19858591 [kJ/mol]

    Induction                     -56.23637895 [mEh]     -35.28886056 [kcal/mol]    -147.64859259 [kJ/mol]
      Ind20,r                    -122.94518201 [mEh]     -77.14926646 [kcal/mol]    -322.79253089 [kJ/mol]
      Ind22                        -6.78032554 [mEh]      -4.25471851 [kcal/mol]     -17.80174226 [kJ/mol]
      Exch-Ind20,r                 78.53341792 [mEh]      49.28046376 [kcal/mol]     206.18946035 [kJ/mol]
      Exch-Ind22                    4.33105333 [mEh]       2.71777699 [kcal/mol]      11.37117894 [kJ/mol]
      delta HF,r (2)               -9.37534265 [mEh]      -5.88311633 [kcal/mol]     -24.61495874 [kJ/mol]

    Dispersion                     -2.24665872 [mEh]      -1.40979963 [kcal/mol]      -5.89860167 [kJ/mol]
      Disp20                       -2.44601959 [mEh]      -1.53490046 [kcal/mol]      -6.42202354 [kJ/mol]
      Disp21                       -0.07398586 [mEh]      -0.04642683 [kcal/mol]      -0.19424984 [kJ/mol]
      Disp22 (SDQ)                  0.00976815 [mEh]       0.00612961 [kcal/mol]       0.02564629 [kJ/mol]
      Disp22 (T)                   -0.12324158 [mEh]      -0.07733526 [kcal/mol]      -0.32357072 [kJ/mol]
      Est. Disp22 (T)              -0.14200368 [mEh]      -0.08910866 [kcal/mol]      -0.37283062 [kJ/mol]
      Exch-Disp20                   0.40558225 [mEh]       0.25450670 [kcal/mol]       1.06485605 [kJ/mol]

  Total HF                       -218.23789100 [mEh]    -136.94634414 [kcal/mol]    -572.98350389 [kJ/mol]
  Total SAPT0                    -220.27832834 [mEh]    -138.22673790 [kcal/mol]    -578.34067139 [kJ/mol]
  Total SAPT2                    -220.97659303 [mEh]    -138.66490561 [kcal/mol]    -580.17396508 [kJ/mol]
  Total SAPT2+                   -221.18281442 [mEh]    -138.79431148 [kcal/mol]    -580.71539925 [kJ/mol]

  Special recipe for scaled SAPT0 (see Manual):
    Electrostatics sSAPT0        -250.96838719 [mEh]    -157.48504058 [kcal/mol]    -658.91740978 [kJ/mol]
    Exchange sSAPT0                86.51760291 [mEh]      54.29061548 [kcal/mol]     227.15193516 [kJ/mol]
    Induction sSAPT0              -48.54687430 [mEh]     -30.46362355 [kcal/mol]    -127.45980092 [kJ/mol]
    Dispersion sSAPT0              -2.01337440 [mEh]      -1.26341151 [kcal/mol]      -5.28611375 [kJ/mol]
  Total sSAPT0                   -215.01103297 [mEh]    -134.92146016 [kcal/mol]    -564.51138930 [kJ/mol]
  --------------------------------------------------------------------------------------------------------

*** Psi4 exiting successfully. Buy a developer a beer!
