                               Psi4 1.9 release

  ==> Input File <==

--------------------------------------------------------------------------
MEMORY 60 GB

molecule dimer {
1 1
Li     0.000000     0.000000     0.000000
--
-1 1
Br     2.604881     0.000000     0.000000

units ang
no_reorient
no_com
symmetry c1
}

set {
basis        aug-cc-pVTZ
scf_type     df
}

energy("sapt2+")
--------------------------------------------------------------------------

  //              Dimer HF             //
    Molecular point group: c1
  Charge       = 0
  Multiplicity = 1
  Basis Set: AUG-CC-PVTZ
    Blend: AUG-CC-PVTZ
  Basis Set: (AUG-CC-PVTZ AUX)
    Blend: AUG-CC-PVTZ-JKFIT + DEF2-UNIVERSAL-JKFIT
  @DF-RHF Final Energy: -2579.98543087280359
    Total Energy =                      -2579.9854308728035903
 Dipole X            :       -175.9947559          172.2879088           -3.7068472
 Dipole Y            :          0.0000000            0.0000000            0.0000000
 Dipole Z            :          0.0000000            0.0000000            0.0000000
 Magnitude           :                                                    3.7068472
  //            Monomer A HF           //
    Molecular point group: c1
  Multiplicity = 1
  Basis Set: AUG-CC-PVTZ
    Blend: AUG-CC-PVTZ
  Basis Set: (AUG-CC-PVTZ AUX)
    Blend: AUG-CC-PVTZ-JKFIT + DEF2-UNIVERSAL-JKFIT
  @DF-RHF Final Energy:    -7.23638298847557
    Total Energy =                         -7.2363829884755670
  //            Monomer B HF           //
    Molecular point group: c1

    Geometry (in Angstrom), charge = -1, multiplicity = 1:

       Center              X                  Y                   Z               Mass
    ------------   -----------------  -----------------  -----------------  -----------------
      Gh(LI)          0.000000000000     0.000000000000     0.000000000000     7.016003436600
         BR           2.604881000000     0.000000000000     0.000000000000    78.918337600000

  Charge       = -1
  Multiplicity = 1
  Basis Set: AUG-CC-PVTZ
    Blend: AUG-CC-PVTZ
  Basis Set: (AUG-CC-PVTZ AUX)
    Blend: AUG-CC-PVTZ-JKFIT + DEF2-UNIVERSAL-JKFIT

    Orbital Energies [Eh]
    ---------------------

    Doubly Occupied:

       1A   -489.720874     2A    -64.860812     3A    -58.215303
       4A    -58.215303     5A    -58.215301     6A     -9.532962
       7A     -7.140307     8A     -7.140307     9A     -7.140295
      10A     -2.881986    11A     -2.881986    12A     -2.881979
      13A     -2.881979    14A     -2.881975    15A     -0.685998
      16A     -0.139339    17A     -0.139338    18A     -0.139338

  @DF-RHF Final Energy: -2572.53368424724249

   => Energetics <=

    Nuclear Repulsion Energy =              0.0000000000000000
    One-Electron Energy =               -3593.6765998297291844
    Two-Electron Energy =                1021.1429155824870350
    Total Energy =                      -2572.5336842472420358
 Dipole X            :       -177.2108254          172.2879088           -4.9229166
 Dipole Y            :          0.0000000            0.0000000            0.0000000
 Dipole Z            :          0.0000000            0.0000000            0.0000000
 Magnitude           :                                                    4.9229166

    SAPT Results
  --------------------------------------------------------------------------------------------------------
    Electrostatics               -199.61402571 [mEh]    -125.25969223 [kcal/mol]    -524.08655230 [kJ/mol]
      Elst10,r                   -199.96670339 [mEh]    -125.48100082 [kcal/mol]    -525.01250742 [kJ/mol]
      Elst12,r                      0.35267768 [mEh]       0.22130859 [kcal/mol]       0.92595512 [kJ/mol]

    Exchange                       13.96444448 [mEh]       8.76282121 [kcal/mol]      36.66364392 [kJ/mol]
      Exch10                       13.30475190 [mEh]       8.34885786 [kcal/mol]      34.93162131 [kJ/mol]
      Exch10(S^2)                  13.26031367 [mEh]       8.32097245 [kcal/mol]      34.81494873 [kJ/mol]
      Exch11(S^2)                  -0.15028039 [mEh]      -0.09430237 [kcal/mol]      -0.39456112 [kJ/mol]
      Exch12(S^2)                   0.80997297 [mEh]       0.50826571 [kcal/mol]       2.12658373 [kJ/mol]

    Induction                     -30.83642786 [mEh]     -19.35015062 [kcal/mol]     -80.96103018 [kJ/mol]
      Ind20,r                     -46.18310288 [mEh]     -28.98033459 [kcal/mol]    -121.25371991 [kJ/mol]
      Ind22                        -3.53379549 [mEh]      -2.21749015 [kcal/mol]      -9.27797879 [kJ/mol]
      Exch-Ind20,r                 18.28419880 [mEh]      11.47350797 [kcal/mol]      48.00515734 [kJ/mol]
      Exch-Ind22                    1.39905323 [mEh]       0.87791916 [kcal/mol]       3.67321375 [kJ/mol]
      delta HF,r (2)               -0.80278152 [mEh]      -0.50375301 [kcal/mol]      -2.10770258 [kJ/mol]

    Dispersion                     -0.43781663 [mEh]      -0.27473408 [kcal/mol]      -1.14948741 [kJ/mol]
      Disp20                       -0.48413083 [mEh]      -0.30379668 [kcal/mol]      -1.27108532 [kJ/mol]
      Disp21                       -0.02132417 [mEh]      -0.01338112 [kcal/mol]      -0.05598661 [kJ/mol]
      Disp22 (SDQ)                 -0.00464565 [mEh]      -0.00291519 [kcal/mol]      -0.01219714 [kJ/mol]
      Disp22 (T)                   -0.02860161 [mEh]      -0.01794778 [kcal/mol]      -0.07509352 [kJ/mol]
      Est. Disp22 (T)              -0.03418623 [mEh]      -0.02145218 [kcal/mol]      -0.08975593 [kJ/mol]
      Exch-Disp20                   0.10647024 [mEh]       0.06681109 [kcal/mol]       0.27953758 [kJ/mol]

  Total HF                       -215.36363709 [mEh]    -135.14272258 [kcal/mol]    -565.43715127 [kJ/mol]
  Total SAPT0                    -215.74129767 [mEh]    -135.37970817 [kcal/mol]    -566.42869900 [kJ/mol]
  Total SAPT2                    -216.86366968 [mEh]    -136.08400724 [kcal/mol]    -569.37548629 [kJ/mol]
  Total SAPT2+                   -216.92382572 [mEh]    -136.12175573 [kcal/mol]    -569.53342597 [kJ/mol]

  Special recipe for scaled SAPT0 (see Manual):
    Electrostatics sSAPT0        -199.96670339 [mEh]    -125.48100082 [kcal/mol]    -525.01250742 [kJ/mol]
    Exchange sSAPT0                13.30475190 [mEh]       8.34885786 [kcal/mol]      34.93162131 [kJ/mol]
    Induction sSAPT0              -28.51724573 [mEh]     -17.89484186 [kcal/mol]     -74.87201834 [kJ/mol]
    Dispersion sSAPT0              -0.37658658 [mEh]      -0.23631165 [kcal/mol]      -0.98872793 [kJ/mol]
  Total sSAPT0                   -215.55578380 [mEh]    -135.26329646 [kcal/mol]    -565.94163239 [kJ/mol]
  --------------------------------------------------------------------------------------------------------

*** Psi4 exiting successfully. Buy a developer a beer!
