                               Psi4 1.9 release

  ==> Input File <==

--------------------------------------------------------------------------
MEMORY 60 GB

molecule dimer {
1 1
Li     0.000000     0.000000     0.000000
--
-1 1
Br     4.341468     0.000000     0.000000

units ang
no_reorient
no_com
symmetry c1
}

set {
basis        aug-cc-pVTZ
scf_type     df
}

energy("sapt2+")
--------------------------------------------------------------------------

  //              Dimer HF             //
    Molecular point group: c1
  Charge       = 0
  Multiplicity = 1
  Basis Set: AUG-CC-PVTZ
    Blend: AUG-CC-PVTZ
  Basis Set: (AUG-CC-PVTZ AUX)
    Blend: AUG-CC-PVTZ-JKFIT + DEF2-UNIVERSAL-JKFIT
  @DF-RHF Final Energy: -2579.89898155703713
    Total Energy =                      -2579.8989815570371320
 Dipole X            :       -294.4625195          287.1464926           -7.3160269
 Dipole Y            :          0.0000000            0.0000000            0.0000000
 Dipole Z            :          0.0000000            0.0000000            0.0000000
 Magnitude           :                                                    7.3160269
  //            Monomer A HF           //
    Molecular point group: c1
  Multiplicity = 1
  Basis Set: AUG-CC-PVTZ
    Blend: AUG-CC-PVTZ
  Basis Set: (AUG-CC-PVTZ AUX)
    Blend: AUG-CC-PVTZ-JKFIT + DEF2-UNIVERSAL-JKFIT
  @DF-RHF Final Energy:    -7.23638247384837
    Total Energy =                         -7.2363824738483702
  //            Monomer B HF           //
    Molecular point group: c1

    Geometry (in Angstrom), charge = -1, multiplicity = 1:

       Center              X                  Y                   Z               Mass
    ------------   -----------------  -----------------  -----------------  -----------------
      Gh(LI)          0.000000000000     0.000000000000     0.000000000000     7.016003436600
         BR           4.341468000000     0.000000000000     0.000000000000    78.918337600000

  Charge       = -1
  Multiplicity = 1
  Basis Set: AUG-CC-PVTZ
    Blend: AUG-CC-PVTZ
  Basis Set: (AUG-CC-PVTZ AUX)
    Blend: AUG-CC-PVTZ-JKFIT + DEF2-UNIVERSAL-JKFIT

    Orbital Energies [Eh]
    ---------------------

    Doubly Occupied:

       1A   -489.720482     2A    -64.860538     3A    -58.215012
       4A    -58.215012     5A    -58.215011     6A     -9.532880
       7A     -7.140224     8A     -7.140224     9A     -7.140219
      10A     -2.881892    11A     -2.881892    12A     -2.881890
      13A     -2.881890    14A     -2.881885    15A     -0.686001
      16A     -0.139340    17A     -0.139338    18A     -0.139338

  @DF-RHF Final Energy: -2572.53367187142067

   => Energetics <=

    Nuclear Repulsion Energy =              0.0000000000000000
    One-Electron Energy =               -3593.6812041910752669
    Two-Electron Energy =                1021.1475323196543741
    Total Energy =                      -2572.5336718714206654
 Dipole X            :       -295.3507885          287.1464926           -8.2042959
 Dipole Y            :         -0.0000000            0.0000000           -0.0000000
 Dipole Z            :         -0.0000000            0.0000000           -0.0000000
 Magnitude           :                                                    8.2042959

    SAPT Results
  --------------------------------------------------------------------------------------------------------
    Electrostatics               -121.87485241 [mEh]     -76.47762450 [kcal/mol]    -319.98238093 [kJ/mol]
      Elst10,r                   -121.84535148 [mEh]     -76.45911239 [kcal/mol]    -319.90492622 [kJ/mol]
      Elst12,r                     -0.02950094 [mEh]      -0.01851212 [kcal/mol]      -0.07745470 [kJ/mol]

    Exchange                        0.16456534 [mEh]       0.10326631 [kcal/mol]       0.43206625 [kJ/mol]
      Exch10                        0.13896835 [mEh]       0.08720395 [kcal/mol]       0.36486135 [kJ/mol]
      Exch10(S^2)                   0.13896361 [mEh]       0.08720098 [kcal/mol]       0.36484892 [kJ/mol]
      Exch11(S^2)                  -0.00055674 [mEh]      -0.00034936 [kcal/mol]      -0.00146173 [kJ/mol]
      Exch12(S^2)                   0.02615374 [mEh]       0.01641172 [kcal/mol]       0.06866663 [kJ/mol]

    Induction                      -7.73456123 [mEh]      -4.85351045 [kcal/mol]     -20.30708771 [kJ/mol]
      Ind20,r                      -5.74283194 [mEh]      -3.60368145 [kcal/mol]     -15.07780319 [kJ/mol]
      Ind22                        -0.54460524 [mEh]      -0.34174495 [kcal/mol]      -1.42986087 [kJ/mol]
      Exch-Ind20,r                  0.32555045 [mEh]       0.20428599 [kcal/mol]       0.85473258 [kJ/mol]
      Exch-Ind22                    0.03087266 [mEh]       0.01937288 [kcal/mol]       0.08105615 [kJ/mol]
      delta HF,r (2)               -1.80354715 [mEh]      -1.13174292 [kcal/mol]      -4.73521238 [kJ/mol]

    Dispersion                     -0.01593688 [mEh]      -0.01000054 [kcal/mol]      -0.04184226 [kJ/mol]
      Disp20                       -0.01541844 [mEh]      -0.00967522 [kcal/mol]      -0.04048111 [kJ/mol]
      Disp21                       -0.00035261 [mEh]      -0.00022126 [kcal/mol]      -0.00092577 [kJ/mol]
      Disp22 (SDQ)                 -0.00053145 [mEh]      -0.00033349 [kcal/mol]      -0.00139532 [kJ/mol]
      Disp22 (T)                   -0.00097387 [mEh]      -0.00061111 [kcal/mol]      -0.00255689 [kJ/mol]
      Est. Disp22 (T)              -0.00126679 [mEh]      -0.00079492 [kcal/mol]      -0.00332595 [kJ/mol]
      Exch-Disp20                   0.00163241 [mEh]       0.00102435 [kcal/mol]       0.00428588 [kJ/mol]

  Total HF                       -128.92721177 [mEh]     -80.90304681 [kcal/mol]    -338.49834786 [kJ/mol]
  Total SAPT0                    -128.94099780 [mEh]     -80.91169768 [kcal/mol]    -338.53454310 [kJ/mol]
  Total SAPT2                    -129.45863433 [mEh]     -81.23651951 [kcal/mol]    -339.89359762 [kJ/mol]
  Total SAPT2+                   -129.46078517 [mEh]     -81.23786918 [kcal/mol]    -339.89924465 [kJ/mol]

  Special recipe for scaled SAPT0 (see Manual):
    Electrostatics sSAPT0        -121.84535148 [mEh]     -76.45911239 [kcal/mol]    -319.90492622 [kJ/mol]
    Exchange sSAPT0                 0.13896835 [mEh]       0.08720395 [kcal/mol]       0.36486135 [kJ/mol]
    Induction sSAPT0               -7.22079538 [mEh]      -4.53111751 [kcal/mol]     -18.95819565 [kJ/mol]
    Dispersion sSAPT0              -0.01378587 [mEh]      -0.00865076 [kcal/mol]      -0.03619479 [kJ/mol]
  Total sSAPT0                   -128.94096437 [mEh]     -80.91167670 [kcal/mol]    -338.53445532 [kJ/mol]
  --------------------------------------------------------------------------------------------------------

*** Psi4 exiting successfully. Buy a developer a beer!
