                               Psi4 1.9 release

  ==> Input File <==

--------------------------------------------------------------------------
MEMORY 60 GB

molecule dimer {
1 1
Li     0.000000     0.000000     0.000000
--
-1 1
Br     3.256101     0.000000     0.000000

units ang
no_reorient
no_com
symmetry c1
}

set {
basis        aug-cc-pVTZ
scf_type     df
}

energy("sapt2+")
--------------------------------------------------------------------------

  //              Dimer HF             //
    Molecular point group: c1
  Charge       = 0
  Multiplicity = 1
  Basis Set: AUG-CC-PVTZ
    Blend: AUG-CC-PVTZ
  Basis Set: (AUG-CC-PVTZ AUX)
    Blend: AUG-CC-PVTZ-JKFIT + DEF2-UNIVERSAL-JKFIT
  @DF-RHF Final Energy: -2579.94717763765038
    Total Energy =                      -2579.9471776376503840
 Dipole X            :       -220.3546070          215.3598694           -4.9947376
 Dipole Y            :         -0.0000000            0.0000000           -0.0000000
 Dipole Z            :         -0.0000000            0.0000000           -0.0000000
 Magnitude           :                                                    4.9947376
  //            Monomer A HF           //
    Molecular point group: c1
  Multiplicity = 1
  Basis Set: AUG-CC-PVTZ
    Blend: AUG-CC-PVTZ
  Basis Set: (AUG-CC-PVTZ AUX)
    Blend: AUG-CC-PVTZ-JKFIT + DEF2-UNIVERSAL-JKFIT
  @DF-RHF Final Energy:    -7.23638272535091
    Total Energy =                         -7.2363827253509054
  //            Monomer B HF           //
    Molecular point group: c1

    Geometry (in Angstrom), charge = -1, multiplicity = 1:

       Center              X                  Y                   Z               Mass
    ------------   -----------------  -----------------  -----------------  -----------------
      Gh(LI)          0.000000000000     0.000000000000     0.000000000000     7.016003436600
         BR           3.256101000000     0.000000000000     0.000000000000    78.918337600000

  Charge       = -1
  Multiplicity = 1
  Basis Set: AUG-CC-PVTZ
    Blend: AUG-CC-PVTZ
  Basis Set: (AUG-CC-PVTZ AUX)
    Blend: AUG-CC-PVTZ-JKFIT + DEF2-UNIVERSAL-JKFIT

    Orbital Energies [Eh]
    ---------------------

    Doubly Occupied:

       1A   -489.720644     2A    -64.860650     3A    -58.215131
       4A    -58.215131     5A    -58.215129     6A     -9.532912
       7A     -7.140257     8A     -7.140257     9A     -7.140249
      10A     -2.881929    11A     -2.881929    12A     -2.881926
      13A     -2.881926    14A     -2.881924    15A     -0.685999
      16A     -0.139343    17A     -0.139336    18A     -0.139336

  @DF-RHF Final Energy: -2572.53367698683496

   => Energetics <=

    Nuclear Repulsion Energy =              0.0000000000000000
    One-Electron Energy =               -3593.6793405885964603
    Two-Electron Energy =                1021.1456636017618393
    Total Energy =                      -2572.5336769868345073
 Dipole X            :       -221.5130605          215.3598694           -6.1531910
 Dipole Y            :         -0.0000000            0.0000000           -0.0000000
 Dipole Z            :         -0.0000000            0.0000000           -0.0000000
 Magnitude           :                                                    6.1531910

    SAPT Results
  --------------------------------------------------------------------------------------------------------
    Electrostatics               -161.90808759 [mEh]    -101.59885885 [kcal/mol]    -425.08962541 [kJ/mol]
      Elst10,r                   -161.92949278 [mEh]    -101.61229080 [kcal/mol]    -425.14582471 [kJ/mol]
      Elst12,r                      0.02140518 [mEh]       0.01343196 [kcal/mol]       0.05619930 [kJ/mol]

    Exchange                        2.49025077 [mEh]       1.56265595 [kcal/mol]       6.53815250 [kJ/mol]
      Exch10                        2.26137549 [mEh]       1.41903454 [kcal/mol]       5.93724052 [kJ/mol]
      Exch10(S^2)                   2.26010145 [mEh]       1.41823507 [kcal/mol]       5.93389554 [kJ/mol]
      Exch11(S^2)                  -0.01576533 [mEh]      -0.00989290 [kcal/mol]      -0.04139188 [kJ/mol]
      Exch12(S^2)                   0.24464062 [mEh]       0.15351431 [kcal/mol]       0.64230386 [kJ/mol]

    Induction                     -18.81763723 [mEh]     -11.80824563 [kcal/mol]     -49.40569973 [kJ/mol]
      Ind20,r                     -19.42905658 [mEh]     -12.19191707 [kcal/mol]     -51.01098104 [kJ/mol]
      Ind22                        -1.72669533 [mEh]      -1.08351768 [kcal/mol]      -4.53343797 [kJ/mol]
      Exch-Ind20,r                  4.03802171 [mEh]       2.53389688 [kcal/mol]      10.60182454 [kJ/mol]
      Exch-Ind22                    0.35886628 [mEh]       0.22519199 [kcal/mol]       0.94220329 [kJ/mol]
      delta HF,r (2)               -2.05877330 [mEh]      -1.29189975 [kcal/mol]      -5.40530855 [kJ/mol]

    Dispersion                     -0.10782112 [mEh]      -0.06765877 [kcal/mol]      -0.28308431 [kJ/mol]
      Disp20                       -0.11384703 [mEh]      -0.07144009 [kcal/mol]      -0.29890534 [kJ/mol]
      Disp21                       -0.00527138 [mEh]      -0.00330784 [kcal/mol]      -0.01384000 [kJ/mol]
      Disp22 (SDQ)                 -0.00269183 [mEh]      -0.00168915 [kcal/mol]      -0.00706740 [kJ/mol]
      Disp22 (T)                   -0.00685801 [mEh]      -0.00430347 [kcal/mol]      -0.01800571 [kJ/mol]
      Est. Disp22 (T)              -0.00889764 [mEh]      -0.00558335 [kcal/mol]      -0.02336074 [kJ/mol]
      Exch-Disp20                   0.02288676 [mEh]       0.01436166 [kcal/mol]       0.06008917 [kJ/mol]

  Total HF                       -177.11792546 [mEh]    -111.14317620 [kcal/mol]    -465.02304924 [kJ/mol]
  Total SAPT0                    -177.20888574 [mEh]    -111.20025464 [kcal/mol]    -465.26186541 [kJ/mol]
  Total SAPT2                    -178.32643432 [mEh]    -111.90152696 [kcal/mol]    -468.19598881 [kJ/mol]
  Total SAPT2+                   -178.34329517 [mEh]    -111.91210730 [kcal/mol]    -468.24025696 [kJ/mol]

  Special recipe for scaled SAPT0 (see Manual):
    Electrostatics sSAPT0        -161.92949278 [mEh]    -101.61229080 [kcal/mol]    -425.14582471 [kJ/mol]
    Exchange sSAPT0                 2.26137549 [mEh]       1.41903454 [kcal/mol]       5.93724052 [kJ/mol]
    Induction sSAPT0              -17.44297555 [mEh]     -10.94563241 [kcal/mol]     -45.79652599 [kJ/mol]
    Dispersion sSAPT0              -0.09092155 [mEh]      -0.05705413 [kcal/mol]      -0.23871449 [kJ/mol]
  Total sSAPT0                   -177.20201439 [mEh]    -111.19594280 [kcal/mol]    -465.24382468 [kJ/mol]
  --------------------------------------------------------------------------------------------------------

*** Psi4 exiting successfully. Buy a developer a beer!
