                               Psi4 1.9 release

  ==> Input File <==

--------------------------------------------------------------------------
MEMORY 60 GB

molecule dimer {
1 1
Li     0.000000     0.000000     0.000000
--
-1 1
Br     2.821954     0.000000     0.000000

units ang
no_reorient
no_com
symmetry c1
}

set {
basis        aug-cc-pVTZ
scf_type     df
}

energy("sapt2+")
--------------------------------------------------------------------------

  //              Dimer HF             //
    Molecular point group: c1
  Charge       = 0
  Multiplicity = 1
  Basis Set: AUG-CC-PVTZ
    Blend: AUG-CC-PVTZ
  Basis Set: (AUG-CC-PVTZ AUX)
    Blend: AUG-CC-PVTZ-JKFIT + DEF2-UNIVERSAL-JKFIT
  @DF-RHF Final Energy: -2579.97278691085830
    Total Energy =                      -2579.9727869108583036
 Dipole X            :       -190.7673234          186.6452070           -4.1221164
 Dipole Y            :         -0.0000000            0.0000000           -0.0000000
 Dipole Z            :          0.0000000            0.0000000            0.0000000
 Magnitude           :                                                    4.1221164
  //            Monomer A HF           //
    Molecular point group: c1
  Multiplicity = 1
  Basis Set: AUG-CC-PVTZ
    Blend: AUG-CC-PVTZ
  Basis Set: (AUG-CC-PVTZ AUX)
    Blend: AUG-CC-PVTZ-JKFIT + DEF2-UNIVERSAL-JKFIT
  @DF-RHF Final Energy:    -7.23638292187145
    Total Energy =                         -7.2363829218714528
  //            Monomer B HF           //
    Molecular point group: c1

    Geometry (in Angstrom), charge = -1, multiplicity = 1:

       Center              X                  Y                   Z               Mass
    ------------   -----------------  -----------------  -----------------  -----------------
      Gh(LI)          0.000000000000     0.000000000000     0.000000000000     7.016003436600
         BR           2.821954000000     0.000000000000     0.000000000000    78.918337600000

  Charge       = -1
  Multiplicity = 1
  Basis Set: AUG-CC-PVTZ
    Blend: AUG-CC-PVTZ
  Basis Set: (AUG-CC-PVTZ AUX)
    Blend: AUG-CC-PVTZ-JKFIT + DEF2-UNIVERSAL-JKFIT

    Orbital Energies [Eh]
    ---------------------

    Doubly Occupied:

       1A   -489.720772     2A    -64.860741     3A    -58.215227
       4A    -58.215227     5A    -58.215226     6A     -9.532940
       7A     -7.140285     8A     -7.140285     9A     -7.140275
      10A     -2.881961    11A     -2.881961    12A     -2.881955
      13A     -2.881955    14A     -2.881952    15A     -0.685998
      16A     -0.139341    17A     -0.139336    18A     -0.139336

  @DF-RHF Final Energy: -2572.53368144446358

   => Energetics <=

    Nuclear Repulsion Energy =              0.0000000000000000
    One-Electron Energy =               -3593.6778088519122321
    Two-Electron Energy =                1021.1441274074489911
    Total Energy =                      -2572.5336814444631273
 Dipole X            :       -191.9781815          186.6452070           -5.3329745
 Dipole Y            :         -0.0000000            0.0000000           -0.0000000
 Dipole Z            :          0.0000000            0.0000000            0.0000000
 Magnitude           :                                                    5.3329745

    SAPT Results
  --------------------------------------------------------------------------------------------------------
    Electrostatics               -185.55336120 [mEh]    -116.43649204 [kcal/mol]    -487.17028270 [kJ/mol]
      Elst10,r                   -185.73381523 [mEh]    -116.54972866 [kcal/mol]    -487.64406472 [kJ/mol]
      Elst12,r                      0.18045404 [mEh]       0.11323662 [kcal/mol]       0.47378202 [kJ/mol]

    Exchange                        7.78085285 [mEh]       4.88255888 [kcal/mol]      20.42862635 [kJ/mol]
      Exch10                        7.29403378 [mEh]       4.57707530 [kcal/mol]      19.15048305 [kJ/mol]
      Exch10(S^2)                   7.28069603 [mEh]       4.56870574 [kcal/mol]      19.11546480 [kJ/mol]
      Exch11(S^2)                  -0.06990227 [mEh]      -0.04386434 [kcal/mol]      -0.18352839 [kJ/mol]
      Exch12(S^2)                   0.55672134 [mEh]       0.34934792 [kcal/mol]       1.46167169 [kJ/mol]

    Induction                     -26.17021828 [mEh]     -16.42205990 [kcal/mol]     -68.70989862 [kJ/mol]
      Ind20,r                     -34.20465630 [mEh]     -21.46374588 [kcal/mol]     -89.80431274 [kJ/mol]
      Ind22                        -2.79130431 [mEh]      -1.75156990 [kcal/mol]      -7.32856845 [kJ/mol]
      Exch-Ind20,r                 11.07577116 [mEh]       6.95015133 [kcal/mol]      29.07943317 [kJ/mol]
      Exch-Ind22                    0.90384910 [mEh]       0.56717387 [kcal/mol]       2.37305548 [kJ/mol]
      delta HF,r (2)               -1.15387793 [mEh]      -0.72406933 [kcal/mol]      -3.02950608 [kJ/mol]

    Dispersion                     -0.26741825 [mEh]      -0.16780749 [kcal/mol]      -0.70210653 [kJ/mol]
      Disp20                       -0.29250692 [mEh]      -0.18355086 [kcal/mol]      -0.76797682 [kJ/mol]
      Disp21                       -0.01360035 [mEh]      -0.00853435 [kcal/mol]      -0.03570772 [kJ/mol]
      Disp22 (SDQ)                 -0.00426341 [mEh]      -0.00267533 [kcal/mol]      -0.01119358 [kJ/mol]
      Disp22 (T)                   -0.01767861 [mEh]      -0.01109350 [kcal/mol]      -0.04641519 [kJ/mol]
      Est. Disp22 (T)              -0.02160807 [mEh]      -0.01355927 [kcal/mol]      -0.05673199 [kJ/mol]
      Exch-Disp20                   0.06456051 [mEh]       0.04051233 [kcal/mol]       0.16950359 [kJ/mol]

  Total HF                       -202.72254452 [mEh]    -127.21031724 [kcal/mol]    -532.24796732 [kJ/mol]
  Total SAPT0                    -202.95049094 [mEh]    -127.35335577 [kcal/mol]    -532.84644055 [kJ/mol]
  Total SAPT2                    -204.17067304 [mEh]    -128.11903160 [kcal/mol]    -536.05002820 [kJ/mol]
  Total SAPT2+                   -204.21014487 [mEh]    -128.14380055 [kcal/mol]    -536.15366150 [kJ/mol]

  Special recipe for scaled SAPT0 (see Manual):
    Electrostatics sSAPT0        -185.73381523 [mEh]    -116.54972866 [kcal/mol]    -487.64406472 [kJ/mol]
    Exchange sSAPT0                 7.29403378 [mEh]       4.57707530 [kcal/mol]      19.15048305 [kJ/mol]
    Induction sSAPT0              -24.22178127 [mEh]     -15.19939722 [kcal/mol]     -63.59427798 [kJ/mol]
    Dispersion sSAPT0              -0.22759095 [mEh]      -0.14281548 [kcal/mol]      -0.59753996 [kJ/mol]
  Total sSAPT0                   -202.88915368 [mEh]    -127.31486606 [kcal/mol]    -532.68539960 [kJ/mol]
  --------------------------------------------------------------------------------------------------------

*** Psi4 exiting successfully. Buy a developer a beer!
