                               Psi4 1.9 release

  ==> Input File <==

--------------------------------------------------------------------------
MEMORY 60 GB

molecule dimer {
1 1
Li     0.000000     0.000000     0.000000
--
-1 1
Br     3.039028     0.000000     0.000000

units ang
no_reorient
no_com
symmetry c1
}

set {
basis        aug-cc-pVTZ
scf_type     df
}

energy("sapt2+")
--------------------------------------------------------------------------

  //              Dimer HF             //
    Molecular point group: c1
  Charge       = 0
  Multiplicity = 1
  Basis Set: AUG-CC-PVTZ
    Blend: AUG-CC-PVTZ
  Basis Set: (AUG-CC-PVTZ AUX)
    Blend: AUG-CC-PVTZ-JKFIT + DEF2-UNIVERSAL-JKFIT
  @DF-RHF Final Energy: -2579.95972825764784
    Total Energy =                      -2579.9597282576478392
 Dipole X            :       -205.5547818          201.0025713           -4.5522105
 Dipole Y            :         -0.0000000            0.0000000           -0.0000000
 Dipole Z            :         -0.0000000            0.0000000           -0.0000000
 Magnitude           :                                                    4.5522105
  //            Monomer A HF           //
    Molecular point group: c1
  Multiplicity = 1
  Basis Set: AUG-CC-PVTZ
    Blend: AUG-CC-PVTZ
  Basis Set: (AUG-CC-PVTZ AUX)
    Blend: AUG-CC-PVTZ-JKFIT + DEF2-UNIVERSAL-JKFIT
  @DF-RHF Final Energy:    -7.23638281819181
    Total Energy =                         -7.2363828181918084
  //            Monomer B HF           //
    Molecular point group: c1

    Geometry (in Angstrom), charge = -1, multiplicity = 1:

       Center              X                  Y                   Z               Mass
    ------------   -----------------  -----------------  -----------------  -----------------
      Gh(LI)          0.000000000000     0.000000000000     0.000000000000     7.016003436600
         BR           3.039028000000     0.000000000000     0.000000000000    78.918337600000

  Charge       = -1
  Multiplicity = 1
  Basis Set: AUG-CC-PVTZ
    Blend: AUG-CC-PVTZ
  Basis Set: (AUG-CC-PVTZ AUX)
    Blend: AUG-CC-PVTZ-JKFIT + DEF2-UNIVERSAL-JKFIT

    Orbital Energies [Eh]
    ---------------------

    Doubly Occupied:

       1A   -489.720698     2A    -64.860688     3A    -58.215172
       4A    -58.215172     5A    -58.215170     6A     -9.532924
       7A     -7.140269     8A     -7.140269     9A     -7.140260
      10A     -2.881942    11A     -2.881942    12A     -2.881938
      13A     -2.881938    14A     -2.881936    15A     -0.685999
      16A     -0.139342    17A     -0.139336    18A     -0.139336

  @DF-RHF Final Energy: -2572.53367900152216

   => Energetics <=

    Nuclear Repulsion Energy =              0.0000000000000000
    One-Electron Energy =               -3593.6786926939698787
    Two-Electron Energy =                1021.1450136924472645
    Total Energy =                      -2572.5336790015226143
 Dipole X            :       -206.7456276          201.0025713           -5.7430563
 Dipole Y            :         -0.0000000            0.0000000           -0.0000000
 Dipole Z            :         -0.0000000            0.0000000           -0.0000000
 Magnitude           :                                                    5.7430563

    SAPT Results
  --------------------------------------------------------------------------------------------------------
    Electrostatics               -173.02892803 [mEh]    -108.57729157 [kcal/mol]    -454.28738794 [kJ/mol]
      Elst10,r                   -173.10742339 [mEh]    -108.62654816 [kcal/mol]    -454.49347749 [kJ/mol]
      Elst12,r                      0.07849536 [mEh]       0.04925658 [kcal/mol]       0.20608954 [kJ/mol]

    Exchange                        4.38138974 [mEh]       2.74936357 [kcal/mol]      11.50333717 [kJ/mol]
      Exch10                        4.04168492 [mEh]       2.53619558 [kcal/mol]      10.61144231 [kJ/mol]
      Exch10(S^2)                   4.03760109 [mEh]       2.53363294 [kcal/mol]      10.60072020 [kJ/mol]
      Exch11(S^2)                  -0.03294488 [mEh]      -0.02067322 [kcal/mol]      -0.08649677 [kJ/mol]
      Exch12(S^2)                   0.37264969 [mEh]       0.23384121 [kcal/mol]       0.97839163 [kJ/mol]

    Induction                     -22.22368132 [mEh]     -13.94557057 [kcal/mol]     -58.34826727 [kJ/mol]
      Ind20,r                     -25.63127655 [mEh]     -16.08386886 [kcal/mol]     -67.29490730 [kJ/mol]
      Ind22                        -2.19637861 [mEh]      -1.37824838 [kcal/mol]      -5.76659124 [kJ/mol]
      Exch-Ind20,r                  6.69141957 [mEh]       4.19892917 [kcal/mol]      17.56831965 [kJ/mol]
      Exch-Ind22                    0.57339675 [mEh]       0.35981190 [kcal/mol]       1.50545297 [kJ/mol]
      delta HF,r (2)               -1.66084249 [mEh]      -1.04219440 [kcal/mol]      -4.36054136 [kJ/mol]

    Dispersion                     -0.16742300 [mEh]      -0.10505952 [kcal/mol]      -0.43956903 [kJ/mol]
      Disp20                       -0.18031867 [mEh]      -0.11315167 [kcal/mol]      -0.47342660 [kJ/mol]
      Disp21                       -0.00852708 [mEh]      -0.00535082 [kcal/mol]      -0.02238785 [kJ/mol]
      Disp22 (SDQ)                 -0.00348010 [mEh]      -0.00218380 [kcal/mol]      -0.00913700 [kJ/mol]
      Disp22 (T)                   -0.01059482 [mEh]      -0.00664835 [kcal/mol]      -0.02781671 [kJ/mol]
      Est. Disp22 (T)              -0.01368925 [mEh]      -0.00859013 [kcal/mol]      -0.03594111 [kJ/mol]
      Exch-Disp20                   0.03859210 [mEh]       0.02421691 [kcal/mol]       0.10132353 [kJ/mol]

  Total HF                       -189.66643793 [mEh]    -119.01748666 [kcal/mol]    -497.96916419 [kJ/mol]
  Total SAPT0                    -189.80816451 [mEh]    -119.10642143 [kcal/mol]    -498.34126726 [kJ/mol]
  Total SAPT2                    -191.01294619 [mEh]    -119.86243335 [kcal/mol]    -501.50442112 [kJ/mol]
  Total SAPT2+                   -191.03864261 [mEh]    -119.87855810 [kcal/mol]    -501.57188708 [kJ/mol]

  Special recipe for scaled SAPT0 (see Manual):
    Electrostatics sSAPT0        -173.10742339 [mEh]    -108.62654816 [kcal/mol]    -454.49347749 [kJ/mol]
    Exchange sSAPT0                 4.04168492 [mEh]       2.53619558 [kcal/mol]      10.61144231 [kJ/mol]
    Induction sSAPT0              -20.58037481 [mEh]     -12.91438017 [kcal/mol]     -54.03376662 [kJ/mol]
    Dispersion sSAPT0              -0.14160935 [mEh]      -0.08886121 [kcal/mol]      -0.37179531 [kJ/mol]
  Total sSAPT0                   -189.78772263 [mEh]    -119.09359395 [kcal/mol]    -498.28759711 [kJ/mol]
  --------------------------------------------------------------------------------------------------------

*** Psi4 exiting successfully. Buy a developer a beer!
