                               Psi4 1.9 release

  ==> Input File <==

--------------------------------------------------------------------------
MEMORY 60 GB

molecule dimer {
1 1
Li     0.000000     0.000000     0.000000
--
-1 1
Br     2.170734     0.000000     0.000000

units ang
no_reorient
no_com
symmetry c1
}

set {
basis        aug-cc-pVTZ
scf_type     df
}

energy("sapt2+")
--------------------------------------------------------------------------

  //              Dimer HF             //
    Molecular point group: c1
  Charge       = 0
  Multiplicity = 1
  Basis Set: AUG-CC-PVTZ
    Blend: AUG-CC-PVTZ
  Basis Set: (AUG-CC-PVTZ AUX)
    Blend: AUG-CC-PVTZ-JKFIT + DEF2-UNIVERSAL-JKFIT
  @DF-RHF Final Energy: -2579.99944975279959
    Total Energy =                      -2579.9994497527995918
 Dipole X            :       -146.5034230          143.5732463           -2.9301768
 Dipole Y            :         -0.0000000            0.0000000           -0.0000000
 Dipole Z            :         -0.0000000            0.0000000           -0.0000000
 Magnitude           :                                                    2.9301768
  //            Monomer A HF           //
    Molecular point group: c1
  Multiplicity = 1
  Basis Set: AUG-CC-PVTZ
    Blend: AUG-CC-PVTZ
  Basis Set: (AUG-CC-PVTZ AUX)
    Blend: AUG-CC-PVTZ-JKFIT + DEF2-UNIVERSAL-JKFIT
  @DF-RHF Final Energy:    -7.23638309989394
    Total Energy =                         -7.2363830998939447
  //            Monomer B HF           //
    Molecular point group: c1

    Geometry (in Angstrom), charge = -1, multiplicity = 1:

       Center              X                  Y                   Z               Mass
    ------------   -----------------  -----------------  -----------------  -----------------
      Gh(LI)          0.000000000000     0.000000000000     0.000000000000     7.016003436600
         BR           2.170734000000     0.000000000000     0.000000000000    78.918337600000

  Charge       = -1
  Multiplicity = 1
  Basis Set: AUG-CC-PVTZ
    Blend: AUG-CC-PVTZ
  Basis Set: (AUG-CC-PVTZ AUX)
    Blend: AUG-CC-PVTZ-JKFIT + DEF2-UNIVERSAL-JKFIT

    Orbital Energies [Eh]
    ---------------------

    Doubly Occupied:

       1A   -489.721178     2A    -64.861022     3A    -58.215524
       4A    -58.215524     5A    -58.215522     6A     -9.533028
       7A     -7.140371     8A     -7.140371     9A     -7.140355
      10A     -2.882060    11A     -2.882060    12A     -2.882049
      13A     -2.882049    14A     -2.882045    15A     -0.686000
      16A     -0.139342    17A     -0.139342    18A     -0.139336

  @DF-RHF Final Energy: -2572.53369089486478

   => Energetics <=

    Nuclear Repulsion Energy =              0.0000000000000000
    One-Electron Energy =               -3593.6730294309891178
    Two-Electron Energy =                1021.1393385361240007
    Total Energy =                      -2572.5336908948652308
 Dipole X            :       -147.6759501          143.5732463           -4.1027038
 Dipole Y            :         -0.0000000            0.0000000           -0.0000000
 Dipole Z            :         -0.0000000            0.0000000           -0.0000000
 Magnitude           :                                                    4.1027038

    SAPT Results
  --------------------------------------------------------------------------------------------------------
    Electrostatics               -232.10442485 [mEh]    -145.64772550 [kcal/mol]    -609.39008348 [kJ/mol]
      Elst10,r                   -233.17037208 [mEh]    -146.31661749 [kcal/mol]    -612.18872756 [kJ/mol]
      Elst12,r                      1.06594724 [mEh]       0.66889199 [kcal/mol]       2.79864408 [kJ/mol]

    Exchange                       46.54630663 [mEh]      29.20824838 [kcal/mol]     122.20731121 [kJ/mol]
      Exch10                       45.82053213 [mEh]      28.75281801 [kcal/mol]     120.30179054 [kJ/mol]
      Exch10(S^2)                  45.29693487 [mEh]      28.42425577 [kcal/mol]     118.92708613 [kJ/mol]
      Exch11(S^2)                  -0.71560397 [mEh]      -0.44904827 [kcal/mol]      -1.87881796 [kJ/mol]
      Exch12(S^2)                   1.44137846 [mEh]       0.90447864 [kcal/mol]       3.78433863 [kJ/mol]

    Induction                     -44.45639191 [mEh]     -27.89680710 [kcal/mol]    -116.72024089 [kJ/mol]
      Ind20,r                     -87.43299577 [mEh]     -54.86503317 [kcal/mol]    -229.55529877 [kJ/mol]
      Ind22                        -5.51860270 [mEh]      -3.46297548 [kcal/mol]     -14.48908940 [kJ/mol]
      Exch-Ind20,r                 48.92621808 [mEh]      30.70166536 [kcal/mol]     128.45576788 [kJ/mol]
      Exch-Ind22                    3.08812888 [mEh]       1.93783013 [kcal/mol]       8.10788126 [kJ/mol]
      delta HF,r (2)               -3.51914040 [mEh]      -2.20829394 [kcal/mol]      -9.23950185 [kJ/mol]

    Dispersion                     -1.26306201 [mEh]      -0.79258338 [kcal/mol]      -3.31616884 [kJ/mol]
      Disp20                       -1.39671852 [mEh]      -0.87645410 [kcal/mol]      -3.66708396 [kJ/mol]
      Disp21                       -0.04962595 [mEh]      -0.03114075 [kcal/mol]      -0.13029291 [kJ/mol]
      Disp22 (SDQ)                 -0.00024730 [mEh]      -0.00015518 [kcal/mol]      -0.00064929 [kJ/mol]
      Disp22 (T)                   -0.07529832 [mEh]      -0.04725041 [kcal/mol]      -0.19769570 [kJ/mol]
      Est. Disp22 (T)              -0.08717639 [mEh]      -0.05470401 [kcal/mol]      -0.22888158 [kJ/mol]
      Exch-Disp20                   0.27070615 [mEh]       0.16987067 [kcal/mol]       0.71073890 [kJ/mol]

  Total HF                       -229.37575804 [mEh]    -143.93546123 [kcal/mol]    -602.22596977 [kJ/mol]
  Total SAPT0                    -230.50177041 [mEh]    -144.64204465 [kcal/mol]    -605.18231483 [kJ/mol]
  Total SAPT2                    -231.14052250 [mEh]    -145.04286764 [kcal/mol]    -606.85935822 [kJ/mol]
  Total SAPT2+                   -231.27757214 [mEh]    -145.12886759 [kcal/mol]    -607.21918200 [kJ/mol]

  Special recipe for scaled SAPT0 (see Manual):
    Electrostatics sSAPT0        -233.17037208 [mEh]    -146.31661749 [kcal/mol]    -612.18872756 [kJ/mol]
    Exchange sSAPT0                45.82053213 [mEh]      28.75281801 [kcal/mol]     120.30179054 [kJ/mol]
    Induction sSAPT0              -40.30958378 [mEh]     -25.29464570 [kcal/mol]    -105.83279763 [kJ/mol]
    Dispersion sSAPT0              -1.11651598 [mEh]      -0.70062436 [kcal/mol]      -2.93141230 [kJ/mol]
  Total sSAPT0                   -228.77593971 [mEh]    -143.55906954 [kcal/mol]    -600.65114695 [kJ/mol]
  --------------------------------------------------------------------------------------------------------

*** Psi4 exiting successfully. Buy a developer a beer!
