                               Psi4 1.9 release

  ==> Input File <==

--------------------------------------------------------------------------
MEMORY 60 GB

molecule dimer {
1 1
Li     0.000000     0.000000     0.000000
--
-1 1
Br     1.736587     0.000000     0.000000

units ang
no_reorient
no_com
symmetry c1
}

set {
basis        aug-cc-pVTZ
scf_type     df
}

energy("sapt2+")
--------------------------------------------------------------------------

  //              Dimer HF             //
    Molecular point group: c1
  Charge       = 0
  Multiplicity = 1
  Basis Set: AUG-CC-PVTZ
    Blend: AUG-CC-PVTZ
  Basis Set: (AUG-CC-PVTZ AUX)
    Blend: AUG-CC-PVTZ-JKFIT + DEF2-UNIVERSAL-JKFIT
  @DF-RHF Final Energy: -2579.94503896769629
    Total Energy =                      -2579.9450389676962914
 Dipole X            :       -117.1022997          114.8585838           -2.2437159
 Dipole Y            :         -0.0000000            0.0000000           -0.0000000
 Dipole Z            :          0.0000000            0.0000000            0.0000000
 Magnitude           :                                                    2.2437159
  //            Monomer A HF           //
    Molecular point group: c1
  Multiplicity = 1
  Basis Set: AUG-CC-PVTZ
    Blend: AUG-CC-PVTZ
  Basis Set: (AUG-CC-PVTZ AUX)
    Blend: AUG-CC-PVTZ-JKFIT + DEF2-UNIVERSAL-JKFIT
  @DF-RHF Final Energy:    -7.23638354344226
    Total Energy =                         -7.2363835434422574
  //            Monomer B HF           //
    Molecular point group: c1

    Geometry (in Angstrom), charge = -1, multiplicity = 1:

       Center              X                  Y                   Z               Mass
    ------------   -----------------  -----------------  -----------------  -----------------
      Gh(LI)          0.000000000000     0.000000000000     0.000000000000     7.016003436600
         BR           1.736587000000     0.000000000000     0.000000000000    78.918337600000

  Charge       = -1
  Multiplicity = 1
  Basis Set: AUG-CC-PVTZ
    Blend: AUG-CC-PVTZ
  Basis Set: (AUG-CC-PVTZ AUX)
    Blend: AUG-CC-PVTZ-JKFIT + DEF2-UNIVERSAL-JKFIT

    Orbital Energies [Eh]
    ---------------------

    Doubly Occupied:

       1A   -489.721545     2A    -64.861264     3A    -58.215782
       4A    -58.215782     5A    -58.215778     6A     -9.533101
       7A     -7.140441     8A     -7.140441     9A     -7.140426
      10A     -2.882140    11A     -2.882140    12A     -2.882132
      13A     -2.882131    14A     -2.882131    15A     -0.686001
      16A     -0.139344    17A     -0.139344    18A     -0.139339

  @DF-RHF Final Energy: -2572.53369881913886

   => Energetics <=

    Nuclear Repulsion Energy =              0.0000000000000000
    One-Electron Energy =               -3593.6688750371986316
    Two-Electron Energy =                1021.1351762180596552
    Total Energy =                      -2572.5336988191388627
 Dipole X            :       -118.1408632          114.8585838           -3.2822794
 Dipole Y            :          0.0000000            0.0000000            0.0000000
 Dipole Z            :          0.0000000            0.0000000            0.0000000
 Magnitude           :                                                    3.2822794

    SAPT Results
  --------------------------------------------------------------------------------------------------------
    Electrostatics               -263.94494546 [mEh]    -165.62795383 [kcal/mol]    -692.98735884 [kJ/mol]
      Elst10,r                   -266.57302786 [mEh]    -167.27710044 [kcal/mol]    -699.88738823 [kJ/mol]
      Elst12,r                      2.62808240 [mEh]       1.64914661 [kcal/mol]       6.90002940 [kJ/mol]

    Exchange                      162.68957080 [mEh]     102.08924696 [kcal/mol]     427.14140928 [kJ/mol]
      Exch10                      164.83412539 [mEh]     103.43497528 [kcal/mol]     432.77193659 [kJ/mol]
      Exch10(S^2)                 158.30767381 [mEh]      99.33956509 [kcal/mol]     415.63674032 [kJ/mol]
      Exch11(S^2)                  -3.41627567 [mEh]      -2.14374535 [kcal/mol]      -8.96943053 [kJ/mol]
      Exch12(S^2)                   1.27172108 [mEh]       0.79801702 [kcal/mol]       3.33890322 [kJ/mol]

    Induction                     -75.70213133 [mEh]     -47.50380460 [kcal/mol]    -198.75591843 [kJ/mol]
      Ind20,r                    -176.21254321 [mEh]    -110.57504026 [kcal/mol]    -462.64596846 [kJ/mol]
      Ind22                        -8.24038835 [mEh]      -5.17092176 [kcal/mol]     -21.63513663 [kJ/mol]
      Exch-Ind20,r                123.08549639 [mEh]      77.23731507 [kcal/mol]     323.16092624 [kJ/mol]
      Exch-Ind22                    5.75595966 [mEh]       3.61191922 [kcal/mol]      15.11227001 [kJ/mol]
      delta HF,r (2)              -20.09065582 [mEh]     -12.60707686 [kcal/mol]     -52.74800958 [kJ/mol]

    Dispersion                     -4.11536425 [mEh]      -2.58243005 [kcal/mol]     -10.80488734 [kJ/mol]
      Disp20                       -4.34476920 [mEh]      -2.72638383 [kcal/mol]     -11.40718996 [kJ/mol]
      Disp21                       -0.10392208 [mEh]      -0.06521209 [kcal/mol]      -0.27284739 [kJ/mol]
      Disp22 (SDQ)                  0.03367497 [mEh]       0.02113136 [kcal/mol]       0.08841361 [kJ/mol]
      Disp22 (T)                   -0.19907138 [mEh]      -0.12491918 [kcal/mol]      -0.52266184 [kJ/mol]
      Est. Disp22 (T)              -0.23205830 [mEh]      -0.14561878 [kcal/mol]      -0.60926898 [kJ/mol]
      Exch-Disp20                   0.53171037 [mEh]       0.33365329 [kcal/mol]       1.39600538 [kJ/mol]

  Total HF                       -174.95660512 [mEh]    -109.78692721 [kcal/mol]    -459.34850345 [kJ/mol]
  Total SAPT0                    -178.76966395 [mEh]    -112.17965775 [kcal/mol]    -469.35968803 [kJ/mol]
  Total SAPT2                    -180.77056483 [mEh]    -113.43524201 [kcal/mol]    -474.61305257 [kJ/mol]
  Total SAPT2+                   -181.07287024 [mEh]    -113.62494152 [kcal/mol]    -475.40675532 [kJ/mol]

  Special recipe for scaled SAPT0 (see Manual):
    Electrostatics sSAPT0        -266.57302786 [mEh]    -167.27710044 [kcal/mol]    -699.88738823 [kJ/mol]
    Exchange sSAPT0               164.83412539 [mEh]     103.43497528 [kcal/mol]     432.77193659 [kJ/mol]
    Induction sSAPT0              -57.35837804 [mEh]     -35.99292562 [kcal/mol]    -150.59440080 [kJ/mol]
    Dispersion sSAPT0              -3.74454899 [mEh]      -2.34973997 [kcal/mol]      -9.83131203 [kJ/mol]
  Total sSAPT0                   -162.84182951 [mEh]    -102.18479074 [kcal/mol]    -427.54116447 [kJ/mol]
  --------------------------------------------------------------------------------------------------------

*** Psi4 exiting successfully. Buy a developer a beer!
