                               Psi4 1.9 release

  ==> Input File <==

--------------------------------------------------------------------------
MEMORY 60 GB

molecule dimer {
1 1
Li     0.000000     0.000000     0.000000
--
-1 1
Br     2.387807     0.000000     0.000000

units ang
no_reorient
no_com
symmetry c1
}

set {
basis        aug-cc-pVTZ
scf_type     df
}

energy("sapt2+")
--------------------------------------------------------------------------

  //              Dimer HF             //
    Molecular point group: c1
  Charge       = 0
  Multiplicity = 1
  Basis Set: AUG-CC-PVTZ
    Blend: AUG-CC-PVTZ
  Basis Set: (AUG-CC-PVTZ AUX)
    Blend: AUG-CC-PVTZ-JKFIT + DEF2-UNIVERSAL-JKFIT
  @DF-RHF Final Energy: -2579.99568373430338
    Total Energy =                      -2579.9956837343033840
 Dipole X            :       -161.2393079          157.9305445           -3.3087634
 Dipole Y            :         -0.0000000            0.0000000           -0.0000000
 Dipole Z            :         -0.0000000            0.0000000           -0.0000000
 Magnitude           :                                                    3.3087634
  //            Monomer A HF           //
    Molecular point group: c1
  Multiplicity = 1
  Basis Set: AUG-CC-PVTZ
    Blend: AUG-CC-PVTZ
  Basis Set: (AUG-CC-PVTZ AUX)
    Blend: AUG-CC-PVTZ-JKFIT + DEF2-UNIVERSAL-JKFIT
  @DF-RHF Final Energy:    -7.23638301256171
    Total Energy =                         -7.2363830125617072
  //            Monomer B HF           //
    Molecular point group: c1

    Geometry (in Angstrom), charge = -1, multiplicity = 1:

       Center              X                  Y                   Z               Mass
    ------------   -----------------  -----------------  -----------------  -----------------
      Gh(LI)          0.000000000000     0.000000000000     0.000000000000     7.016003436600
         BR           2.387807000000     0.000000000000     0.000000000000    78.918337600000

  Charge       = -1
  Multiplicity = 1
  Basis Set: AUG-CC-PVTZ
    Blend: AUG-CC-PVTZ
  Basis Set: (AUG-CC-PVTZ AUX)
    Blend: AUG-CC-PVTZ-JKFIT + DEF2-UNIVERSAL-JKFIT

    Orbital Energies [Eh]
    ---------------------

    Doubly Occupied:

       1A   -489.721009     2A    -64.860906     3A    -58.215402
       4A    -58.215402     5A    -58.215400     6A     -9.532992
       7A     -7.140336     8A     -7.140336     9A     -7.140321
      10A     -2.882019    11A     -2.882019    12A     -2.882010
      13A     -2.882010    14A     -2.882006    15A     -0.685999
      16A     -0.139340    17A     -0.139340    18A     -0.139338

  @DF-RHF Final Energy: -2572.53368742223984

   => Energetics <=

    Nuclear Repulsion Energy =              0.0000000000000000
    One-Electron Energy =               -3593.6750060107710851
    Two-Electron Energy =                1021.1413185885311350
    Total Energy =                      -2572.5336874222398365
 Dipole X            :       -162.4433810          157.9305445           -4.5128366
 Dipole Y            :         -0.0000000            0.0000000           -0.0000000
 Dipole Z            :         -0.0000000            0.0000000           -0.0000000
 Magnitude           :                                                    4.5128366

    SAPT Results
  --------------------------------------------------------------------------------------------------------
    Electrostatics               -215.22632997 [mEh]    -135.05656106 [kcal/mol]    -565.07665148 [kJ/mol]
      Elst10,r                   -215.85746430 [mEh]    -135.45260383 [kcal/mol]    -566.73369444 [kJ/mol]
      Elst12,r                      0.63113433 [mEh]       0.39604277 [kcal/mol]       1.65704295 [kJ/mol]

    Exchange                       25.33966012 [mEh]      15.90087679 [kcal/mol]      66.52926848 [kJ/mol]
      Exch10                       24.54592459 [mEh]      15.40280022 [kcal/mol]      64.44531614 [kJ/mol]
      Exch10(S^2)                  24.39484201 [mEh]      15.30799447 [kcal/mol]      64.04864886 [kJ/mol]
      Exch11(S^2)                  -0.32675592 [mEh]      -0.20504244 [kcal/mol]      -0.85789755 [kJ/mol]
      Exch12(S^2)                   1.12049145 [mEh]       0.70311900 [kcal/mol]       2.94184989 [kJ/mol]

    Induction                     -36.62761815 [mEh]     -22.98417739 [kcal/mol]     -96.16579820 [kJ/mol]
      Ind20,r                     -63.12382457 [mEh]     -39.61079794 [kcal/mol]    -165.73157857 [kJ/mol]
      Ind22                        -4.43733616 [mEh]      -2.78447048 [kcal/mol]     -11.65022447 [kJ/mol]
      Exch-Ind20,r                 30.03706497 [mEh]      18.84854283 [kcal/mol]      78.86230320 [kJ/mol]
      Exch-Ind22                    2.11147780 [mEh]       1.32497232 [kcal/mol]       5.54368421 [kJ/mol]
      delta HF,r (2)               -1.21500019 [mEh]      -0.76242413 [kcal/mol]      -3.18998257 [kJ/mol]

    Dispersion                     -0.73378895 [mEh]      -0.46045952 [kcal/mol]      -1.92656262 [kJ/mol]
      Disp20                       -0.81480285 [mEh]      -0.51129651 [kcal/mol]      -2.13926460 [kJ/mol]
      Disp21                       -0.03278993 [mEh]      -0.02057599 [kcal/mol]      -0.08608995 [kJ/mol]
      Disp22 (SDQ)                 -0.00384621 [mEh]      -0.00241353 [kcal/mol]      -0.01009821 [kJ/mol]
      Disp22 (T)                   -0.04579959 [mEh]      -0.02873967 [kcal/mol]      -0.12024679 [kJ/mol]
      Est. Disp22 (T)              -0.05438177 [mEh]      -0.03412508 [kcal/mol]      -0.14277933 [kJ/mol]
      Exch-Disp20                   0.17203182 [mEh]       0.10795159 [kcal/mol]       0.45166947 [kJ/mol]

  Total HF                       -225.61329950 [mEh]    -141.57448285 [kcal/mol]    -592.34763623 [kJ/mol]
  Total SAPT0                    -226.25607054 [mEh]    -141.97782776 [kcal/mol]    -594.03523137 [kJ/mol]
  Total SAPT2                    -227.15705904 [mEh]    -142.54320658 [kcal/mol]    -596.40077634 [kJ/mol]
  Total SAPT2+                   -227.24807695 [mEh]    -142.60032118 [kcal/mol]    -596.63974382 [kJ/mol]

  Special recipe for scaled SAPT0 (see Manual):
    Electrostatics sSAPT0        -215.85746430 [mEh]    -135.45260383 [kcal/mol]    -566.73369444 [kJ/mol]
    Exchange sSAPT0                24.54592459 [mEh]      15.40280022 [kcal/mol]      64.44531614 [kJ/mol]
    Induction sSAPT0              -33.74021805 [mEh]     -21.17230647 [kcal/mol]     -88.58493027 [kJ/mol]
    Dispersion sSAPT0              -0.63955491 [mEh]      -0.40132677 [kcal/mol]      -1.67915119 [kJ/mol]
  Total sSAPT0                   -225.69131266 [mEh]    -141.62343685 [kcal/mol]    -592.55245976 [kJ/mol]
  --------------------------------------------------------------------------------------------------------

*** Psi4 exiting successfully. Buy a developer a beer!
