                               Psi4 1.9 release

  ==> Input File <==

--------------------------------------------------------------------------
MEMORY 60 GB

molecule dimer {
1 1
Li     0.000000     0.000000     0.000000
--
-1 1
Br     2.279271     0.000000     0.000000

units ang
no_reorient
no_com
symmetry c1
}

set {
basis        aug-cc-pVTZ
scf_type     df
}

energy("sapt2+")
--------------------------------------------------------------------------

  //              Dimer HF             //
    Molecular point group: c1
  Charge       = 0
  Multiplicity = 1
  Basis Set: AUG-CC-PVTZ
    Blend: AUG-CC-PVTZ
  Basis Set: (AUG-CC-PVTZ AUX)
    Blend: AUG-CC-PVTZ-JKFIT + DEF2-UNIVERSAL-JKFIT
  @DF-RHF Final Energy: -2579.99876459408461
    Total Energy =                      -2579.9987645940846051
 Dipole X            :       -153.8688190          150.7519284           -3.1168906
 Dipole Y            :         -0.0000000            0.0000000           -0.0000000
 Dipole Z            :         -0.0000000            0.0000000           -0.0000000
 Magnitude           :                                                    3.1168906
  //            Monomer A HF           //
    Molecular point group: c1
  Multiplicity = 1
  Basis Set: AUG-CC-PVTZ
    Blend: AUG-CC-PVTZ
  Basis Set: (AUG-CC-PVTZ AUX)
    Blend: AUG-CC-PVTZ-JKFIT + DEF2-UNIVERSAL-JKFIT
  @DF-RHF Final Energy:    -7.23638304021232
    Total Energy =                         -7.2363830402123153
  //            Monomer B HF           //
    Molecular point group: c1

    Geometry (in Angstrom), charge = -1, multiplicity = 1:

       Center              X                  Y                   Z               Mass
    ------------   -----------------  -----------------  -----------------  -----------------
      Gh(LI)          0.000000000000     0.000000000000     0.000000000000     7.016003436600
         BR           2.279271000000     0.000000000000     0.000000000000    78.918337600000

  Charge       = -1
  Multiplicity = 1
  Basis Set: AUG-CC-PVTZ
    Blend: AUG-CC-PVTZ
  Basis Set: (AUG-CC-PVTZ AUX)
    Blend: AUG-CC-PVTZ-JKFIT + DEF2-UNIVERSAL-JKFIT

    Orbital Energies [Eh]
    ---------------------

    Doubly Occupied:

       1A   -489.721090     2A    -64.860962     3A    -58.215460
       4A    -58.215460     5A    -58.215458     6A     -9.533009
       7A     -7.140353     8A     -7.140353     9A     -7.140337
      10A     -2.882039    11A     -2.882039    12A     -2.882029
      13A     -2.882029    14A     -2.882024    15A     -0.685999
      16A     -0.139341    17A     -0.139341    18A     -0.139337

  @DF-RHF Final Energy: -2572.53368911792586

   => Energetics <=

    Nuclear Repulsion Energy =              0.0000000000000000
    One-Electron Energy =               -3593.6740615171011086
    Two-Electron Energy =                1021.1403723991750212
    Total Energy =                      -2572.5336891179258600
 Dipole X            :       -155.0597079          150.7519284           -4.3077795
 Dipole Y            :          0.0000000            0.0000000            0.0000000
 Dipole Z            :         -0.0000000            0.0000000           -0.0000000
 Magnitude           :                                                    4.3077795

    SAPT Results
  --------------------------------------------------------------------------------------------------------
    Electrostatics               -223.54538296 [mEh]    -140.27684562 [kcal/mol]    -586.91832209 [kJ/mol]
      Elst10,r                   -224.37058848 [mEh]    -140.79466991 [kcal/mol]    -589.08489889 [kJ/mol]
      Elst12,r                      0.82520552 [mEh]       0.51782428 [kcal/mol]       2.16657680 [kJ/mol]

    Exchange                       34.28638588 [mEh]      21.51503196 [kcal/mol]      90.01889373 [kJ/mol]
      Exch10                       33.48702114 [mEh]      21.01342302 [kcal/mol]      87.92016190 [kJ/mol]
      Exch10(S^2)                  33.20639765 [mEh]      20.83732911 [kcal/mol]      87.18338502 [kJ/mol]
      Exch11(S^2)                  -0.48331232 [mEh]      -0.30328306 [kcal/mol]      -1.26893633 [kJ/mol]
      Exch12(S^2)                   1.28267706 [mEh]       0.80489201 [kcal/mol]       3.36766817 [kJ/mol]

    Induction                     -40.19805318 [mEh]     -25.22465920 [kcal/mol]    -105.53997408 [kJ/mol]
      Ind20,r                     -74.16061544 [mEh]     -46.53648877 [kcal/mol]    -194.70866903 [kJ/mol]
      Ind22                        -4.95305673 [mEh]      -3.10809002 [kcal/mol]     -13.00424865 [kJ/mol]
      Exch-Ind20,r                 38.38807988 [mEh]      24.08888380 [kcal/mol]     100.78788984 [kJ/mol]
      Exch-Ind22                    2.56387216 [mEh]       1.60885407 [kcal/mol]       6.73144543 [kJ/mol]
      delta HF,r (2)               -2.03633305 [mEh]      -1.27781828 [kcal/mol]      -5.34639167 [kJ/mol]

    Dispersion                     -0.95901201 [mEh]      -0.60178912 [kcal/mol]      -2.51788567 [kJ/mol]
      Disp20                       -1.06399549 [mEh]      -0.66766725 [kcal/mol]      -2.79351976 [kJ/mol]
      Disp21                       -0.04039795 [mEh]      -0.02535010 [kcal/mol]      -0.10606481 [kJ/mol]
      Disp22 (SDQ)                 -0.00252458 [mEh]      -0.00158420 [kcal/mol]      -0.00662828 [kJ/mol]
      Disp22 (T)                   -0.05800992 [mEh]      -0.03640177 [kcal/mol]      -0.15230501 [kJ/mol]
      Est. Disp22 (T)              -0.06873946 [mEh]      -0.04313466 [kcal/mol]      -0.18047541 [kJ/mol]
      Exch-Disp20                   0.21664547 [mEh]       0.13594708 [kcal/mol]       0.56880260 [kJ/mol]

  Total HF                       -228.69243595 [mEh]    -143.50667014 [kcal/mol]    -600.43190786 [kJ/mol]
  Total SAPT0                    -229.53978596 [mEh]    -144.03839030 [kcal/mol]    -602.65662502 [kJ/mol]
  Total SAPT2                    -230.30440027 [mEh]    -144.51819302 [kcal/mol]    -604.66411961 [kJ/mol]
  Total SAPT2+                   -230.41606226 [mEh]    -144.58826198 [kcal/mol]    -604.95728812 [kJ/mol]

  Special recipe for scaled SAPT0 (see Manual):
    Electrostatics sSAPT0        -224.37058848 [mEh]    -140.79466991 [kcal/mol]    -589.08489889 [kJ/mol]
    Exchange sSAPT0                33.48702114 [mEh]      21.01342302 [kcal/mol]      87.92016190 [kJ/mol]
    Induction sSAPT0              -36.82738080 [mEh]     -23.10953034 [kcal/mol]     -96.69027496 [kJ/mol]
    Dispersion sSAPT0              -0.84181093 [mEh]      -0.52824433 [kcal/mol]      -2.21017430 [kJ/mol]
  Total sSAPT0                   -228.55275906 [mEh]    -143.41902157 [kcal/mol]    -600.06518625 [kJ/mol]
  --------------------------------------------------------------------------------------------------------

*** Psi4 exiting successfully. Buy a developer a beer!
