                               Psi4 1.9 release

  ==> Input File <==

--------------------------------------------------------------------------
MEMORY 60 GB

molecule dimer {
1 1
Na     0.000000     0.000000     0.000000
--
-1 1
F     2.036559     0.000000     0.000000

units ang
no_reorient
no_com
symmetry c1
}

set {
basis        aug-cc-pVTZ
scf_type     df
}

energy("sapt2+")
--------------------------------------------------------------------------

  //              Dimer HF             //
    Molecular point group: c1
  Charge       = 0
  Multiplicity = 1
  Basis Set: AUG-CC-PVTZ
    Blend: AUG-CC-PVTZ
  Basis Set: (AUG-CC-PVTZ AUX)
    Blend: AUG-CC-PVTZ-JKFIT + DEF2-UNIVERSAL-JKFIT
  @DF-RHF Final Energy:  -261.36868563997689
    Total Energy =                       -261.3686856399768885
 Dipole X            :        -38.1508358           34.6368487           -3.5139870
 Dipole Y            :          0.0000000            0.0000000            0.0000000
 Dipole Z            :         -0.0000000            0.0000000           -0.0000000
 Magnitude           :                                                    3.5139870
  //            Monomer A HF           //
    Molecular point group: c1
  Multiplicity = 1
  Basis Set: AUG-CC-PVTZ
    Blend: AUG-CC-PVTZ
  Basis Set: (AUG-CC-PVTZ AUX)
    Blend: AUG-CC-PVTZ-JKFIT + DEF2-UNIVERSAL-JKFIT
  @DF-RHF Final Energy:  -161.67603599992819
    Total Energy =                       -161.6760359999282173
  //            Monomer B HF           //
    Molecular point group: c1

    Geometry (in Angstrom), charge = -1, multiplicity = 1:

       Center              X                  Y                   Z               Mass
    ------------   -----------------  -----------------  -----------------  -----------------
      Gh(NA)          0.000000000000     0.000000000000     0.000000000000    22.989769282000
         F            2.036559000000     0.000000000000     0.000000000000    18.998403162730

  Charge       = -1
  Multiplicity = 1
  Basis Set: AUG-CC-PVTZ
    Blend: AUG-CC-PVTZ
  Basis Set: (AUG-CC-PVTZ AUX)
    Blend: AUG-CC-PVTZ-JKFIT + DEF2-UNIVERSAL-JKFIT

    Orbital Energies [Eh]
    ---------------------

    Doubly Occupied:

       1A    -25.833842     2A     -1.076092     3A     -0.181048
       4A     -0.181014     5A     -0.181014

  @DF-RHF Final Energy:   -99.45085727106868

   => Energetics <=

    Nuclear Repulsion Energy =              0.0000000000000000
    One-Electron Energy =                -143.9956956319153392
    Two-Electron Energy =                  44.5448383608466472
    Total Energy =                        -99.4508572710686849
 Dipole X            :        -38.4862970           34.6368487           -3.8494483
 Dipole Y            :          0.0000000            0.0000000            0.0000000
 Dipole Z            :          0.0000000            0.0000000            0.0000000
 Magnitude           :                                                    3.8494483

    SAPT Results
  --------------------------------------------------------------------------------------------------------
    Electrostatics               -267.40798158 [mEh]    -167.80104181 [kcal/mol]    -702.07955893 [kJ/mol]
      Elst10,r                   -266.74975933 [mEh]    -167.38800111 [kcal/mol]    -700.35139663 [kJ/mol]
      Elst12,r                     -0.65822225 [mEh]      -0.41304070 [kcal/mol]      -1.72816229 [kJ/mol]

    Exchange                       44.54344196 [mEh]      27.95143182 [kcal/mol]     116.94879074 [kJ/mol]
      Exch10                       36.19503437 [mEh]      22.71272697 [kcal/mol]      95.03004966 [kJ/mol]
      Exch10(S^2)                  35.88060883 [mEh]      22.51542197 [kcal/mol]      94.20452552 [kJ/mol]
      Exch11(S^2)                  -0.59148309 [mEh]      -0.37116124 [kcal/mol]      -1.55293864 [kJ/mol]
      Exch12(S^2)                   8.93989067 [mEh]       5.60986609 [kcal/mol]      23.47167972 [kJ/mol]

    Induction                     -15.68322176 [mEh]      -9.84137024 [kcal/mol]     -41.17629307 [kJ/mol]
      Ind20,r                     -65.03757938 [mEh]     -40.81169721 [kcal/mol]    -170.75614113 [kJ/mol]
      Ind22                       -20.09853768 [mEh]     -12.61202280 [kcal/mol]     -52.76870340 [kJ/mol]
      Exch-Ind20,r                 50.65197483 [mEh]      31.78459407 [kcal/mol]     132.98674159 [kJ/mol]
      Exch-Ind22                   15.65295994 [mEh]       9.82238065 [kcal/mol]      41.09684066 [kJ/mol]
      delta HF,r (2)                3.14796053 [mEh]       1.97537505 [kcal/mol]       8.26496922 [kJ/mol]

    Dispersion                     -1.18784422 [mEh]      -0.74538350 [kcal/mol]      -3.11868456 [kJ/mol]
      Disp20                       -1.20029048 [mEh]      -0.75319365 [kcal/mol]      -3.15136221 [kJ/mol]
      Disp21                       -0.05459039 [mEh]      -0.03425599 [kcal/mol]      -0.14332705 [kJ/mol]
      Disp22 (SDQ)                 -0.16023298 [mEh]      -0.10054772 [kcal/mol]      -0.42069164 [kJ/mol]
      Disp22 (T)                   -0.11830547 [mEh]      -0.07423781 [kcal/mol]      -0.31061098 [kJ/mol]
      Est. Disp22 (T)              -0.15107515 [mEh]      -0.09480109 [kcal/mol]      -0.39664776 [kJ/mol]
      Exch-Disp20                   0.37834479 [mEh]       0.23741494 [kcal/mol]       0.99334411 [kJ/mol]

  Total HF                       -241.79236898 [mEh]    -151.72700222 [kcal/mol]    -634.82577730 [kJ/mol]
  Total SAPT0                    -242.61431467 [mEh]    -152.24278093 [kcal/mol]    -636.98379540 [kJ/mol]
  Total SAPT2                    -239.36970708 [mEh]    -150.20675893 [kcal/mol]    -628.46507935 [kJ/mol]
  Total SAPT2+                   -239.73560561 [mEh]    -150.43636372 [kcal/mol]    -629.42574581 [kJ/mol]

  Special recipe for scaled SAPT0 (see Manual):
    Electrostatics sSAPT0        -266.74975933 [mEh]    -167.38800111 [kcal/mol]    -700.35139663 [kJ/mol]
    Exchange sSAPT0                36.19503437 [mEh]      22.71272697 [kcal/mol]      95.03004966 [kJ/mol]
    Induction sSAPT0               -9.89433523 [mEh]      -6.20878909 [kcal/mol]     -25.97757356 [kJ/mol]
    Dispersion sSAPT0              -0.81191184 [mEh]      -0.50948237 [kcal/mol]      -2.13167425 [kJ/mol]
  Total sSAPT0                   -241.26097203 [mEh]    -151.39354560 [kcal/mol]    -633.43059479 [kJ/mol]
  --------------------------------------------------------------------------------------------------------

*** Psi4 exiting successfully. Buy a developer a beer!
