                               Psi4 1.9 release

  ==> Input File <==

--------------------------------------------------------------------------
MEMORY 60 GB

molecule dimer {
1 1
Na     0.000000     0.000000     0.000000
--
-1 1
F     1.939580     0.000000     0.000000

units ang
no_reorient
no_com
symmetry c1
}

set {
basis        aug-cc-pVTZ
scf_type     df
}

energy("sapt2+")
--------------------------------------------------------------------------

  //              Dimer HF             //
    Molecular point group: c1
  Charge       = 0
  Multiplicity = 1
  Basis Set: AUG-CC-PVTZ
    Blend: AUG-CC-PVTZ
  Basis Set: (AUG-CC-PVTZ AUX)
    Blend: AUG-CC-PVTZ-JKFIT + DEF2-UNIVERSAL-JKFIT
  @DF-RHF Final Energy:  -261.37050845583519
    Total Energy =                       -261.3705084558351928
 Dipole X            :        -36.3329776           32.9874750           -3.3455026
 Dipole Y            :         -0.0000000            0.0000000           -0.0000000
 Dipole Z            :          0.0000000            0.0000000            0.0000000
 Magnitude           :                                                    3.3455026
  //            Monomer A HF           //
    Molecular point group: c1
  Multiplicity = 1
  Basis Set: AUG-CC-PVTZ
    Blend: AUG-CC-PVTZ
  Basis Set: (AUG-CC-PVTZ AUX)
    Blend: AUG-CC-PVTZ-JKFIT + DEF2-UNIVERSAL-JKFIT
  @DF-RHF Final Energy:  -161.67603768666331
    Total Energy =                       -161.6760376866633067
  //            Monomer B HF           //
    Molecular point group: c1

    Geometry (in Angstrom), charge = -1, multiplicity = 1:

       Center              X                  Y                   Z               Mass
    ------------   -----------------  -----------------  -----------------  -----------------
      Gh(NA)          0.000000000000     0.000000000000     0.000000000000    22.989769282000
         F            1.939580000000     0.000000000000     0.000000000000    18.998403162730

  Charge       = -1
  Multiplicity = 1
  Basis Set: AUG-CC-PVTZ
    Blend: AUG-CC-PVTZ
  Basis Set: (AUG-CC-PVTZ AUX)
    Blend: AUG-CC-PVTZ-JKFIT + DEF2-UNIVERSAL-JKFIT

    Orbital Energies [Eh]
    ---------------------

    Doubly Occupied:

       1A    -25.833849     2A     -1.076094     3A     -0.181041
       4A     -0.181020     5A     -0.181020

  @DF-RHF Final Energy:   -99.45085562405104

   => Energetics <=

    Nuclear Repulsion Energy =              0.0000000000000000
    One-Electron Energy =                -143.9956652377051114
    Two-Electron Energy =                  44.5448096136540599
    Total Energy =                        -99.4508556240510586
 Dipole X            :        -36.6535709           32.9874750           -3.6660959
 Dipole Y            :         -0.0000000            0.0000000           -0.0000000
 Dipole Z            :          0.0000000            0.0000000            0.0000000
 Magnitude           :                                                    3.6660959

    SAPT Results
  --------------------------------------------------------------------------------------------------------
    Electrostatics               -283.44894273 [mEh]    -177.86689690 [kcal/mol]    -744.19509662 [kJ/mol]
      Elst10,r                   -282.81234859 [mEh]    -177.46742804 [kcal/mol]    -742.52371892 [kJ/mol]
      Elst12,r                     -0.63659415 [mEh]      -0.39946886 [kcal/mol]      -1.67137770 [kJ/mol]

    Exchange                       61.44281145 [mEh]      38.55594628 [kcal/mol]     161.31807923 [kJ/mol]
      Exch10                       51.38505740 [mEh]      32.24461033 [kcal/mol]     134.91144960 [kJ/mol]
      Exch10(S^2)                  50.77052585 [mEh]      31.85898596 [kcal/mol]     133.29799727 [kJ/mol]
      Exch11(S^2)                  -0.90444858 [mEh]      -0.56755005 [kcal/mol]      -2.37462941 [kJ/mol]
      Exch12(S^2)                  10.96220263 [mEh]       6.87888600 [kcal/mol]      28.78125903 [kJ/mol]

    Induction                     -16.77193384 [mEh]     -10.52454738 [kcal/mol]     -44.03470623 [kJ/mol]
      Ind20,r                     -84.16596790 [mEh]     -52.81494223 [kcal/mol]    -220.97771828 [kJ/mol]
      Ind22                       -24.09899388 [mEh]     -15.12234697 [kcal/mol]     -63.27189971 [kJ/mol]
      Exch-Ind20,r                 68.15602471 [mEh]      42.76855120 [kcal/mol]     178.94361823 [kJ/mol]
      Exch-Ind22                   19.51491396 [mEh]      12.24579339 [kcal/mol]      51.23639955 [kJ/mol]
      delta HF,r (2)                3.82208926 [mEh]       2.39839722 [kcal/mol]      10.03489396 [kJ/mol]

    Dispersion                     -1.53384844 [mEh]      -0.96250443 [kcal/mol]      -4.02711853 [kJ/mol]
      Disp20                       -1.62989797 [mEh]      -1.02277642 [kcal/mol]      -4.27929652 [kJ/mol]
      Disp21                       -0.04627054 [mEh]      -0.02903520 [kcal/mol]      -0.12148329 [kJ/mol]
      Disp22 (SDQ)                 -0.20846757 [mEh]      -0.13081538 [kcal/mol]      -0.54733153 [kJ/mol]
      Disp22 (T)                   -0.15590037 [mEh]      -0.09782896 [kcal/mol]      -0.40931638 [kJ/mol]
      Est. Disp22 (T)              -0.20051280 [mEh]      -0.12582368 [kcal/mol]      -0.52644627 [kJ/mol]
      Exch-Disp20                   0.55130043 [mEh]       0.34594624 [kcal/mol]       1.44743908 [kJ/mol]

  Total HF                       -243.61514512 [mEh]    -152.87081152 [kcal/mol]    -639.61147540 [kJ/mol]
  Total SAPT0                    -244.69374266 [mEh]    -153.54764169 [kcal/mol]    -642.44333284 [kJ/mol]
  Total SAPT2                    -239.85666267 [mEh]    -150.51232817 [kcal/mol]    -629.74358107 [kJ/mol]
  Total SAPT2+                   -240.31191357 [mEh]    -150.79800243 [kcal/mol]    -630.93884216 [kJ/mol]

  Special recipe for scaled SAPT0 (see Manual):
    Electrostatics sSAPT0        -282.81234859 [mEh]    -177.46742804 [kcal/mol]    -742.52371892 [kJ/mol]
    Exchange sSAPT0                51.38505740 [mEh]      32.24461033 [kcal/mol]     134.91144960 [kJ/mol]
    Induction sSAPT0               -9.68287451 [mEh]      -6.07609549 [kcal/mol]     -25.42238351 [kJ/mol]
    Dispersion sSAPT0              -1.05833526 [mEh]      -0.66411540 [kcal/mol]      -2.77865884 [kJ/mol]
  Total sSAPT0                   -242.16850096 [mEh]    -151.96302860 [kcal/mol]    -635.81331167 [kJ/mol]
  --------------------------------------------------------------------------------------------------------

*** Psi4 exiting successfully. Buy a developer a beer!
