                               Psi4 1.9 release

  ==> Input File <==

--------------------------------------------------------------------------
MEMORY 60 GB

molecule dimer {
1 1
Na     0.000000     0.000000     0.000000
--
-1 1
F     1.551664     0.000000     0.000000

units ang
no_reorient
no_com
symmetry c1
}

set {
basis        aug-cc-pVTZ
scf_type     df
}

energy("sapt2+")
--------------------------------------------------------------------------

  //              Dimer HF             //
    Molecular point group: c1
  Charge       = 0
  Multiplicity = 1
  Basis Set: AUG-CC-PVTZ
    Blend: AUG-CC-PVTZ
  Basis Set: (AUG-CC-PVTZ AUX)
    Blend: AUG-CC-PVTZ-JKFIT + DEF2-UNIVERSAL-JKFIT
  @DF-RHF Final Energy:  -261.30933301044280
    Total Energy =                       -261.3093330104427992
 Dipole X            :        -29.1124818           26.3899800           -2.7225018
 Dipole Y            :          0.0000000            0.0000000            0.0000000
 Dipole Z            :          0.0000000            0.0000000            0.0000000
 Magnitude           :                                                    2.7225018
  //            Monomer A HF           //
    Molecular point group: c1
  Multiplicity = 1
  Basis Set: AUG-CC-PVTZ
    Blend: AUG-CC-PVTZ
  Basis Set: (AUG-CC-PVTZ AUX)
    Blend: AUG-CC-PVTZ-JKFIT + DEF2-UNIVERSAL-JKFIT
  @DF-RHF Final Energy:  -161.67605092639150
    Total Energy =                       -161.6760509263914969
  //            Monomer B HF           //
    Molecular point group: c1

    Geometry (in Angstrom), charge = -1, multiplicity = 1:

       Center              X                  Y                   Z               Mass
    ------------   -----------------  -----------------  -----------------  -----------------
      Gh(NA)          0.000000000000     0.000000000000     0.000000000000    22.989769282000
         F            1.551664000000     0.000000000000     0.000000000000    18.998403162730

  Charge       = -1
  Multiplicity = 1
  Basis Set: AUG-CC-PVTZ
    Blend: AUG-CC-PVTZ
  Basis Set: (AUG-CC-PVTZ AUX)
    Blend: AUG-CC-PVTZ-JKFIT + DEF2-UNIVERSAL-JKFIT

    Orbital Energies [Eh]
    ---------------------

    Doubly Occupied:

       1A    -25.833832     2A     -1.076090     3A     -0.181030
       4A     -0.181030     5A     -0.181016

  @DF-RHF Final Energy:   -99.45085714395829

   => Energetics <=

    Nuclear Repulsion Energy =              0.0000000000000000
    One-Electron Energy =                -143.9957194660335915
    Two-Electron Energy =                  44.5448623220753106
    Total Energy =                        -99.4508571439582738
 Dipole X            :        -29.3241547           26.3899800           -2.9341747
 Dipole Y            :          0.0000000            0.0000000            0.0000000
 Dipole Z            :          0.0000000            0.0000000            0.0000000
 Magnitude           :                                                    2.9341747

    SAPT Results
  --------------------------------------------------------------------------------------------------------
    Electrostatics               -387.18056227 [mEh]    -242.95947089 [kcal/mol]   -1016.54242620 [kJ/mol]
      Elst10,r                   -388.02613230 [mEh]    -243.49007409 [kcal/mol]   -1018.76247001 [kJ/mol]
      Elst12,r                      0.84557003 [mEh]       0.53060321 [kcal/mol]       2.22004381 [kJ/mol]

    Exchange                      240.67554967 [mEh]     151.02618753 [kcal/mol]     631.89356861 [kJ/mol]
      Exch10                      223.52261686 [mEh]     140.26255968 [kcal/mol]     586.85854971 [kJ/mol]
      Exch10(S^2)                 213.76631968 [mEh]     134.14039078 [kcal/mol]     561.24339501 [kJ/mol]
      Exch11(S^2)                  -5.01556873 [mEh]      -3.14731689 [kcal/mol]     -13.16837388 [kJ/mol]
      Exch12(S^2)                  22.16850154 [mEh]      13.91094474 [kcal/mol]      58.20339278 [kJ/mol]

    Induction                     -25.21477366 [mEh]     -15.82250935 [kcal/mol]     -66.20137913 [kJ/mol]
      Ind20,r                    -263.12785568 [mEh]    -165.11522225 [kcal/mol]    -690.84208990 [kJ/mol]
      Ind22                       -49.31182618 [mEh]     -30.94363810 [kcal/mol]    -129.46818180 [kJ/mol]
      Exch-Ind20,r                224.21055256 [mEh]     140.69424585 [kcal/mol]     588.66472465 [kJ/mol]
      Exch-Ind22                   42.01847717 [mEh]      26.36699250 [kcal/mol]     110.31949660 [kJ/mol]
      delta HF,r (2)               20.99587847 [mEh]      13.17511265 [kcal/mol]      55.12467132 [kJ/mol]

    Dispersion                     -4.78008356 [mEh]      -2.99954772 [kcal/mol]     -12.55010765 [kJ/mol]
      Disp20                       -6.62376971 [mEh]      -4.15647824 [kcal/mol]     -17.39070497 [kJ/mol]
      Disp21                        0.34006683 [mEh]       0.21339516 [kcal/mol]       0.89284533 [kJ/mol]
      Disp22 (SDQ)                 -0.73734408 [mEh]      -0.46269040 [kcal/mol]      -1.93589662 [kJ/mol]
      Disp22 (T)                   -0.58953360 [mEh]      -0.36993792 [kcal/mol]      -1.54782026 [kJ/mol]
      Est. Disp22 (T)              -0.66164581 [mEh]      -0.41518901 [kcal/mol]      -1.73715084 [kJ/mol]
      Exch-Disp20                   2.90260921 [mEh]       1.82141478 [kcal/mol]       7.62079944 [kJ/mol]

  Total HF                       -182.42494009 [mEh]    -114.47337816 [kcal/mol]    -478.95661423 [kJ/mol]
  Total SAPT0                    -186.14610059 [mEh]    -116.80844162 [kcal/mol]    -488.72651976 [kJ/mol]
  Total SAPT2                    -175.44094675 [mEh]    -110.09085618 [kcal/mol]    -460.62014224 [kJ/mol]
  Total SAPT2+                   -176.49986982 [mEh]    -110.75534043 [kcal/mol]    -463.40034436 [kJ/mol]

  Special recipe for scaled SAPT0 (see Manual):
    Electrostatics sSAPT0        -388.02613230 [mEh]    -243.49007409 [kcal/mol]   -1018.76247001 [kJ/mol]
    Exchange sSAPT0               223.52261686 [mEh]     140.26255968 [kcal/mol]     586.85854971 [kJ/mol]
    Induction sSAPT0               14.19990585 [mEh]       8.91057545 [kcal/mol]      37.28184767 [kJ/mol]
    Dispersion sSAPT0              -3.30532070 [mEh]      -2.07412005 [kcal/mol]      -8.67811830 [kJ/mol]
  Total sSAPT0                   -153.60893029 [mEh]     -96.39105902 [kcal/mol]    -403.30019092 [kJ/mol]
  --------------------------------------------------------------------------------------------------------

*** Psi4 exiting successfully. Buy a developer a beer!
