                               Psi4 1.9 release

  ==> Input File <==

--------------------------------------------------------------------------
MEMORY 60 GB

molecule dimer {
1 1
Na     0.000000     0.000000     0.000000
--
-1 1
F     2.715412     0.000000     0.000000

units ang
no_reorient
no_com
symmetry c1
}

set {
basis        aug-cc-pVTZ
scf_type     df
}

energy("sapt2+")
--------------------------------------------------------------------------

  //              Dimer HF             //
    Molecular point group: c1
  Charge       = 0
  Multiplicity = 1
  Basis Set: AUG-CC-PVTZ
    Blend: AUG-CC-PVTZ
  Basis Set: (AUG-CC-PVTZ AUX)
    Blend: AUG-CC-PVTZ-JKFIT + DEF2-UNIVERSAL-JKFIT
  @DF-RHF Final Energy:  -261.32547927755672
    Total Energy =                       -261.3254792775567239
 Dipole X            :        -50.9597548           46.1824650           -4.7772898
 Dipole Y            :          0.0000000            0.0000000            0.0000000
 Dipole Z            :          0.0000000            0.0000000            0.0000000
 Magnitude           :                                                    4.7772898
  //            Monomer A HF           //
    Molecular point group: c1
  Multiplicity = 1
  Basis Set: AUG-CC-PVTZ
    Blend: AUG-CC-PVTZ
  Basis Set: (AUG-CC-PVTZ AUX)
    Blend: AUG-CC-PVTZ-JKFIT + DEF2-UNIVERSAL-JKFIT
  @DF-RHF Final Energy:  -161.67602983460915
    Total Energy =                       -161.6760298346091815
  //            Monomer B HF           //
    Molecular point group: c1

    Geometry (in Angstrom), charge = -1, multiplicity = 1:

       Center              X                  Y                   Z               Mass
    ------------   -----------------  -----------------  -----------------  -----------------
      Gh(NA)          0.000000000000     0.000000000000     0.000000000000    22.989769282000
         F            2.715412000000     0.000000000000     0.000000000000    18.998403162730

  Charge       = -1
  Multiplicity = 1
  Basis Set: AUG-CC-PVTZ
    Blend: AUG-CC-PVTZ
  Basis Set: (AUG-CC-PVTZ AUX)
    Blend: AUG-CC-PVTZ-JKFIT + DEF2-UNIVERSAL-JKFIT

    Orbital Energies [Eh]
    ---------------------

    Doubly Occupied:

       1A    -25.833870     2A     -1.076108     3A     -0.181052
       4A     -0.181025     5A     -0.181025

  @DF-RHF Final Energy:   -99.45083205976547

   => Energetics <=

    Nuclear Repulsion Energy =              0.0000000000000000
    One-Electron Energy =                -143.9955053759778991
    Two-Electron Energy =                  44.5446733162124247
    Total Energy =                        -99.4508320597654745
 Dipole X            :        -51.3141538           46.1824650           -5.1316888
 Dipole Y            :         -0.0000000            0.0000000           -0.0000000
 Dipole Z            :          0.0000000            0.0000000            0.0000000
 Magnitude           :                                                    5.1316888

    SAPT Results
  --------------------------------------------------------------------------------------------------------
    Electrostatics               -195.77327811 [mEh]    -122.84958673 [kcal/mol]    -514.00267086 [kJ/mol]
      Elst10,r                   -195.48021760 [mEh]    -122.66568848 [kcal/mol]    -513.23324060 [kJ/mol]
      Elst12,r                     -0.29306051 [mEh]      -0.18389825 [kcal/mol]      -0.76943026 [kJ/mol]

    Exchange                        5.46923197 [mEh]       3.43199487 [kcal/mol]      14.35946655 [kJ/mol]
      Exch10                        3.62512035 [mEh]       2.27479736 [kcal/mol]       9.51775217 [kJ/mol]
      Exch10(S^2)                   3.62160511 [mEh]       2.27259152 [kcal/mol]       9.50852290 [kJ/mol]
      Exch11(S^2)                  -0.03462001 [mEh]      -0.02172438 [kcal/mol]      -0.09089481 [kJ/mol]
      Exch12(S^2)                   1.87873162 [mEh]       1.17892189 [kcal/mol]       4.93260919 [kJ/mol]

    Induction                      -9.76306803 [mEh]      -6.12641768 [kcal/mol]     -25.63293158 [kJ/mol]
      Ind20,r                     -14.14609518 [mEh]      -8.87680874 [kcal/mol]     -37.14056778 [kJ/mol]
      Ind22                        -5.79789759 [mEh]      -3.63823566 [kcal/mol]     -15.22237802 [kJ/mol]
      Exch-Ind20,r                  6.82458795 [mEh]       4.28249359 [kcal/mol]      17.91795318 [kJ/mol]
      Exch-Ind22                    2.79711549 [mEh]       1.75521647 [kcal/mol]       7.34382571 [kJ/mol]
      delta HF,r (2)                0.55922130 [mEh]       0.35091666 [kcal/mol]       1.46823532 [kJ/mol]

    Dispersion                     -0.28045372 [mEh]      -0.17598737 [kcal/mol]      -0.73633114 [kJ/mol]
      Disp20                       -0.22208503 [mEh]      -0.13936046 [kcal/mol]      -0.58308417 [kJ/mol]
      Disp21                       -0.02475740 [mEh]      -0.01553550 [kcal/mol]      -0.06500053 [kJ/mol]
      Disp22 (SDQ)                 -0.04182763 [mEh]      -0.02624723 [kcal/mol]      -0.10981842 [kJ/mol]
      Disp22 (T)                   -0.02603455 [mEh]      -0.01633693 [kcal/mol]      -0.06835370 [kJ/mol]
      Est. Disp22 (T)              -0.03138787 [mEh]      -0.01969618 [kcal/mol]      -0.08240883 [kJ/mol]
      Exch-Disp20                   0.03960420 [mEh]       0.02485201 [kcal/mol]       0.10398082 [kJ/mol]

  Total HF                       -198.61738318 [mEh]    -124.63428960 [kcal/mol]    -521.46986770 [kJ/mol]
  Total SAPT0                    -198.79986401 [mEh]    -124.74879805 [kcal/mol]    -521.94897105 [kJ/mol]
  Total SAPT2                    -200.24959500 [mEh]    -125.65851798 [kcal/mol]    -525.75523924 [kJ/mol]
  Total SAPT2+                   -200.34756789 [mEh]    -125.71999690 [kcal/mol]    -526.01246703 [kJ/mol]

  Special recipe for scaled SAPT0 (see Manual):
    Electrostatics sSAPT0        -195.48021760 [mEh]    -122.66568848 [kcal/mol]    -513.23324060 [kJ/mol]
    Exchange sSAPT0                 3.62512035 [mEh]       2.27479736 [kcal/mol]       9.51775217 [kJ/mol]
    Induction sSAPT0               -6.74239415 [mEh]      -4.23091621 [kcal/mol]     -17.70215340 [kJ/mol]
    Dispersion sSAPT0              -0.18236539 [mEh]      -0.11443601 [kcal/mol]      -0.47880027 [kJ/mol]
  Total sSAPT0                   -198.77985679 [mEh]    -124.73624333 [kcal/mol]    -521.89644210 [kJ/mol]
  --------------------------------------------------------------------------------------------------------

*** Psi4 exiting successfully. Buy a developer a beer!
