                               Psi4 1.9 release

  ==> Input File <==

--------------------------------------------------------------------------
MEMORY 60 GB

molecule dimer {
1 1
Na     0.000000     0.000000     0.000000
--
-1 1
F     2.133538     0.000000     0.000000

units ang
no_reorient
no_com
symmetry c1
}

set {
basis        aug-cc-pVTZ
scf_type     df
}

energy("sapt2+")
--------------------------------------------------------------------------

  //              Dimer HF             //
    Molecular point group: c1
  Charge       = 0
  Multiplicity = 1
  Basis Set: AUG-CC-PVTZ
    Blend: AUG-CC-PVTZ
  Basis Set: (AUG-CC-PVTZ AUX)
    Blend: AUG-CC-PVTZ-JKFIT + DEF2-UNIVERSAL-JKFIT
  @DF-RHF Final Energy:  -261.36449085619313
    Total Energy =                       -261.3644908561931288
 Dipole X            :        -39.9722285           36.2862225           -3.6860060
 Dipole Y            :         -0.0000000            0.0000000           -0.0000000
 Dipole Z            :          0.0000000            0.0000000            0.0000000
 Magnitude           :                                                    3.6860060
  //            Monomer A HF           //
    Molecular point group: c1
  Multiplicity = 1
  Basis Set: AUG-CC-PVTZ
    Blend: AUG-CC-PVTZ
  Basis Set: (AUG-CC-PVTZ AUX)
    Blend: AUG-CC-PVTZ-JKFIT + DEF2-UNIVERSAL-JKFIT
  @DF-RHF Final Energy:  -161.67603499499083
    Total Energy =                       -161.6760349949908573
  //            Monomer B HF           //
    Molecular point group: c1

    Geometry (in Angstrom), charge = -1, multiplicity = 1:

       Center              X                  Y                   Z               Mass
    ------------   -----------------  -----------------  -----------------  -----------------
      Gh(NA)          0.000000000000     0.000000000000     0.000000000000    22.989769282000
         F            2.133538000000     0.000000000000     0.000000000000    18.998403162730

  Charge       = -1
  Multiplicity = 1
  Basis Set: AUG-CC-PVTZ
    Blend: AUG-CC-PVTZ
  Basis Set: (AUG-CC-PVTZ AUX)
    Blend: AUG-CC-PVTZ-JKFIT + DEF2-UNIVERSAL-JKFIT

    Orbital Energies [Eh]
    ---------------------

    Doubly Occupied:

       1A    -25.833836     2A     -1.076090     3A     -0.181054
       4A     -0.181009     5A     -0.181009

  @DF-RHF Final Energy:   -99.45085846915931

   => Energetics <=

    Nuclear Repulsion Energy =              0.0000000000000000
    One-Electron Energy =                -143.9957184250373246
    Two-Electron Energy =                  44.5448599558780103
    Total Energy =                        -99.4508584691593143
 Dipole X            :        -40.3190683           36.2862225           -4.0328458
 Dipole Y            :         -0.0000000            0.0000000           -0.0000000
 Dipole Z            :         -0.0000000            0.0000000           -0.0000000
 Magnitude           :                                                    4.0328458

    SAPT Results
  --------------------------------------------------------------------------------------------------------
    Electrostatics               -253.45626683 [mEh]    -159.04620863 [kcal/mol]    -665.44933689 [kJ/mol]
      Elst10,r                   -252.82034090 [mEh]    -158.64715908 [kcal/mol]    -663.77971360 [kJ/mol]
      Elst12,r                     -0.63592593 [mEh]      -0.39904955 [kcal/mol]      -1.66962330 [kJ/mol]

    Exchange                       32.49347862 [mEh]      20.38996567 [kcal/mol]      85.31161637 [kJ/mol]
      Exch10                       25.63899435 [mEh]      16.08871186 [kcal/mol]      67.31517040 [kJ/mol]
      Exch10(S^2)                  25.47713780 [mEh]      15.98714534 [kcal/mol]      66.89021608 [kJ/mol]
      Exch11(S^2)                  -0.38789687 [mEh]      -0.24340896 [kcal/mol]      -1.01842309 [kJ/mol]
      Exch12(S^2)                   7.24238114 [mEh]       4.54466278 [kcal/mol]      19.01486906 [kJ/mol]

    Induction                     -14.72886659 [mEh]      -9.24250332 [kcal/mol]     -38.67063390 [kJ/mol]
      Ind20,r                     -50.82408678 [mEh]     -31.89259595 [kcal/mol]    -133.43862147 [kJ/mol]
      Ind22                       -16.77461644 [mEh]     -10.52623074 [kcal/mol]     -44.04174940 [kJ/mol]
      Exch-Ind20,r                 37.75701045 [mEh]      23.69288176 [kcal/mol]      99.13101728 [kJ/mol]
      Exch-Ind22                   12.46179535 [mEh]       7.81989464 [kcal/mol]      32.71843918 [kJ/mol]
      delta HF,r (2)                2.65103084 [mEh]       1.66354697 [kcal/mol]       6.96028052 [kJ/mol]

    Dispersion                     -0.93234996 [mEh]      -0.58505843 [kcal/mol]      -2.44788448 [kJ/mol]
      Disp20                       -0.89987101 [mEh]      -0.56467758 [kcal/mol]      -2.36261100 [kJ/mol]
      Disp21                       -0.05454507 [mEh]      -0.03422755 [kcal/mol]      -0.14320806 [kJ/mol]
      Disp22 (SDQ)                 -0.12607180 [mEh]      -0.07911125 [kcal/mol]      -0.33100147 [kJ/mol]
      Disp22 (T)                   -0.09032242 [mEh]      -0.05667817 [kcal/mol]      -0.23714147 [kJ/mol]
      Est. Disp22 (T)              -0.11552647 [mEh]      -0.07249395 [kcal/mol]      -0.30331471 [kJ/mol]
      Exch-Disp20                   0.26366439 [mEh]       0.16545190 [kcal/mol]       0.69225076 [kJ/mol]

  Total HF                       -237.59739204 [mEh]    -149.09461445 [kcal/mol]    -623.81186687 [kJ/mol]
  Total SAPT0                    -238.23359866 [mEh]    -149.49384013 [kcal/mol]    -625.48222710 [kJ/mol]
  Total SAPT2                    -236.32786141 [mEh]    -148.29797196 [kcal/mol]    -620.47871466 [kJ/mol]
  Total SAPT2+                   -236.62400476 [mEh]    -148.48380471 [kcal/mol]    -621.25623890 [kJ/mol]

  Special recipe for scaled SAPT0 (see Manual):
    Electrostatics sSAPT0        -252.82034090 [mEh]    -158.64715908 [kcal/mol]    -663.77971360 [kJ/mol]
    Exchange sSAPT0                25.63899435 [mEh]      16.08871186 [kcal/mol]      67.31517040 [kJ/mol]
    Induction sSAPT0               -9.69185193 [mEh]      -6.08172890 [kcal/mol]     -25.44595373 [kJ/mol]
    Dispersion sSAPT0              -0.63114943 [mEh]      -0.39605225 [kcal/mol]      -1.65708261 [kJ/mol]
  Total sSAPT0                   -237.50434791 [mEh]    -149.03622838 [kcal/mol]    -623.56757954 [kJ/mol]
  --------------------------------------------------------------------------------------------------------

*** Psi4 exiting successfully. Buy a developer a beer!
