                               Psi4 1.9 release

  ==> Input File <==

--------------------------------------------------------------------------
MEMORY 60 GB

molecule dimer {
1 1
Na     0.000000     0.000000     0.000000
--
-1 1
F     2.909370     0.000000     0.000000

units ang
no_reorient
no_com
symmetry c1
}

set {
basis        aug-cc-pVTZ
scf_type     df
}

energy("sapt2+")
--------------------------------------------------------------------------

  //              Dimer HF             //
    Molecular point group: c1
  Charge       = 0
  Multiplicity = 1
  Basis Set: AUG-CC-PVTZ
    Blend: AUG-CC-PVTZ
  Basis Set: (AUG-CC-PVTZ AUX)
    Blend: AUG-CC-PVTZ-JKFIT + DEF2-UNIVERSAL-JKFIT
  @DF-RHF Final Energy:  -261.31286990892852
    Total Energy =                       -261.3128699089285192
 Dipole X            :        -54.6392505           49.4812125           -5.1580380
 Dipole Y            :         -0.0000000            0.0000000           -0.0000000
 Dipole Z            :         -0.0000000            0.0000000           -0.0000000
 Magnitude           :                                                    5.1580380
  //            Monomer A HF           //
    Molecular point group: c1
  Multiplicity = 1
  Basis Set: AUG-CC-PVTZ
    Blend: AUG-CC-PVTZ
  Basis Set: (AUG-CC-PVTZ AUX)
    Blend: AUG-CC-PVTZ-JKFIT + DEF2-UNIVERSAL-JKFIT
  @DF-RHF Final Energy:  -161.67602924039721
    Total Energy =                       -161.6760292403972130
  //            Monomer B HF           //
    Molecular point group: c1

    Geometry (in Angstrom), charge = -1, multiplicity = 1:

       Center              X                  Y                   Z               Mass
    ------------   -----------------  -----------------  -----------------  -----------------
      Gh(NA)          0.000000000000     0.000000000000     0.000000000000    22.989769282000
         F            2.909370000000     0.000000000000     0.000000000000    18.998403162730

  Charge       = -1
  Multiplicity = 1
  Basis Set: AUG-CC-PVTZ
    Blend: AUG-CC-PVTZ
  Basis Set: (AUG-CC-PVTZ AUX)
    Blend: AUG-CC-PVTZ-JKFIT + DEF2-UNIVERSAL-JKFIT

    Orbital Energies [Eh]
    ---------------------

    Doubly Occupied:

       1A    -25.833877     2A     -1.076112     3A     -0.181045
       4A     -0.181031     5A     -0.181031

  @DF-RHF Final Energy:   -99.45082727852753

   => Energetics <=

    Nuclear Repulsion Energy =              0.0000000000000000
    One-Electron Energy =                -143.9954617440645279
    Two-Electron Energy =                  44.5446344655370012
    Total Energy =                        -99.4508272785275267
 Dipole X            :        -54.9790647           49.4812125           -5.4978523
 Dipole Y            :         -0.0000000            0.0000000           -0.0000000
 Dipole Z            :         -0.0000000            0.0000000           -0.0000000
 Magnitude           :                                                    5.4978523

    SAPT Results
  --------------------------------------------------------------------------------------------------------
    Electrostatics               -182.44216289 [mEh]    -114.48418563 [kcal/mol]    -479.00183268 [kJ/mol]
      Elst10,r                   -182.22416258 [mEh]    -114.34738837 [kcal/mol]    -478.42947294 [kJ/mol]
      Elst12,r                     -0.21800031 [mEh]      -0.13679726 [kcal/mol]      -0.57235974 [kJ/mol]

    Exchange                        3.12471874 [mEh]       1.96079061 [kcal/mol]       8.20394791 [kJ/mol]
      Exch10                        1.96427728 [mEh]       1.23260260 [kcal/mol]       5.15720929 [kJ/mol]
      Exch10(S^2)                   1.96322860 [mEh]       1.23194455 [kcal/mol]       5.15445598 [kJ/mol]
      Exch11(S^2)                  -0.01641307 [mEh]      -0.01029936 [kcal/mol]      -0.04309252 [kJ/mol]
      Exch12(S^2)                   1.17685453 [mEh]       0.73848737 [kcal/mol]       3.08983114 [kJ/mol]

    Induction                      -8.23369341 [mEh]      -5.16672062 [kcal/mol]     -21.61755906 [kJ/mol]
      Ind20,r                      -9.82548258 [mEh]      -6.16558340 [kcal/mol]     -25.79680096 [kJ/mol]
      Ind22                        -4.12190729 [mEh]      -2.58653587 [kcal/mol]     -10.82206610 [kJ/mol]
      Exch-Ind20,r                  3.91340130 [mEh]       2.45569639 [kcal/mol]      10.27463371 [kJ/mol]
      Exch-Ind22                    1.64171859 [mEh]       1.03019397 [kcal/mol]       4.31033155 [kJ/mol]
      delta HF,r (2)                0.15857657 [mEh]       0.09950830 [kcal/mol]       0.41634274 [kJ/mol]

    Dispersion                     -0.19359880 [mEh]      -0.12148508 [kcal/mol]      -0.50829358 [kJ/mol]
      Disp20                       -0.14709464 [mEh]      -0.09230328 [kcal/mol]      -0.38619692 [kJ/mol]
      Disp21                       -0.01734288 [mEh]      -0.01088282 [kcal/mol]      -0.04553373 [kJ/mol]
      Disp22 (SDQ)                 -0.02996456 [mEh]      -0.01880305 [kcal/mol]      -0.07867194 [kJ/mol]
      Disp22 (T)                   -0.01817175 [mEh]      -0.01140295 [kcal/mol]      -0.04770993 [kJ/mol]
      Est. Disp22 (T)              -0.02149505 [mEh]      -0.01348835 [kcal/mol]      -0.05643524 [kJ/mol]
      Exch-Disp20                   0.02229833 [mEh]       0.01399241 [kcal/mol]       0.05854426 [kJ/mol]

  Total HF                       -186.01339000 [mEh]    -116.72516448 [kcal/mol]    -488.37808817 [kJ/mol]
  Total SAPT0                    -186.13818631 [mEh]    -116.80347534 [kcal/mol]    -488.70574083 [kJ/mol]
  Total SAPT2                    -187.67593387 [mEh]    -117.76842651 [kcal/mol]    -492.74309650 [kJ/mol]
  Total SAPT2+                   -187.74473637 [mEh]    -117.81160072 [kcal/mol]    -492.92373742 [kJ/mol]

  Special recipe for scaled SAPT0 (see Manual):
    Electrostatics sSAPT0        -182.22416258 [mEh]    -114.34738837 [kcal/mol]    -478.42947294 [kJ/mol]
    Exchange sSAPT0                 1.96427728 [mEh]       1.23260260 [kcal/mol]       5.15720929 [kJ/mol]
    Induction sSAPT0               -5.74723019 [mEh]      -3.60644139 [kcal/mol]     -15.08935079 [kJ/mol]
    Dispersion sSAPT0              -0.12476056 [mEh]      -0.07828843 [kcal/mol]      -0.32755879 [kJ/mol]
  Total sSAPT0                   -186.13187605 [mEh]    -116.79951559 [kcal/mol]    -488.68917324 [kJ/mol]
  --------------------------------------------------------------------------------------------------------

*** Psi4 exiting successfully. Buy a developer a beer!
