                               Psi4 1.9 release

  ==> Input File <==

--------------------------------------------------------------------------
MEMORY 60 GB

molecule dimer {
1 1
Na     0.000000     0.000000     0.000000
--
-1 1
F     1.842601     0.000000     0.000000

units ang
no_reorient
no_com
symmetry c1
}

set {
basis        aug-cc-pVTZ
scf_type     df
}

energy("sapt2+")
--------------------------------------------------------------------------

  //              Dimer HF             //
    Molecular point group: c1
  Charge       = 0
  Multiplicity = 1
  Basis Set: AUG-CC-PVTZ
    Blend: AUG-CC-PVTZ
  Basis Set: (AUG-CC-PVTZ AUX)
    Blend: AUG-CC-PVTZ-JKFIT + DEF2-UNIVERSAL-JKFIT
  @DF-RHF Final Energy:  -261.36846656940497
    Total Energy =                       -261.3684665694049727
 Dipole X            :        -34.5193001           31.3381012           -3.1811988
 Dipole Y            :          0.0000000            0.0000000            0.0000000
 Dipole Z            :          0.0000000            0.0000000            0.0000000
 Magnitude           :                                                    3.1811988
  //            Monomer A HF           //
    Molecular point group: c1
  Multiplicity = 1
  Basis Set: AUG-CC-PVTZ
    Blend: AUG-CC-PVTZ
  Basis Set: (AUG-CC-PVTZ AUX)
    Blend: AUG-CC-PVTZ-JKFIT + DEF2-UNIVERSAL-JKFIT
  @DF-RHF Final Energy:  -161.67604029469410
    Total Energy =                       -161.6760402946941326
  //            Monomer B HF           //
    Molecular point group: c1

    Geometry (in Angstrom), charge = -1, multiplicity = 1:

       Center              X                  Y                   Z               Mass
    ------------   -----------------  -----------------  -----------------  -----------------
      Gh(NA)          0.000000000000     0.000000000000     0.000000000000    22.989769282000
         F            1.842601000000     0.000000000000     0.000000000000    18.998403162730

  Charge       = -1
  Multiplicity = 1
  Basis Set: AUG-CC-PVTZ
    Blend: AUG-CC-PVTZ
  Basis Set: (AUG-CC-PVTZ AUX)
    Blend: AUG-CC-PVTZ-JKFIT + DEF2-UNIVERSAL-JKFIT

    Orbital Energies [Eh]
    ---------------------

    Doubly Occupied:

       1A    -25.833852     2A     -1.076095     3A     -0.181035
       4A     -0.181025     5A     -0.181025

  @DF-RHF Final Energy:   -99.45085534560287

   => Energetics <=

    Nuclear Repulsion Energy =              0.0000000000000000
    One-Electron Energy =                -143.9956491738421391
    Two-Electron Energy =                  44.5447938282392641
    Total Energy =                        -99.4508553456028750
 Dipole X            :        -34.8210047           31.3381012           -3.4829034
 Dipole Y            :          0.0000000            0.0000000            0.0000000
 Dipole Z            :          0.0000000            0.0000000            0.0000000
 Magnitude           :                                                    3.4829034

    SAPT Results
  --------------------------------------------------------------------------------------------------------
    Electrostatics               -302.22214286 [mEh]    -189.64725783 [kcal/mol]    -793.48412676 [kJ/mol]
      Elst10,r                   -301.68321738 [mEh]    -189.30907699 [kcal/mol]    -792.06917811 [kJ/mol]
      Elst12,r                     -0.53892548 [mEh]      -0.33818084 [kcal/mol]      -1.41494864 [kJ/mol]

    Exchange                       85.35223067 [mEh]      53.55933335 [kcal/mol]     224.09225074 [kJ/mol]
      Exch10                       73.40836912 [mEh]      46.06444708 [kcal/mol]     192.73364658 [kJ/mol]
      Exch10(S^2)                  72.19855809 [mEh]      45.30527919 [kcal/mol]     189.55728814 [kJ/mol]
      Exch11(S^2)                  -1.38463690 [mEh]      -0.86887277 [kcal/mol]      -3.63536368 [kJ/mol]
      Exch12(S^2)                  13.32849844 [mEh]       8.36375904 [kcal/mol]      34.99396784 [kJ/mol]

    Induction                     -18.07602492 [mEh]     -11.34287689 [kcal/mol]     -47.45859689 [kJ/mol]
      Ind20,r                    -110.12834342 [mEh]     -69.10657882 [kcal/mol]    -289.14192580 [kJ/mol]
      Ind22                       -28.89238770 [mEh]     -18.13024700 [kcal/mol]     -75.85695346 [kJ/mol]
      Exch-Ind20,r                 91.90875811 [mEh]      57.67361644 [kcal/mol]     241.30641118 [kJ/mol]
      Exch-Ind22                   24.11244363 [mEh]      15.13078681 [kcal/mol]      63.30721202 [kJ/mol]
      delta HF,r (2)                4.92350445 [mEh]       3.08954569 [kcal/mol]      12.92665916 [kJ/mol]

    Dispersion                     -2.00526535 [mEh]      -1.25832300 [kcal/mol]      -5.26482344 [kJ/mol]
      Disp20                       -2.25312335 [mEh]      -1.41385625 [kcal/mol]      -5.91557455 [kJ/mol]
      Disp21                       -0.02164104 [mEh]      -0.01357996 [kcal/mol]      -0.05681854 [kJ/mol]
      Disp22 (SDQ)                 -0.27728965 [mEh]      -0.17400188 [kcal/mol]      -0.72802388 [kJ/mol]
      Disp22 (T)                   -0.20974879 [mEh]      -0.13161935 [kcal/mol]      -0.55069536 [kJ/mol]
      Est. Disp22 (T)              -0.26972536 [mEh]      -0.16925522 [kcal/mol]      -0.70816383 [kJ/mol]
      Exch-Disp20                   0.81651405 [mEh]       0.51237030 [kcal/mol]       2.14375735 [kJ/mol]

  Total HF                       -241.57092911 [mEh]    -151.58804660 [kcal/mol]    -634.24438699 [kJ/mol]
  Total SAPT0                    -243.00753841 [mEh]    -152.48953255 [kcal/mol]    -638.01620418 [kJ/mol]
  Total SAPT2                    -236.38254641 [mEh]    -148.33228731 [kcal/mol]    -620.62229010 [kJ/mol]
  Total SAPT2+                   -236.95120246 [mEh]    -148.68912437 [kcal/mol]    -622.11529635 [kJ/mol]

  Special recipe for scaled SAPT0 (see Manual):
    Electrostatics sSAPT0        -301.68321738 [mEh]    -189.30907699 [kcal/mol]    -792.06917811 [kJ/mol]
    Exchange sSAPT0                73.40836912 [mEh]      46.06444708 [kcal/mol]     192.73364658 [kJ/mol]
    Induction sSAPT0               -8.59795985 [mEh]      -5.39530126 [kcal/mol]     -22.57394047 [kJ/mol]
    Dispersion sSAPT0              -1.39487136 [mEh]      -0.87529499 [kcal/mol]      -3.66223426 [kJ/mol]
  Total sSAPT0                   -238.26767947 [mEh]    -149.51522616 [kcal/mol]    -625.57170626 [kJ/mol]
  --------------------------------------------------------------------------------------------------------

*** Psi4 exiting successfully. Buy a developer a beer!
