                               Psi4 1.9 release

  ==> Input File <==

--------------------------------------------------------------------------
MEMORY 60 GB

molecule dimer {
1 1
Na     0.000000     0.000000     0.000000
--
-1 1
F     1.745622     0.000000     0.000000

units ang
no_reorient
no_com
symmetry c1
}

set {
basis        aug-cc-pVTZ
scf_type     df
}

energy("sapt2+")
--------------------------------------------------------------------------

  //              Dimer HF             //
    Molecular point group: c1
  Charge       = 0
  Multiplicity = 1
  Basis Set: AUG-CC-PVTZ
    Blend: AUG-CC-PVTZ
  Basis Set: (AUG-CC-PVTZ AUX)
    Blend: AUG-CC-PVTZ-JKFIT + DEF2-UNIVERSAL-JKFIT
  @DF-RHF Final Energy:  -261.36027087144186
    Total Energy =                       -261.3602708714418554
 Dipole X            :        -32.7106778           29.6887275           -3.0219503
 Dipole Y            :         -0.0000000            0.0000000           -0.0000000
 Dipole Z            :         -0.0000000            0.0000000           -0.0000000
 Magnitude           :                                                    3.0219503
  //            Monomer A HF           //
    Molecular point group: c1
  Multiplicity = 1
  Basis Set: AUG-CC-PVTZ
    Blend: AUG-CC-PVTZ
  Basis Set: (AUG-CC-PVTZ AUX)
    Blend: AUG-CC-PVTZ-JKFIT + DEF2-UNIVERSAL-JKFIT
  @DF-RHF Final Energy:  -161.67604378540707
    Total Energy =                       -161.6760437854070460
  //            Monomer B HF           //
    Molecular point group: c1

    Geometry (in Angstrom), charge = -1, multiplicity = 1:

       Center              X                  Y                   Z               Mass
    ------------   -----------------  -----------------  -----------------  -----------------
      Gh(NA)          0.000000000000     0.000000000000     0.000000000000    22.989769282000
         F            1.745622000000     0.000000000000     0.000000000000    18.998403162730

  Charge       = -1
  Multiplicity = 1
  Basis Set: AUG-CC-PVTZ
    Blend: AUG-CC-PVTZ
  Basis Set: (AUG-CC-PVTZ AUX)
    Blend: AUG-CC-PVTZ-JKFIT + DEF2-UNIVERSAL-JKFIT

    Orbital Energies [Eh]
    ---------------------

    Doubly Occupied:

       1A    -25.833849     2A     -1.076094     3A     -0.181028
       4A     -0.181028     5A     -0.181028

  @DF-RHF Final Energy:   -99.45085626446500

   => Energetics <=

    Nuclear Repulsion Energy =              0.0000000000000000
    One-Electron Energy =                -143.9956573364606527
    Two-Electron Energy =                  44.5448010719956500
    Total Energy =                        -99.4508562644650027
 Dipole X            :        -32.9886257           29.6887275           -3.2998983
 Dipole Y            :         -0.0000000            0.0000000           -0.0000000
 Dipole Z            :         -0.0000000            0.0000000           -0.0000000
 Magnitude           :                                                    3.2998983

    SAPT Results
  --------------------------------------------------------------------------------------------------------
    Electrostatics               -324.69179300 [mEh]    -203.74717616 [kcal/mol]    -852.47818506 [kJ/mol]
      Elst10,r                   -324.37815462 [mEh]    -203.55036511 [kcal/mol]    -851.65472761 [kJ/mol]
      Elst12,r                     -0.31363838 [mEh]      -0.19681105 [kcal/mol]      -0.82345745 [kJ/mol]

    Exchange                      119.51783825 [mEh]      74.99857579 [kcal/mol]     313.79404110 [kJ/mol]
      Exch10                      105.60825476 [mEh]      66.27018037 [kcal/mol]     277.27443467 [kJ/mol]
      Exch10(S^2)                 103.20537436 [mEh]      64.76235016 [kcal/mol]     270.96567305 [kJ/mol]
      Exch11(S^2)                  -2.12087621 [mEh]      -1.33086991 [kcal/mol]      -5.56835971 [kJ/mol]
      Exch12(S^2)                  16.03045970 [mEh]      10.05926533 [kcal/mol]      42.08796614 [kJ/mol]

    Induction                     -19.73963142 [mEh]     -12.38680572 [kcal/mol]     -51.82639515 [kJ/mol]
      Ind20,r                    -145.65520509 [mEh]     -91.40002110 [kcal/mol]    -382.41768827 [kJ/mol]
      Ind22                       -34.59790503 [mEh]     -21.71051318 [kcal/mol]     -90.83678715 [kJ/mol]
      Exch-Ind20,r                124.02153057 [mEh]      77.82468539 [kcal/mol]     325.61848366 [kJ/mol]
      Exch-Ind22                   29.45919533 [mEh]      18.48592416 [kcal/mol]      77.34510667 [kJ/mol]
      delta HF,r (2)                7.03275280 [mEh]       4.41311901 [kcal/mol]      18.46448993 [kJ/mol]

    Dispersion                     -2.64084500 [mEh]      -1.65715526 [kcal/mol]      -6.93353760 [kJ/mol]
      Disp20                       -3.17426841 [mEh]      -1.99188350 [kcal/mol]      -8.33404057 [kJ/mol]
      Disp21                        0.03267878 [mEh]       0.02050624 [kcal/mol]       0.08579812 [kJ/mol]
      Disp22 (SDQ)                 -0.37718525 [mEh]      -0.23668732 [kcal/mol]      -0.99029973 [kJ/mol]
      Disp22 (T)                   -0.30212281 [mEh]      -0.18958493 [kcal/mol]      -0.79322334 [kJ/mol]
      Est. Disp22 (T)              -0.35172721 [mEh]      -0.22071216 [kcal/mol]      -0.92345966 [kJ/mol]
      Exch-Disp20                   1.22965709 [mEh]       0.77162147 [kcal/mol]       3.22846424 [kJ/mol]

  Total HF                       -233.37082157 [mEh]    -146.44240144 [kcal/mol]    -612.71500762 [kJ/mol]
  Total SAPT0                    -235.31543289 [mEh]    -147.66266347 [kcal/mol]    -617.82058394 [kJ/mol]
  Total SAPT2                    -226.85819749 [mEh]    -142.35566813 [kcal/mol]    -595.61611544 [kJ/mol]
  Total SAPT2+                   -227.55443116 [mEh]    -142.79256136 [kcal/mol]    -597.44407671 [kJ/mol]

  Special recipe for scaled SAPT0 (see Manual):
    Electrostatics sSAPT0        -324.37815462 [mEh]    -203.55036511 [kcal/mol]    -851.65472761 [kJ/mol]
    Exchange sSAPT0               105.60825476 [mEh]      66.27018037 [kcal/mol]     277.27443467 [kJ/mol]
    Induction sSAPT0               -5.73507096 [mEh]      -3.59881136 [kcal/mol]     -15.05742674 [kJ/mol]
    Dispersion sSAPT0              -1.85670758 [mEh]      -1.16510160 [kcal/mol]      -4.87478509 [kJ/mol]
  Total sSAPT0                   -226.36167841 [mEh]    -142.04409770 [kcal/mol]    -594.31250478 [kJ/mol]
  --------------------------------------------------------------------------------------------------------

*** Psi4 exiting successfully. Buy a developer a beer!
