                               Psi4 1.9 release

  ==> Input File <==

--------------------------------------------------------------------------
MEMORY 60 GB

molecule dimer {
1 1
Na     0.000000     0.000000     0.000000
--
-1 1
F     3.879160     0.000000     0.000000

units ang
no_reorient
no_com
symmetry c1
}

set {
basis        aug-cc-pVTZ
scf_type     df
}

energy("sapt2+")
--------------------------------------------------------------------------

  //              Dimer HF             //
    Molecular point group: c1
  Charge       = 0
  Multiplicity = 1
  Basis Set: AUG-CC-PVTZ
    Blend: AUG-CC-PVTZ
  Basis Set: (AUG-CC-PVTZ AUX)
    Blend: AUG-CC-PVTZ-JKFIT + DEF2-UNIVERSAL-JKFIT
  @DF-RHF Final Energy:  -261.26541974783436
    Total Energy =                       -261.2654197478343576
 Dipole X            :        -73.0776541           65.9749500           -7.1027042
 Dipole Y            :          0.0000000            0.0000000            0.0000000
 Dipole Z            :         -0.0000000            0.0000000           -0.0000000
 Magnitude           :                                                    7.1027042
  //            Monomer A HF           //
    Molecular point group: c1
  Multiplicity = 1
  Basis Set: AUG-CC-PVTZ
    Blend: AUG-CC-PVTZ
  Basis Set: (AUG-CC-PVTZ AUX)
    Blend: AUG-CC-PVTZ-JKFIT + DEF2-UNIVERSAL-JKFIT
  @DF-RHF Final Energy:  -161.67602456235724
    Total Energy =                       -161.6760245623572416
  //            Monomer B HF           //
    Molecular point group: c1

    Geometry (in Angstrom), charge = -1, multiplicity = 1:

       Center              X                  Y                   Z               Mass
    ------------   -----------------  -----------------  -----------------  -----------------
      Gh(NA)          0.000000000000     0.000000000000     0.000000000000    22.989769282000
         F            3.879160000000     0.000000000000     0.000000000000    18.998403162730

  Charge       = -1
  Multiplicity = 1
  Basis Set: AUG-CC-PVTZ
    Blend: AUG-CC-PVTZ
  Basis Set: (AUG-CC-PVTZ AUX)
    Blend: AUG-CC-PVTZ-JKFIT + DEF2-UNIVERSAL-JKFIT

    Orbital Energies [Eh]
    ---------------------

    Doubly Occupied:

       1A    -25.833853     2A     -1.076110     3A     -0.181037
       4A     -0.181029     5A     -0.181029

  @DF-RHF Final Energy:   -99.45082109969961

   => Energetics <=

    Nuclear Repulsion Energy =              0.0000000000000000
    One-Electron Energy =                -143.9955235241606033
    Two-Electron Energy =                  44.5447024244610006
    Total Energy =                        -99.4508210996995956
 Dipole X            :        -73.3055498           65.9749500           -7.3305998
 Dipole Y            :          0.0000000            0.0000000            0.0000000
 Dipole Z            :         -0.0000000            0.0000000           -0.0000000
 Magnitude           :                                                    7.3305998

    SAPT Results
  --------------------------------------------------------------------------------------------------------
    Electrostatics               -136.52211204 [mEh]     -85.66891868 [kcal/mol]    -358.43875577 [kJ/mol]
      Elst10,r                   -136.42926661 [mEh]     -85.61065730 [kcal/mol]    -358.19499013 [kJ/mol]
      Elst12,r                     -0.09284543 [mEh]      -0.05826139 [kcal/mol]      -0.24376564 [kJ/mol]

    Exchange                        0.22203295 [mEh]       0.13932778 [kcal/mol]       0.58294744 [kJ/mol]
      Exch10                        0.11251555 [mEh]       0.07060457 [kcal/mol]       0.29540954 [kJ/mol]
      Exch10(S^2)                   0.11251190 [mEh]       0.07060228 [kcal/mol]       0.29539996 [kJ/mol]
      Exch11(S^2)                  -0.00062132 [mEh]      -0.00038989 [kcal/mol]      -0.00163128 [kJ/mol]
      Exch12(S^2)                   0.11013873 [mEh]       0.06911309 [kcal/mol]       0.28916919 [kJ/mol]

    Induction                      -3.04675683 [mEh]      -1.91186878 [kcal/mol]      -7.99925896 [kJ/mol]
      Ind20,r                      -2.25178580 [mEh]      -1.41301692 [kcal/mol]      -5.91206281 [kJ/mol]
      Ind22                        -0.89894562 [mEh]      -0.56409689 [kcal/mol]      -2.36018141 [kJ/mol]
      Exch-Ind20,r                  0.27434749 [mEh]       0.17215565 [kcal/mol]       0.72029925 [kJ/mol]
      Exch-Ind22                    0.10952351 [mEh]       0.06872704 [kcal/mol]       0.28755393 [kJ/mol]
      delta HF,r (2)               -0.27989641 [mEh]      -0.17563765 [kcal/mol]      -0.73486793 [kJ/mol]

    Dispersion                     -0.03274365 [mEh]      -0.02054695 [kcal/mol]      -0.08596845 [kJ/mol]
      Disp20                       -0.02231545 [mEh]      -0.01400316 [kcal/mol]      -0.05858920 [kJ/mol]
      Disp21                       -0.00274055 [mEh]      -0.00171972 [kcal/mol]      -0.00719532 [kJ/mol]
      Disp22 (SDQ)                 -0.00560267 [mEh]      -0.00351573 [kcal/mol]      -0.01470980 [kJ/mol]
      Disp22 (T)                   -0.00288080 [mEh]      -0.00180773 [kcal/mol]      -0.00756353 [kJ/mol]
      Est. Disp22 (T)              -0.00343284 [mEh]      -0.00215414 [kcal/mol]      -0.00901293 [kJ/mol]
      Exch-Disp20                   0.00134786 [mEh]       0.00084579 [kcal/mol]       0.00353881 [kJ/mol]

  Total HF                       -138.57408578 [mEh]     -86.95655165 [kcal/mol]    -363.82621208 [kJ/mol]
  Total SAPT0                    -138.59505337 [mEh]     -86.96970901 [kcal/mol]    -363.88126248 [kJ/mol]
  Total SAPT2                    -139.36780350 [mEh]     -87.45461704 [kcal/mol]    -365.91011769 [kJ/mol]
  Total SAPT2+                   -139.37957957 [mEh]     -87.46200663 [kcal/mol]    -365.94103574 [kJ/mol]

  Special recipe for scaled SAPT0 (see Manual):
    Electrostatics sSAPT0        -136.42926661 [mEh]     -85.61065730 [kcal/mol]    -358.19499013 [kJ/mol]
    Exchange sSAPT0                 0.11251555 [mEh]       0.07060457 [kcal/mol]       0.29540954 [kJ/mol]
    Induction sSAPT0               -2.25730802 [mEh]      -1.41648217 [kcal/mol]      -5.92656140 [kJ/mol]
    Dispersion sSAPT0              -0.02096746 [mEh]      -0.01315728 [kcal/mol]      -0.05505006 [kJ/mol]
  Total sSAPT0                   -138.59502654 [mEh]     -86.96969217 [kcal/mol]    -363.88119205 [kJ/mol]
  --------------------------------------------------------------------------------------------------------

*** Psi4 exiting successfully. Buy a developer a beer!
