                               Psi4 1.9 release

  ==> Input File <==

--------------------------------------------------------------------------
MEMORY 60 GB

molecule dimer {
1 1
Na     0.000000     0.000000     0.000000
--
-1 1
F     2.521454     0.000000     0.000000

units ang
no_reorient
no_com
symmetry c1
}

set {
basis        aug-cc-pVTZ
scf_type     df
}

energy("sapt2+")
--------------------------------------------------------------------------

  //              Dimer HF             //
    Molecular point group: c1
  Charge       = 0
  Multiplicity = 1
  Basis Set: AUG-CC-PVTZ
    Blend: AUG-CC-PVTZ
  Basis Set: (AUG-CC-PVTZ AUX)
    Blend: AUG-CC-PVTZ-JKFIT + DEF2-UNIVERSAL-JKFIT
  @DF-RHF Final Energy:  -261.33893084988563
    Total Energy =                       -261.3389308498856280
 Dipole X            :        -47.2873734           42.8837175           -4.4036559
 Dipole Y            :          0.0000000            0.0000000            0.0000000
 Dipole Z            :         -0.0000000            0.0000000           -0.0000000
 Magnitude           :                                                    4.4036559
  //            Monomer A HF           //
    Molecular point group: c1
  Multiplicity = 1
  Basis Set: AUG-CC-PVTZ
    Blend: AUG-CC-PVTZ
  Basis Set: (AUG-CC-PVTZ AUX)
    Blend: AUG-CC-PVTZ-JKFIT + DEF2-UNIVERSAL-JKFIT
  @DF-RHF Final Energy:  -161.67603173303095
    Total Energy =                       -161.6760317330309533
  //            Monomer B HF           //
    Molecular point group: c1

    Geometry (in Angstrom), charge = -1, multiplicity = 1:

       Center              X                  Y                   Z               Mass
    ------------   -----------------  -----------------  -----------------  -----------------
      Gh(NA)          0.000000000000     0.000000000000     0.000000000000    22.989769282000
         F            2.521454000000     0.000000000000     0.000000000000    18.998403162730

  Charge       = -1
  Multiplicity = 1
  Basis Set: AUG-CC-PVTZ
    Blend: AUG-CC-PVTZ
  Basis Set: (AUG-CC-PVTZ AUX)
    Blend: AUG-CC-PVTZ-JKFIT + DEF2-UNIVERSAL-JKFIT

    Orbital Energies [Eh]
    ---------------------

    Doubly Occupied:

       1A    -25.833855     2A     -1.076101     3A     -0.181059
       4A     -0.181015     5A     -0.181015

  @DF-RHF Final Energy:   -99.45084162889111

   => Energetics <=

    Nuclear Repulsion Energy =              0.0000000000000000
    One-Electron Energy =                -143.9955923696446405
    Two-Electron Energy =                  44.5447507407535355
    Total Energy =                        -99.4508416288911121
 Dipole X            :        -47.6493082           42.8837175           -4.7655907
 Dipole Y            :          0.0000000            0.0000000            0.0000000
 Dipole Z            :         -0.0000000            0.0000000           -0.0000000
 Magnitude           :                                                    4.7655907

    SAPT Results
  --------------------------------------------------------------------------------------------------------
    Electrostatics               -211.41678863 [mEh]    -132.66603778 [kcal/mol]    -555.07470209 [kJ/mol]
      Elst10,r                   -211.01722257 [mEh]    -132.41530629 [kcal/mol]    -554.02564152 [kJ/mol]
      Elst12,r                     -0.39956607 [mEh]      -0.25073149 [kcal/mol]      -1.04906056 [kJ/mol]

    Exchange                        9.71875594 [mEh]       6.09861143 [kcal/mol]      25.51659021 [kJ/mol]
      Exch10                        6.81429058 [mEh]       4.27603190 [kcal/mol]      17.89091746 [kJ/mol]
      Exch10(S^2)                   6.80210293 [mEh]       4.26838403 [kcal/mol]      17.85891878 [kJ/mol]
      Exch11(S^2)                  -0.07546010 [mEh]      -0.04735193 [kcal/mol]      -0.19812047 [kJ/mol]
      Exch12(S^2)                   2.97992546 [mEh]       1.86993146 [kcal/mol]       7.82379322 [kJ/mol]

    Induction                     -11.37609671 [mEh]      -7.13860846 [kcal/mol]     -29.86793780 [kJ/mol]
      Ind20,r                     -20.95712869 [mEh]     -13.15079680 [kcal/mol]     -55.02293379 [kJ/mol]
      Ind22                        -8.21968288 [mEh]      -5.15792888 [kcal/mol]     -21.58077444 [kJ/mol]
      Exch-Ind20,r                 11.97851195 [mEh]       7.51662973 [kcal/mol]      31.44957879 [kJ/mol]
      Exch-Ind22                    4.69814215 [mEh]       2.94812871 [kcal/mol]      12.33497052 [kJ/mol]
      delta HF,r (2)                1.12406076 [mEh]       0.70535877 [kcal/mol]       2.95122111 [kJ/mol]

    Dispersion                     -0.40696071 [mEh]      -0.25537170 [kcal/mol]      -1.06847520 [kJ/mol]
      Disp20                       -0.33957692 [mEh]      -0.21308773 [kcal/mol]      -0.89155908 [kJ/mol]
      Disp21                       -0.03433174 [mEh]      -0.02154349 [kcal/mol]      -0.09013796 [kJ/mol]
      Disp22 (SDQ)                 -0.05848270 [mEh]      -0.03669845 [kcal/mol]      -0.15354631 [kJ/mol]
      Disp22 (T)                   -0.03699743 [mEh]      -0.02321624 [kcal/mol]      -0.09713674 [kJ/mol]
      Est. Disp22 (T)              -0.04617023 [mEh]      -0.02897225 [kcal/mol]      -0.12121991 [kJ/mol]
      Exch-Disp20                   0.07160088 [mEh]       0.04493023 [kcal/mol]       0.18798807 [kJ/mol]

  Total HF                       -212.05748796 [mEh]    -133.06808268 [kcal/mol]    -556.75685794 [kJ/mol]
  Total SAPT0                    -212.32546401 [mEh]    -133.23624019 [kcal/mol]    -557.46042896 [kJ/mol]
  Total SAPT2                    -213.34210545 [mEh]    -133.87419232 [kcal/mol]    -560.12962068 [kJ/mol]
  Total SAPT2+                   -213.48109011 [mEh]    -133.96140652 [kcal/mol]    -560.49452487 [kJ/mol]

  Special recipe for scaled SAPT0 (see Manual):
    Electrostatics sSAPT0        -211.01722257 [mEh]    -132.41530629 [kcal/mol]    -554.02564152 [kJ/mol]
    Exchange sSAPT0                 6.81429058 [mEh]       4.27603190 [kcal/mol]      17.89091746 [kJ/mol]
    Induction sSAPT0               -7.79005312 [mEh]      -4.88833213 [kcal/mol]     -20.45278164 [kJ/mol]
    Dispersion sSAPT0              -0.26759048 [mEh]      -0.16791556 [kcal/mol]      -0.70255872 [kJ/mol]
  Total sSAPT0                   -212.26057558 [mEh]    -133.19552209 [kcal/mol]    -557.29006442 [kJ/mol]
  --------------------------------------------------------------------------------------------------------

*** Psi4 exiting successfully. Buy a developer a beer!
