                               Psi4 1.9 release

  ==> Input File <==

--------------------------------------------------------------------------
MEMORY 60 GB

molecule dimer {
1 1
Na     0.000000     0.000000     0.000000
--
-1 1
F     2.327496     0.000000     0.000000

units ang
no_reorient
no_com
symmetry c1
}

set {
basis        aug-cc-pVTZ
scf_type     df
}

energy("sapt2+")
--------------------------------------------------------------------------

  //              Dimer HF             //
    Molecular point group: c1
  Charge       = 0
  Multiplicity = 1
  Basis Set: AUG-CC-PVTZ
    Blend: AUG-CC-PVTZ
  Basis Set: (AUG-CC-PVTZ AUX)
    Blend: AUG-CC-PVTZ-JKFIT + DEF2-UNIVERSAL-JKFIT
  @DF-RHF Final Energy:  -261.35252591668325
    Total Energy =                       -261.3525259166832484
 Dipole X            :        -43.6242677           39.5849700           -4.0392977
 Dipole Y            :         -0.0000000            0.0000000           -0.0000000
 Dipole Z            :          0.0000000            0.0000000            0.0000000
 Magnitude           :                                                    4.0392977
  //            Monomer A HF           //
    Molecular point group: c1
  Multiplicity = 1
  Basis Set: AUG-CC-PVTZ
    Blend: AUG-CC-PVTZ
  Basis Set: (AUG-CC-PVTZ AUX)
    Blend: AUG-CC-PVTZ-JKFIT + DEF2-UNIVERSAL-JKFIT
  @DF-RHF Final Energy:  -161.67603377257737
    Total Energy =                       -161.6760337725773979
  //            Monomer B HF           //
    Molecular point group: c1

    Geometry (in Angstrom), charge = -1, multiplicity = 1:

       Center              X                  Y                   Z               Mass
    ------------   -----------------  -----------------  -----------------  -----------------
      Gh(NA)          0.000000000000     0.000000000000     0.000000000000    22.989769282000
         F            2.327496000000     0.000000000000     0.000000000000    18.998403162730

  Charge       = -1
  Multiplicity = 1
  Basis Set: AUG-CC-PVTZ
    Blend: AUG-CC-PVTZ
  Basis Set: (AUG-CC-PVTZ AUX)
    Blend: AUG-CC-PVTZ-JKFIT + DEF2-UNIVERSAL-JKFIT

    Orbital Energies [Eh]
    ---------------------

    Doubly Occupied:

       1A    -25.833839     2A     -1.076093     3A     -0.181062
       4A     -0.181008     5A     -0.181008

  @DF-RHF Final Energy:   -99.45085333404921

   => Energetics <=

    Nuclear Repulsion Energy =              0.0000000000000000
    One-Electron Energy =                -143.9956890372839666
    Two-Electron Energy =                  44.5448357032347531
    Total Energy =                        -99.4508533340492136
 Dipole X            :        -43.9843638           39.5849700           -4.3993938
 Dipole Y            :         -0.0000000            0.0000000           -0.0000000
 Dipole Z            :          0.0000000            0.0000000            0.0000000
 Magnitude           :                                                    4.3993938

    SAPT Results
  --------------------------------------------------------------------------------------------------------
    Electrostatics               -230.20063113 [mEh]    -144.45307690 [kcal/mol]    -604.39167375 [kJ/mol]
      Elst10,r                   -229.67281144 [mEh]    -144.12186505 [kcal/mol]    -603.00588337 [kJ/mol]
      Elst12,r                     -0.52781968 [mEh]      -0.33121185 [kcal/mol]      -1.38579038 [kJ/mol]

    Exchange                       17.58736657 [mEh]      11.03623914 [kcal/mol]      46.17562458 [kJ/mol]
      Exch10                       13.07481887 [mEh]       8.20457271 [kcal/mol]      34.32793222 [kJ/mol]
      Exch10(S^2)                  13.03109363 [mEh]       8.17713471 [kcal/mol]      34.21313161 [kJ/mol]
      Exch11(S^2)                  -0.16914165 [mEh]      -0.10613799 [kcal/mol]      -0.44408133 [kJ/mol]
      Exch12(S^2)                   4.68168935 [mEh]       2.93780442 [kcal/mol]      12.29177369 [kJ/mol]

    Induction                     -13.01813154 [mEh]      -8.16900087 [kcal/mol]     -34.17909965 [kJ/mol]
      Ind20,r                     -32.04189611 [mEh]     -20.10659337 [kcal/mol]     -84.12598666 [kJ/mol]
      Ind22                       -11.72112234 [mEh]      -7.35511531 [kcal/mol]     -30.77380246 [kJ/mol]
      Exch-Ind20,r                 21.16915885 [mEh]      13.28384773 [kcal/mol]      55.57961889 [kJ/mol]
      Exch-Ind22                    7.74380829 [mEh]       4.85931306 [kcal/mol]      20.33136586 [kJ/mol]
      delta HF,r (2)                1.83191978 [mEh]       1.14954702 [kcal/mol]       4.80970473 [kJ/mol]

    Dispersion                     -0.60278370 [mEh]      -0.37825248 [kcal/mol]      -1.58260839 [kJ/mol]
      Disp20                       -0.53567111 [mEh]      -0.33613870 [kcal/mol]      -1.40640431 [kJ/mol]
      Disp21                       -0.04540368 [mEh]      -0.02849124 [kcal/mol]      -0.11920733 [kJ/mol]
      Disp22 (SDQ)                 -0.08343649 [mEh]      -0.05235719 [kcal/mol]      -0.21906248 [kJ/mol]
      Disp22 (T)                   -0.05805487 [mEh]      -0.03642998 [kcal/mol]      -0.15242304 [kJ/mol]
      Est. Disp22 (T)              -0.07215590 [mEh]      -0.04527851 [kcal/mol]      -0.18944529 [kJ/mol]
      Exch-Disp20                   0.13388347 [mEh]       0.08401315 [kcal/mol]       0.35151101 [kJ/mol]

  Total HF                       -225.63881006 [mEh]    -141.59049096 [kcal/mol]    -592.41461419 [kJ/mol]
  Total SAPT0                    -226.04059769 [mEh]    -141.84261651 [kcal/mol]    -593.46950749 [kJ/mol]
  Total SAPT2                    -226.03318373 [mEh]    -141.83796418 [kcal/mol]    -593.45004212 [kJ/mol]
  Total SAPT2+                   -226.23417979 [mEh]    -141.96409111 [kcal/mol]    -593.97775722 [kJ/mol]

  Special recipe for scaled SAPT0 (see Manual):
    Electrostatics sSAPT0        -229.67281144 [mEh]    -144.12186505 [kcal/mol]    -603.00588337 [kJ/mol]
    Exchange sSAPT0                13.07481887 [mEh]       8.20457271 [kcal/mol]      34.32793222 [kJ/mol]
    Induction sSAPT0               -8.82700519 [mEh]      -5.53902938 [kcal/mol]     -23.17529894 [kJ/mol]
    Dispersion sSAPT0              -0.40043539 [mEh]      -0.25127700 [kcal/mol]      -1.05134297 [kJ/mol]
  Total sSAPT0                   -225.82543315 [mEh]    -141.70759872 [kcal/mol]    -592.90459306 [kJ/mol]
  --------------------------------------------------------------------------------------------------------

*** Psi4 exiting successfully. Buy a developer a beer!
