                               Psi4 1.9 release

  ==> Input File <==

--------------------------------------------------------------------------
MEMORY 60 GB

molecule dimer {
1 1
Na     0.000000     0.000000     0.000000
--
-1 1
Cl     2.488608     0.000000     0.000000

units ang
no_reorient
no_com
symmetry c1
}

set {
basis        aug-cc-pVTZ
scf_type     df
}

energy("sapt2+")
--------------------------------------------------------------------------

  //              Dimer HF             //
    Molecular point group: c1
  Charge       = 0
  Multiplicity = 1
  Basis Set: AUG-CC-PVTZ
    Blend: AUG-CC-PVTZ
  Basis Set: (AUG-CC-PVTZ AUX)
    Blend: AUG-CC-PVTZ-JKFIT + DEF2-UNIVERSAL-JKFIT
  @DF-RHF Final Energy:  -621.45404361852661
    Total Energy =                       -621.4540436185266117
 Dipole X            :        -83.8363394           79.9473884           -3.8889510
 Dipole Y            :         -0.0000000            0.0000000           -0.0000000
 Dipole Z            :          0.0000000            0.0000000            0.0000000
 Magnitude           :                                                    3.8889510
  //            Monomer A HF           //
    Molecular point group: c1
  Multiplicity = 1
  Basis Set: AUG-CC-PVTZ
    Blend: AUG-CC-PVTZ
  Basis Set: (AUG-CC-PVTZ AUX)
    Blend: AUG-CC-PVTZ-JKFIT + DEF2-UNIVERSAL-JKFIT
  @DF-RHF Final Energy:  -161.67603587828245
    Total Energy =                       -161.6760358782824483
  //            Monomer B HF           //
    Molecular point group: c1

    Geometry (in Angstrom), charge = -1, multiplicity = 1:

       Center              X                  Y                   Z               Mass
    ------------   -----------------  -----------------  -----------------  -----------------
      Gh(NA)          0.000000000000     0.000000000000     0.000000000000    22.989769282000
         CL           2.488608000000     0.000000000000     0.000000000000    34.968852682000

  Charge       = -1
  Multiplicity = 1
  Basis Set: AUG-CC-PVTZ
    Blend: AUG-CC-PVTZ
  Basis Set: (AUG-CC-PVTZ AUX)
    Blend: AUG-CC-PVTZ-JKFIT + DEF2-UNIVERSAL-JKFIT

    Orbital Energies [Eh]
    ---------------------

    Doubly Occupied:

       1A   -104.506408     2A    -10.229847     3A     -7.695902
       4A     -7.695902     5A     -7.695881     6A     -0.733497
       7A     -0.150337     8A     -0.150322     9A     -0.150322

  @DF-RHF Final Energy:  -459.57350492923291

   => Energetics <=

    Nuclear Repulsion Energy =              0.0000000000000000
    One-Electron Energy =                -641.1301701645327284
    Two-Electron Energy =                 181.5566652352998460
    Total Energy =                       -459.5735049292328540
 Dipole X            :        -84.6503686           79.9473884           -4.7029802
 Dipole Y            :          0.0000000            0.0000000            0.0000000
 Dipole Z            :         -0.0000000            0.0000000           -0.0000000
 Magnitude           :                                                    4.7029802

    SAPT Results
  --------------------------------------------------------------------------------------------------------
    Electrostatics               -217.62523252 [mEh]    -136.56189514 [kcal/mol]    -571.37496926 [kJ/mol]
      Elst10,r                   -217.49137982 [mEh]    -136.47790130 [kcal/mol]    -571.02353903 [kJ/mol]
      Elst12,r                     -0.13385270 [mEh]      -0.08399384 [kcal/mol]      -0.35143022 [kJ/mol]

    Exchange                       32.44461897 [mEh]      20.35930577 [kcal/mol]      85.18333536 [kJ/mol]
      Exch10                       30.93916312 [mEh]      19.41461797 [kcal/mol]      81.23076158 [kJ/mol]
      Exch10(S^2)                  30.70011192 [mEh]      19.26461108 [kcal/mol]      80.60313274 [kJ/mol]
      Exch11(S^2)                  -0.46578776 [mEh]      -0.29228623 [kcal/mol]      -1.22292560 [kJ/mol]
      Exch12(S^2)                   1.97124361 [mEh]       1.23697404 [kcal/mol]       5.17549938 [kJ/mol]

    Induction                     -20.00433679 [mEh]     -12.55291085 [kcal/mol]     -52.52137900 [kJ/mol]
      Ind20,r                     -77.46826311 [mEh]     -48.61206902 [kcal/mol]    -203.39289677 [kJ/mol]
      Ind22                        -7.04496782 [mEh]      -4.42078405 [kcal/mol]     -18.49656046 [kJ/mol]
      Exch-Ind20,r                 54.88478707 [mEh]      34.44072385 [kcal/mol]     144.09998860 [kJ/mol]
      Exch-Ind22                    4.99122535 [mEh]       3.13204119 [kcal/mol]      13.10446035 [kJ/mol]
      delta HF,r (2)                4.63288172 [mEh]       2.90717717 [kcal/mol]      12.16362929 [kJ/mol]

    Dispersion                     -0.93191864 [mEh]      -0.58478778 [kcal/mol]      -2.44675206 [kJ/mol]
      Disp20                       -1.07814765 [mEh]      -0.67654786 [kcal/mol]      -2.83067627 [kJ/mol]
      Disp21                       -0.02102223 [mEh]      -0.01319165 [kcal/mol]      -0.05519386 [kJ/mol]
      Disp22 (SDQ)                 -0.03887601 [mEh]      -0.02439507 [kcal/mol]      -0.10206896 [kJ/mol]
      Disp22 (T)                   -0.08246585 [mEh]      -0.05174810 [kcal/mol]      -0.21651407 [kJ/mol]
      Est. Disp22 (T)              -0.10008359 [mEh]      -0.06280340 [kcal/mol]      -0.26276943 [kJ/mol]
      Exch-Disp20                   0.30621084 [mEh]       0.19215020 [kcal/mol]       0.80395646 [kJ/mol]

  Total HF                       -204.50281101 [mEh]    -128.32745132 [kcal/mol]    -536.92205634 [kJ/mol]
  Total SAPT0                    -205.27474782 [mEh]    -128.81184898 [kcal/mol]    -538.94877615 [kJ/mol]
  Total SAPT2                    -205.95688715 [mEh]    -129.23989787 [kcal/mol]    -540.73973270 [kJ/mol]
  Total SAPT2+                   -206.11686898 [mEh]    -129.34028799 [kcal/mol]    -541.15976495 [kJ/mol]

  Special recipe for scaled SAPT0 (see Manual):
    Electrostatics sSAPT0        -217.49137982 [mEh]    -136.47790130 [kcal/mol]    -571.02353903 [kJ/mol]
    Exchange sSAPT0                30.93916312 [mEh]      19.41461797 [kcal/mol]      81.23076158 [kJ/mol]
    Induction sSAPT0              -16.65847826 [mEh]     -10.45335293 [kcal/mol]     -43.73682864 [kJ/mol]
    Dispersion sSAPT0              -0.76472789 [mEh]      -0.47987400 [kcal/mol]      -2.00779280 [kJ/mol]
  Total sSAPT0                   -203.97542284 [mEh]    -127.99651025 [kcal/mol]    -535.53739889 [kJ/mol]
  --------------------------------------------------------------------------------------------------------

*** Psi4 exiting successfully. Buy a developer a beer!
