                               Psi4 1.9 release

  ==> Input File <==

--------------------------------------------------------------------------
MEMORY 60 GB

molecule dimer {
1 1
Na     0.000000     0.000000     0.000000
--
-1 1
Cl     2.844124     0.000000     0.000000

units ang
no_reorient
no_com
symmetry c1
}

set {
basis        aug-cc-pVTZ
scf_type     df
}

energy("sapt2+")
--------------------------------------------------------------------------

  //              Dimer HF             //
    Molecular point group: c1
  Charge       = 0
  Multiplicity = 1
  Basis Set: AUG-CC-PVTZ
    Blend: AUG-CC-PVTZ
  Basis Set: (AUG-CC-PVTZ AUX)
    Blend: AUG-CC-PVTZ-JKFIT + DEF2-UNIVERSAL-JKFIT
  @DF-RHF Final Energy:  -621.44094779116574
    Total Energy =                       -621.4409477911656268
 Dipole X            :        -95.9097783           91.3684623           -4.5413160
 Dipole Y            :          0.0000000            0.0000000            0.0000000
 Dipole Z            :         -0.0000000            0.0000000           -0.0000000
 Magnitude           :                                                    4.5413160
  //            Monomer A HF           //
    Molecular point group: c1
  Multiplicity = 1
  Basis Set: AUG-CC-PVTZ
    Blend: AUG-CC-PVTZ
  Basis Set: (AUG-CC-PVTZ AUX)
    Blend: AUG-CC-PVTZ-JKFIT + DEF2-UNIVERSAL-JKFIT
  @DF-RHF Final Energy:  -161.67603264048813
    Total Energy =                       -161.6760326404881312
  //            Monomer B HF           //
    Molecular point group: c1

    Geometry (in Angstrom), charge = -1, multiplicity = 1:

       Center              X                  Y                   Z               Mass
    ------------   -----------------  -----------------  -----------------  -----------------
      Gh(NA)          0.000000000000     0.000000000000     0.000000000000    22.989769282000
         CL           2.844124000000     0.000000000000     0.000000000000    34.968852682000

  Charge       = -1
  Multiplicity = 1
  Basis Set: AUG-CC-PVTZ
    Blend: AUG-CC-PVTZ
  Basis Set: (AUG-CC-PVTZ AUX)
    Blend: AUG-CC-PVTZ-JKFIT + DEF2-UNIVERSAL-JKFIT

    Orbital Energies [Eh]
    ---------------------

    Doubly Occupied:

       1A   -104.506307     2A    -10.229827     3A     -7.695875
       4A     -7.695875     5A     -7.695856     6A     -0.733501
       7A     -0.150338     8A     -0.150324     9A     -0.150324

  @DF-RHF Final Energy:  -459.57349903518895

   => Energetics <=

    Nuclear Repulsion Energy =              0.0000000000000000
    One-Electron Energy =                -641.1305440321772267
    Two-Electron Energy =                 181.5570449969882247
    Total Energy =                       -459.5734990351890019
 Dipole X            :        -96.7429562           91.3684623           -5.3744939
 Dipole Y            :          0.0000000            0.0000000            0.0000000
 Dipole Z            :          0.0000000            0.0000000            0.0000000
 Magnitude           :                                                    5.3744939

    SAPT Results
  --------------------------------------------------------------------------------------------------------
    Electrostatics               -187.83575842 [mEh]    -117.86871792 [kcal/mol]    -493.16271578 [kJ/mol]
      Elst10,r                   -187.65327676 [mEh]    -117.75420895 [kcal/mol]    -492.68361027 [kJ/mol]
      Elst12,r                     -0.18248165 [mEh]      -0.11450897 [kcal/mol]      -0.47910551 [kJ/mol]

    Exchange                       11.73892029 [mEh]       7.36628369 [kcal/mol]      30.82053097 [kJ/mol]
      Exch10                       10.80722366 [mEh]       6.78163523 [kcal/mol]      28.37436180 [kJ/mol]
      Exch10(S^2)                  10.77675046 [mEh]       6.76251301 [kcal/mol]      28.29435443 [kJ/mol]
      Exch11(S^2)                  -0.12560131 [mEh]      -0.07881601 [kcal/mol]      -0.32976618 [kJ/mol]
      Exch12(S^2)                   1.05729793 [mEh]       0.66346447 [kcal/mol]       2.77593534 [kJ/mol]

    Induction                     -16.36329434 [mEh]     -10.26812222 [kcal/mol]     -42.96182338 [kJ/mol]
      Ind20,r                     -38.41805429 [mEh]     -24.10769303 [kcal/mol]    -100.86658765 [kJ/mol]
      Ind22                        -4.13703300 [mEh]      -2.59602740 [kcal/mol]     -10.86177864 [kJ/mol]
      Exch-Ind20,r                 21.76542357 [mEh]      13.65800949 [kcal/mol]      57.14511172 [kJ/mol]
      Exch-Ind22                    2.34380104 [mEh]       1.47075736 [kcal/mol]       6.15364878 [kJ/mol]
      delta HF,r (2)                2.08256833 [mEh]       1.30683136 [kcal/mol]       5.46778241 [kJ/mol]

    Dispersion                     -0.49312739 [mEh]      -0.30944211 [kcal/mol]      -1.29470579 [kJ/mol]
      Disp20                       -0.51460547 [mEh]      -0.32291981 [kcal/mol]      -1.35109647 [kJ/mol]
      Disp21                       -0.01978882 [mEh]      -0.01241767 [kcal/mol]      -0.05195555 [kJ/mol]
      Disp22 (SDQ)                 -0.02282994 [mEh]      -0.01432600 [kcal/mol]      -0.05993999 [kJ/mol]
      Disp22 (T)                   -0.04012213 [mEh]      -0.02517701 [kcal/mol]      -0.10534063 [kJ/mol]
      Est. Disp22 (T)              -0.04892927 [mEh]      -0.03070358 [kcal/mol]      -0.12846378 [kJ/mol]
      Exch-Disp20                   0.11302611 [mEh]       0.07092495 [kcal/mol]       0.29675000 [kJ/mol]

  Total HF                       -191.41611549 [mEh]    -120.11542590 [kcal/mol]    -502.56294198 [kJ/mol]
  Total SAPT0                    -191.81769485 [mEh]    -120.36742076 [kcal/mol]    -503.61728844 [kJ/mol]
  Total SAPT2                    -192.86171183 [mEh]    -121.02255130 [kcal/mol]    -506.35835466 [kJ/mol]
  Total SAPT2+                   -192.95325986 [mEh]    -121.07999856 [kcal/mol]    -506.59871398 [kJ/mol]

  Special recipe for scaled SAPT0 (see Manual):
    Electrostatics sSAPT0        -187.65327676 [mEh]    -117.75420895 [kcal/mol]    -492.68361027 [kJ/mol]
    Exchange sSAPT0                10.80722366 [mEh]       6.78163523 [kcal/mol]      28.37436180 [kJ/mol]
    Induction sSAPT0              -14.38490285 [mEh]      -9.02666282 [kcal/mol]     -37.76755722 [kJ/mol]
    Dispersion sSAPT0              -0.40061784 [mEh]      -0.25139149 [kcal/mol]      -1.05182200 [kJ/mol]
  Total sSAPT0                   -191.63157380 [mEh]    -120.25062803 [kcal/mol]    -503.12862769 [kJ/mol]
  --------------------------------------------------------------------------------------------------------

*** Psi4 exiting successfully. Buy a developer a beer!
