                               Psi4 1.9 release

  ==> Input File <==

--------------------------------------------------------------------------
MEMORY 60 GB

molecule dimer {
1 1
Na     0.000000     0.000000     0.000000
--
-1 1
Cl     3.081134     0.000000     0.000000

units ang
no_reorient
no_com
symmetry c1
}

set {
basis        aug-cc-pVTZ
scf_type     df
}

energy("sapt2+")
--------------------------------------------------------------------------

  //              Dimer HF             //
    Molecular point group: c1
  Charge       = 0
  Multiplicity = 1
  Basis Set: AUG-CC-PVTZ
    Blend: AUG-CC-PVTZ
  Basis Set: (AUG-CC-PVTZ AUX)
    Blend: AUG-CC-PVTZ-JKFIT + DEF2-UNIVERSAL-JKFIT
  @DF-RHF Final Energy:  -621.42908763879677
    Total Energy =                       -621.4290876387966591
 Dipole X            :       -103.9858668           98.9824901           -5.0033768
 Dipole Y            :          0.0000000            0.0000000            0.0000000
 Dipole Z            :          0.0000000            0.0000000            0.0000000
 Magnitude           :                                                    5.0033768
  //            Monomer A HF           //
    Molecular point group: c1
  Multiplicity = 1
  Basis Set: AUG-CC-PVTZ
    Blend: AUG-CC-PVTZ
  Basis Set: (AUG-CC-PVTZ AUX)
    Blend: AUG-CC-PVTZ-JKFIT + DEF2-UNIVERSAL-JKFIT
  @DF-RHF Final Energy:  -161.67603168887277
    Total Energy =                       -161.6760316888727402
  //            Monomer B HF           //
    Molecular point group: c1

    Geometry (in Angstrom), charge = -1, multiplicity = 1:

       Center              X                  Y                   Z               Mass
    ------------   -----------------  -----------------  -----------------  -----------------
      Gh(NA)          0.000000000000     0.000000000000     0.000000000000    22.989769282000
         CL           3.081134000000     0.000000000000     0.000000000000    34.968852682000

  Charge       = -1
  Multiplicity = 1
  Basis Set: AUG-CC-PVTZ
    Blend: AUG-CC-PVTZ
  Basis Set: (AUG-CC-PVTZ AUX)
    Blend: AUG-CC-PVTZ-JKFIT + DEF2-UNIVERSAL-JKFIT

    Orbital Energies [Eh]
    ---------------------

    Doubly Occupied:

       1A   -104.506233     2A    -10.229808     3A     -7.695852
       4A     -7.695852     5A     -7.695837     6A     -0.733503
       7A     -0.150339     8A     -0.150325     9A     -0.150325

  @DF-RHF Final Energy:  -459.57349698478743

   => Energetics <=

    Nuclear Repulsion Energy =              0.0000000000000000
    One-Electron Energy =                -641.1308401574494837
    Two-Electron Energy =                 181.5573431726620868
    Total Energy =                       -459.5734969847874254
 Dipole X            :       -104.8047781           98.9824901           -5.8222881
 Dipole Y            :          0.0000000            0.0000000            0.0000000
 Dipole Z            :          0.0000000            0.0000000            0.0000000
 Magnitude           :                                                    5.8222881

    SAPT Results
  --------------------------------------------------------------------------------------------------------
    Electrostatics               -172.67849332 [mEh]    -108.35739047 [kcal/mol]    -453.36732174 [kJ/mol]
      Elst10,r                   -172.51737862 [mEh]    -108.25628948 [kcal/mol]    -452.94431516 [kJ/mol]
      Elst12,r                     -0.16111470 [mEh]      -0.10110100 [kcal/mol]      -0.42300658 [kJ/mol]

    Exchange                        6.07463096 [mEh]       3.81188848 [kcal/mol]      15.94894138 [kJ/mol]
      Exch10                        5.46304728 [mEh]       3.42811392 [kcal/mol]      14.34322865 [kJ/mol]
      Exch10(S^2)                   5.45513640 [mEh]       3.42314977 [kcal/mol]      14.32245865 [kJ/mol]
      Exch11(S^2)                  -0.05435296 [mEh]      -0.03410700 [kcal/mol]      -0.14270368 [kJ/mol]
      Exch12(S^2)                   0.66593664 [mEh]       0.41788155 [kcal/mol]       1.74841641 [kJ/mol]

    Induction                     -14.04561634 [mEh]      -8.81375732 [kcal/mol]     -36.87676063 [kJ/mol]
      Ind20,r                     -25.21427794 [mEh]     -15.82219828 [kcal/mol]     -66.20007760 [kJ/mol]
      Ind22                        -2.90553358 [mEh]      -1.82324985 [kcal/mol]      -7.62847735 [kJ/mol]
      Exch-Ind20,r                 11.84160084 [mEh]       7.43071671 [kcal/mol]      31.09011873 [kJ/mol]
      Exch-Ind22                    1.36455103 [mEh]       0.85626870 [kcal/mol]       3.58262823 [kJ/mol]
      delta HF,r (2)                0.86804330 [mEh]       0.54470540 [kcal/mol]       2.27904738 [kJ/mol]

    Dispersion                     -0.32505424 [mEh]      -0.20397462 [kcal/mol]      -0.85342980 [kJ/mol]
      Disp20                       -0.32206518 [mEh]      -0.20209895 [kcal/mol]      -0.84558202 [kJ/mol]
      Disp21                       -0.01479285 [mEh]      -0.00928265 [kcal/mol]      -0.03883863 [kJ/mol]
      Disp22 (SDQ)                 -0.01627245 [mEh]      -0.01021112 [kcal/mol]      -0.04272331 [kJ/mol]
      Disp22 (T)                   -0.02628437 [mEh]      -0.01649369 [kcal/mol]      -0.06900961 [kJ/mol]
      Est. Disp22 (T)              -0.03155250 [mEh]      -0.01979949 [kcal/mol]      -0.08284108 [kJ/mol]
      Exch-Disp20                   0.05962874 [mEh]       0.03741760 [kcal/mol]       0.15655524 [kJ/mol]

  Total HF                       -179.55896514 [mEh]    -112.67495172 [kcal/mol]    -471.43199802 [kJ/mol]
  Total SAPT0                    -179.82140158 [mEh]    -112.83963308 [kcal/mol]    -472.12102480 [kJ/mol]
  Total SAPT2                    -180.91191514 [mEh]    -113.52394067 [kcal/mol]    -474.98416777 [kJ/mol]
  Total SAPT2+                   -180.97453295 [mEh]    -113.56323394 [kcal/mol]    -475.14857079 [kJ/mol]

  Special recipe for scaled SAPT0 (see Manual):
    Electrostatics sSAPT0        -172.51737862 [mEh]    -108.25628948 [kcal/mol]    -452.94431516 [kJ/mol]
    Exchange sSAPT0                 5.46304728 [mEh]       3.42811392 [kcal/mol]      14.34322865 [kJ/mol]
    Induction sSAPT0              -12.45304204 [mEh]      -7.81440186 [kcal/mol]     -32.69545738 [kJ/mol]
    Dispersion sSAPT0              -0.26217665 [mEh]      -0.16451833 [kcal/mol]      -0.68834470 [kJ/mol]
  Total sSAPT0                   -179.76955004 [mEh]    -112.80709575 [kcal/mol]    -471.98488860 [kJ/mol]
  --------------------------------------------------------------------------------------------------------

*** Psi4 exiting successfully. Buy a developer a beer!
