                               Psi4 1.9 release

  ==> Input File <==

--------------------------------------------------------------------------
MEMORY 60 GB

molecule dimer {
1 1
Na     0.000000     0.000000     0.000000
--
-1 1
Cl     3.318144     0.000000     0.000000

units ang
no_reorient
no_com
symmetry c1
}

set {
basis        aug-cc-pVTZ
scf_type     df
}

energy("sapt2+")
--------------------------------------------------------------------------

  //              Dimer HF             //
    Molecular point group: c1
  Charge       = 0
  Multiplicity = 1
  Basis Set: AUG-CC-PVTZ
    Blend: AUG-CC-PVTZ
  Basis Set: (AUG-CC-PVTZ AUX)
    Blend: AUG-CC-PVTZ-JKFIT + DEF2-UNIVERSAL-JKFIT
  @DF-RHF Final Energy:  -621.41717642306537
    Total Energy =                       -621.4171764230653707
 Dipole X            :       -112.0775457          106.5965179           -5.4810278
 Dipole Y            :         -0.0000000            0.0000000           -0.0000000
 Dipole Z            :          0.0000000            0.0000000            0.0000000
 Magnitude           :                                                    5.4810278
  //            Monomer A HF           //
    Molecular point group: c1
  Multiplicity = 1
  Basis Set: AUG-CC-PVTZ
    Blend: AUG-CC-PVTZ
  Basis Set: (AUG-CC-PVTZ AUX)
    Blend: AUG-CC-PVTZ-JKFIT + DEF2-UNIVERSAL-JKFIT
  @DF-RHF Final Energy:  -161.67603102025799
    Total Energy =                       -161.6760310202579944
  //            Monomer B HF           //
    Molecular point group: c1

    Geometry (in Angstrom), charge = -1, multiplicity = 1:

       Center              X                  Y                   Z               Mass
    ------------   -----------------  -----------------  -----------------  -----------------
      Gh(NA)          0.000000000000     0.000000000000     0.000000000000    22.989769282000
         CL           3.318144000000     0.000000000000     0.000000000000    34.968852682000

  Charge       = -1
  Multiplicity = 1
  Basis Set: AUG-CC-PVTZ
    Blend: AUG-CC-PVTZ
  Basis Set: (AUG-CC-PVTZ AUX)
    Blend: AUG-CC-PVTZ-JKFIT + DEF2-UNIVERSAL-JKFIT

    Orbital Energies [Eh]
    ---------------------

    Doubly Occupied:

       1A   -104.506180     2A    -10.229795     3A     -7.695837
       4A     -7.695837     5A     -7.695825     6A     -0.733505
       7A     -0.150339     8A     -0.150328     9A     -0.150328

  @DF-RHF Final Energy:  -459.57349512162062

   => Energetics <=

    Nuclear Repulsion Energy =              0.0000000000000000
    One-Electron Energy =                -641.1310417320571560
    Two-Electron Energy =                 181.5575466104365603
    Total Energy =                       -459.5734951216205673
 Dipole X            :       -112.8667305          106.5965179           -6.2702126
 Dipole Y            :          0.0000000            0.0000000            0.0000000
 Dipole Z            :         -0.0000000            0.0000000           -0.0000000
 Magnitude           :                                                    6.2702126

    SAPT Results
  --------------------------------------------------------------------------------------------------------
    Electrostatics               -159.99013203 [mEh]    -100.39532356 [kcal/mol]    -420.05403378 [kJ/mol]
      Elst10,r                   -159.85870131 [mEh]    -100.31284954 [kcal/mol]    -419.70896246 [kJ/mol]
      Elst12,r                     -0.13143073 [mEh]      -0.08247403 [kcal/mol]      -0.34507133 [kJ/mol]

    Exchange                        3.18514319 [mEh]       1.99870753 [kcal/mol]       8.36259229 [kJ/mol]
      Exch10                        2.79934178 [mEh]       1.75661349 [kcal/mol]       7.34967083 [kJ/mol]
      Exch10(S^2)                   2.79724806 [mEh]       1.75529966 [kcal/mol]       7.34417378 [kJ/mol]
      Exch11(S^2)                  -0.02417399 [mEh]      -0.01516941 [kcal/mol]      -0.06346881 [kJ/mol]
      Exch12(S^2)                   0.40997540 [mEh]       0.25726345 [kcal/mol]       1.07639027 [kJ/mol]

    Induction                     -11.86664090 [mEh]      -7.44642958 [kcal/mol]     -31.15586138 [kJ/mol]
      Ind20,r                     -17.10727964 [mEh]     -10.73498004 [kcal/mol]     -44.91515649 [kJ/mol]
      Ind22                        -2.05237464 [mEh]      -1.28788453 [kcal/mol]      -5.38850888 [kJ/mol]
      Exch-Ind20,r                  6.47370169 [mEh]       4.06230914 [kcal/mol]      16.99670143 [kJ/mol]
      Exch-Ind22                    0.77665540 [mEh]       0.48735862 [kcal/mol]       2.03910848 [kJ/mol]
      delta HF,r (2)                0.04265629 [mEh]       0.02676723 [kcal/mol]       0.11199408 [kJ/mol]

    Dispersion                     -0.21353721 [mEh]      -0.13399662 [kcal/mol]      -0.56064186 [kJ/mol]
      Disp20                       -0.20298620 [mEh]      -0.12737576 [kcal/mol]      -0.53294020 [kJ/mol]
      Disp21                       -0.01016315 [mEh]      -0.00637747 [kcal/mol]      -0.02668335 [kJ/mol]
      Disp22 (SDQ)                 -0.01142854 [mEh]      -0.00717152 [kcal/mol]      -0.03000563 [kJ/mol]
      Disp22 (T)                   -0.01737727 [mEh]      -0.01090440 [kcal/mol]      -0.04562402 [kJ/mol]
      Est. Disp22 (T)              -0.02052984 [mEh]      -0.01288267 [kcal/mol]      -0.05390109 [kJ/mol]
      Exch-Disp20                   0.03157053 [mEh]       0.01981080 [kcal/mol]       0.08288840 [kJ/mol]

  Total HF                       -167.65028119 [mEh]    -105.20213973 [kcal/mol]    -440.16575261 [kJ/mol]
  Total SAPT0                    -167.82169686 [mEh]    -105.30970469 [kcal/mol]    -440.61580441 [kJ/mol]
  Total SAPT2                    -168.84304542 [mEh]    -105.95061058 [kcal/mol]    -443.29735467 [kJ/mol]
  Total SAPT2+                   -168.88516695 [mEh]    -105.97704224 [kcal/mol]    -443.40794474 [kJ/mol]

  Special recipe for scaled SAPT0 (see Manual):
    Electrostatics sSAPT0        -159.85870131 [mEh]    -100.31284954 [kcal/mol]    -419.70896246 [kJ/mol]
    Exchange sSAPT0                 2.79934178 [mEh]       1.75661349 [kcal/mol]       7.34967083 [kJ/mol]
    Induction sSAPT0              -10.57637426 [mEh]      -6.63677505 [kcal/mol]     -27.76826679 [kJ/mol]
    Dispersion sSAPT0              -0.17134473 [mEh]      -0.10752044 [kcal/mol]      -0.44986553 [kJ/mol]
  Total sSAPT0                   -167.80707852 [mEh]    -105.30053154 [kcal/mol]    -440.57742395 [kJ/mol]
  --------------------------------------------------------------------------------------------------------

*** Psi4 exiting successfully. Buy a developer a beer!
