                               Psi4 1.9 release

  ==> Input File <==

--------------------------------------------------------------------------
MEMORY 60 GB

molecule dimer {
1 1
Na     0.000000     0.000000     0.000000
--
-1 1
Cl     2.370103     0.000000     0.000000

units ang
no_reorient
no_com
symmetry c1
}

set {
basis        aug-cc-pVTZ
scf_type     df
}

energy("sapt2+")
--------------------------------------------------------------------------

  //              Dimer HF             //
    Molecular point group: c1
  Charge       = 0
  Multiplicity = 1
  Basis Set: AUG-CC-PVTZ
    Blend: AUG-CC-PVTZ
  Basis Set: (AUG-CC-PVTZ AUX)
    Blend: AUG-CC-PVTZ-JKFIT + DEF2-UNIVERSAL-JKFIT
  @DF-RHF Final Energy:  -621.45481169053892
    Total Energy =                       -621.4548116905389179
 Dipole X            :        -79.8255328           76.1403745           -3.6851583
 Dipole Y            :         -0.0000000            0.0000000           -0.0000000
 Dipole Z            :          0.0000000            0.0000000            0.0000000
 Magnitude           :                                                    3.6851583
  //            Monomer A HF           //
    Molecular point group: c1
  Multiplicity = 1
  Basis Set: AUG-CC-PVTZ
    Blend: AUG-CC-PVTZ
  Basis Set: (AUG-CC-PVTZ AUX)
    Blend: AUG-CC-PVTZ-JKFIT + DEF2-UNIVERSAL-JKFIT
  @DF-RHF Final Energy:  -161.67603707847442
    Total Energy =                       -161.6760370784744509
  //            Monomer B HF           //
    Molecular point group: c1

    Geometry (in Angstrom), charge = -1, multiplicity = 1:

       Center              X                  Y                   Z               Mass
    ------------   -----------------  -----------------  -----------------  -----------------
      Gh(NA)          0.000000000000     0.000000000000     0.000000000000    22.989769282000
         CL           2.370103000000     0.000000000000     0.000000000000    34.968852682000

  Charge       = -1
  Multiplicity = 1
  Basis Set: AUG-CC-PVTZ
    Blend: AUG-CC-PVTZ
  Basis Set: (AUG-CC-PVTZ AUX)
    Blend: AUG-CC-PVTZ-JKFIT + DEF2-UNIVERSAL-JKFIT

    Orbital Energies [Eh]
    ---------------------

    Doubly Occupied:

       1A   -104.506424     2A    -10.229848     3A     -7.695904
       4A     -7.695904     5A     -7.695885     6A     -0.733495
       7A     -0.150337     8A     -0.150320     9A     -0.150320

  @DF-RHF Final Energy:  -459.57350726136110

   => Energetics <=

    Nuclear Repulsion Energy =              0.0000000000000000
    One-Electron Energy =                -641.1301389070797541
    Two-Electron Energy =                 181.5566316457186815
    Total Energy =                       -459.5735072613611010
 Dipole X            :        -80.6196027           76.1403745           -4.4792282
 Dipole Y            :         -0.0000000            0.0000000           -0.0000000
 Dipole Z            :         -0.0000000            0.0000000           -0.0000000
 Magnitude           :                                                    4.4792282

    SAPT Results
  --------------------------------------------------------------------------------------------------------
    Electrostatics               -230.46630197 [mEh]    -144.61978787 [kcal/mol]    -605.08919245 [kJ/mol]
      Elst10,r                   -230.37744105 [mEh]    -144.56402680 [kcal/mol]    -604.85588815 [kJ/mol]
      Elst12,r                     -0.08886091 [mEh]      -0.05576107 [kcal/mol]      -0.23330430 [kJ/mol]

    Exchange                       45.96594408 [mEh]      28.84406538 [kcal/mol]     120.68356955 [kJ/mol]
      Exch10                       44.33177429 [mEh]      27.81860836 [kcal/mol]     116.39305736 [kJ/mol]
      Exch10(S^2)                  43.85104736 [mEh]      27.51694766 [kcal/mol]     115.13090899 [kJ/mol]
      Exch11(S^2)                  -0.73701469 [mEh]      -0.46248370 [kcal/mol]      -1.93503180 [kJ/mol]
      Exch12(S^2)                   2.37118448 [mEh]       1.48794072 [kcal/mol]       6.22554399 [kJ/mol]

    Induction                     -21.32611808 [mEh]     -13.38234113 [kcal/mol]     -55.99171530 [kJ/mol]
      Ind20,r                    -100.13577493 [mEh]     -62.83614743 [kcal/mol]    -262.90644086 [kJ/mol]
      Ind22                        -8.43216935 [mEh]      -5.29126615 [kcal/mol]     -22.13865758 [kJ/mol]
      Exch-Ind20,r                 75.14468020 [mEh]      47.15399873 [kcal/mol]     197.29233068 [kJ/mol]
      Exch-Ind22                    6.32773521 [mEh]       3.97071379 [kcal/mol]      16.61346651 [kJ/mol]
      delta HF,r (2)                5.76941079 [mEh]       3.62035993 [kcal/mol]      15.14758595 [kJ/mol]

    Dispersion                     -1.17033659 [mEh]      -0.73439730 [kcal/mol]      -3.07271829 [kJ/mol]
      Disp20                       -1.41661441 [mEh]      -0.88893896 [kcal/mol]      -3.71932062 [kJ/mol]
      Disp21                       -0.01502137 [mEh]      -0.00942605 [kcal/mol]      -0.03943860 [kJ/mol]
      Disp22 (SDQ)                 -0.04815663 [mEh]      -0.03021874 [kcal/mol]      -0.12643522 [kJ/mol]
      Disp22 (T)                   -0.10542513 [mEh]      -0.06615527 [kcal/mol]      -0.27679365 [kJ/mol]
      Est. Disp22 (T)              -0.13028660 [mEh]      -0.08175608 [kcal/mol]      -0.34206742 [kJ/mol]
      Exch-Disp20                   0.43974242 [mEh]       0.27594254 [kcal/mol]       1.15454357 [kJ/mol]

  Total HF                       -205.26735070 [mEh]    -128.80720722 [kcal/mol]    -538.92935502 [kJ/mol]
  Total SAPT0                    -206.24422269 [mEh]    -129.42020365 [kcal/mol]    -541.49413207 [kJ/mol]
  Total SAPT2                    -206.80334795 [mEh]    -129.77106005 [kcal/mol]    -542.96211524 [kJ/mol]
  Total SAPT2+                   -206.99681255 [mEh]    -129.89246092 [kcal/mol]    -543.47005649 [kJ/mol]

  Special recipe for scaled SAPT0 (see Manual):
    Electrostatics sSAPT0        -230.37744105 [mEh]    -144.56402680 [kcal/mol]    -604.85588815 [kJ/mol]
    Exchange sSAPT0                44.33177429 [mEh]      27.81860836 [kcal/mol]     116.39305736 [kJ/mol]
    Induction sSAPT0              -16.72312083 [mEh]     -10.49391675 [kcal/mol]     -43.90654768 [kJ/mol]
    Dispersion sSAPT0              -0.96225054 [mEh]      -0.60382133 [kcal/mol]      -2.52638844 [kJ/mol]
  Total sSAPT0                   -203.73103813 [mEh]    -127.84315653 [kcal/mol]    -534.89576691 [kJ/mol]
  --------------------------------------------------------------------------------------------------------

*** Psi4 exiting successfully. Buy a developer a beer!
