                               Psi4 1.9 release

  ==> Input File <==

--------------------------------------------------------------------------
MEMORY 60 GB

molecule dimer {
1 1
Na     0.000000     0.000000     0.000000
--
-1 1
Cl     3.555154     0.000000     0.000000

units ang
no_reorient
no_com
symmetry c1
}

set {
basis        aug-cc-pVTZ
scf_type     df
}

energy("sapt2+")
--------------------------------------------------------------------------

  //              Dimer HF             //
    Molecular point group: c1
  Charge       = 0
  Multiplicity = 1
  Basis Set: AUG-CC-PVTZ
    Blend: AUG-CC-PVTZ
  Basis Set: (AUG-CC-PVTZ AUX)
    Blend: AUG-CC-PVTZ-JKFIT + DEF2-UNIVERSAL-JKFIT
  @DF-RHF Final Energy:  -621.40597400466299
    Total Energy =                       -621.4059740046628804
 Dipole X            :       -120.1801999          114.2105457           -5.9696542
 Dipole Y            :          0.0000000            0.0000000            0.0000000
 Dipole Z            :          0.0000000            0.0000000            0.0000000
 Magnitude           :                                                    5.9696542
  //            Monomer A HF           //
    Molecular point group: c1
  Multiplicity = 1
  Basis Set: AUG-CC-PVTZ
    Blend: AUG-CC-PVTZ
  Basis Set: (AUG-CC-PVTZ AUX)
    Blend: AUG-CC-PVTZ-JKFIT + DEF2-UNIVERSAL-JKFIT
  @DF-RHF Final Energy:  -161.67602980084138
    Total Energy =                       -161.6760298008413770
  //            Monomer B HF           //
    Molecular point group: c1

    Geometry (in Angstrom), charge = -1, multiplicity = 1:

       Center              X                  Y                   Z               Mass
    ------------   -----------------  -----------------  -----------------  -----------------
      Gh(NA)          0.000000000000     0.000000000000     0.000000000000    22.989769282000
         CL           3.555154000000     0.000000000000     0.000000000000    34.968852682000

  Charge       = -1
  Multiplicity = 1
  Basis Set: AUG-CC-PVTZ
    Blend: AUG-CC-PVTZ
  Basis Set: (AUG-CC-PVTZ AUX)
    Blend: AUG-CC-PVTZ-JKFIT + DEF2-UNIVERSAL-JKFIT

    Orbital Energies [Eh]
    ---------------------

    Doubly Occupied:

       1A   -104.506145     2A    -10.229787     3A     -7.695828
       4A     -7.695828     5A     -7.695817     6A     -0.733507
       7A     -0.150338     8A     -0.150331     9A     -0.150331

  @DF-RHF Final Energy:  -459.57349289114916

   => Energetics <=

    Nuclear Repulsion Energy =              0.0000000000000000
    One-Electron Energy =                -641.1311620286760444
    Two-Electron Energy =                 181.5576691375268297
    Total Energy =                       -459.5734928911492148
 Dipole X            :       -120.9287470          114.2105457           -6.7182013
 Dipole Y            :          0.0000000            0.0000000            0.0000000
 Dipole Z            :          0.0000000            0.0000000            0.0000000
 Magnitude           :                                                    6.7182013

    SAPT Results
  --------------------------------------------------------------------------------------------------------
    Electrostatics               -149.14386122 [mEh]     -93.58918587 [kcal/mol]    -391.57715370 [kJ/mol]
      Elst10,r                   -149.03981768 [mEh]     -93.52389757 [kcal/mol]    -391.30398741 [kJ/mol]
      Elst12,r                     -0.10404354 [mEh]      -0.06528831 [kcal/mol]      -0.27316628 [kJ/mol]

    Exchange                        1.69041012 [mEh]       1.06074836 [kcal/mol]       4.43817115 [kJ/mol]
      Exch10                        1.45245998 [mEh]       0.91143240 [kcal/mol]       3.81343316 [kJ/mol]
      Exch10(S^2)                   1.45189456 [mEh]       0.91107759 [kcal/mol]       3.81194864 [kJ/mol]
      Exch11(S^2)                  -0.01107891 [mEh]      -0.00695212 [kcal/mol]      -0.02908769 [kJ/mol]
      Exch12(S^2)                   0.24902905 [mEh]       0.15626809 [kcal/mol]       0.65382568 [kJ/mol]

    Induction                      -9.89330980 [mEh]      -6.20814563 [kcal/mol]     -25.97488131 [kJ/mol]
      Ind20,r                     -11.97298237 [mEh]      -7.51315987 [kcal/mol]     -31.43506089 [kJ/mol]
      Ind22                        -1.46448939 [mEh]      -0.91898096 [kcal/mol]      -3.84501635 [kJ/mol]
      Exch-Ind20,r                  3.55745724 [mEh]       2.23233812 [kcal/mol]       9.34010270 [kJ/mol]
      Exch-Ind22                    0.43513456 [mEh]       0.27305106 [kcal/mol]       1.14244562 [kJ/mol]
      delta HF,r (2)               -0.44842984 [mEh]      -0.28139398 [kcal/mol]      -1.17735239 [kJ/mol]

    Dispersion                     -0.14066567 [mEh]      -0.08826904 [kcal/mol]      -0.36931767 [kJ/mol]
      Disp20                       -0.12937627 [mEh]      -0.08118483 [kcal/mol]      -0.33967734 [kJ/mol]
      Disp21                       -0.00664845 [mEh]      -0.00417197 [kcal/mol]      -0.01745550 [kJ/mol]
      Disp22 (SDQ)                 -0.00794137 [mEh]      -0.00498329 [kcal/mol]      -0.02085007 [kJ/mol]
      Disp22 (T)                   -0.01150698 [mEh]      -0.00722074 [kcal/mol]      -0.03021156 [kJ/mol]
      Est. Disp22 (T)              -0.01345098 [mEh]      -0.00844061 [kcal/mol]      -0.03531553 [kJ/mol]
      Exch-Disp20                   0.01675140 [mEh]       0.01051166 [kcal/mol]       0.04398079 [kJ/mol]

  Total HF                       -156.45131267 [mEh]     -98.17468089 [kcal/mol]    -410.76286483 [kJ/mol]
  Total SAPT0                    -156.56393754 [mEh]     -98.24535406 [kcal/mol]    -411.05856139 [kJ/mol]
  Total SAPT2                    -157.45938578 [mEh]     -98.80725631 [kcal/mol]    -413.40956041 [kJ/mol]
  Total SAPT2+                   -157.48742658 [mEh]     -98.82485218 [kcal/mol]    -413.48318152 [kJ/mol]

  Special recipe for scaled SAPT0 (see Manual):
    Electrostatics sSAPT0        -149.03981768 [mEh]     -93.52389757 [kcal/mol]    -391.30398741 [kJ/mol]
    Exchange sSAPT0                 1.45245998 [mEh]       0.91143240 [kcal/mol]       3.81343316 [kJ/mol]
    Induction sSAPT0               -8.85979711 [mEh]      -5.55960662 [kcal/mol]     -23.26139411 [kJ/mol]
    Dispersion sSAPT0              -0.11260529 [mEh]      -0.07066089 [kcal/mol]      -0.29564515 [kJ/mol]
  Total sSAPT0                   -156.55976010 [mEh]     -98.24273268 [kcal/mol]    -411.04759352 [kJ/mol]
  --------------------------------------------------------------------------------------------------------

*** Psi4 exiting successfully. Buy a developer a beer!
