                               Psi4 1.9 release

  ==> Input File <==

--------------------------------------------------------------------------
MEMORY 60 GB

molecule dimer {
1 1
Na     0.000000     0.000000     0.000000
--
-1 1
Cl     2.607113     0.000000     0.000000

units ang
no_reorient
no_com
symmetry c1
}

set {
basis        aug-cc-pVTZ
scf_type     df
}

energy("sapt2+")
--------------------------------------------------------------------------

  //              Dimer HF             //
    Molecular point group: c1
  Charge       = 0
  Multiplicity = 1
  Basis Set: AUG-CC-PVTZ
    Blend: AUG-CC-PVTZ
  Basis Set: (AUG-CC-PVTZ AUX)
    Blend: AUG-CC-PVTZ-JKFIT + DEF2-UNIVERSAL-JKFIT
  @DF-RHF Final Energy:  -621.45092102332762
    Total Energy =                       -621.4509210233276235
 Dipole X            :        -87.8544603           83.7544023           -4.1000579
 Dipole Y            :         -0.0000000            0.0000000           -0.0000000
 Dipole Z            :          0.0000000            0.0000000            0.0000000
 Magnitude           :                                                    4.1000579
  //            Monomer A HF           //
    Molecular point group: c1
  Multiplicity = 1
  Basis Set: AUG-CC-PVTZ
    Blend: AUG-CC-PVTZ
  Basis Set: (AUG-CC-PVTZ AUX)
    Blend: AUG-CC-PVTZ-JKFIT + DEF2-UNIVERSAL-JKFIT
  @DF-RHF Final Energy:  -161.67603455809871
    Total Energy =                       -161.6760345580987064
  //            Monomer B HF           //
    Molecular point group: c1

    Geometry (in Angstrom), charge = -1, multiplicity = 1:

       Center              X                  Y                   Z               Mass
    ------------   -----------------  -----------------  -----------------  -----------------
      Gh(NA)          0.000000000000     0.000000000000     0.000000000000    22.989769282000
         CL           2.607113000000     0.000000000000     0.000000000000    34.968852682000

  Charge       = -1
  Multiplicity = 1
  Basis Set: AUG-CC-PVTZ
    Blend: AUG-CC-PVTZ
  Basis Set: (AUG-CC-PVTZ AUX)
    Blend: AUG-CC-PVTZ-JKFIT + DEF2-UNIVERSAL-JKFIT

    Orbital Energies [Eh]
    ---------------------

    Doubly Occupied:

       1A   -104.506384     2A    -10.229844     3A     -7.695897
       4A     -7.695897     5A     -7.695875     6A     -0.733498
       7A     -0.150337     8A     -0.150323     9A     -0.150323

  @DF-RHF Final Energy:  -459.57350259969814

   => Energetics <=

    Nuclear Repulsion Energy =              0.0000000000000000
    One-Electron Energy =                -641.1302468455336339
    Two-Electron Energy =                 181.5567442458354890
    Total Energy =                       -459.5735025996981449
 Dipole X            :        -88.6811979           83.7544023           -4.9267956
 Dipole Y            :         -0.0000000            0.0000000           -0.0000000
 Dipole Z            :          0.0000000            0.0000000            0.0000000
 Magnitude           :                                                    4.9267956

    SAPT Results
  --------------------------------------------------------------------------------------------------------
    Electrostatics               -206.47534709 [mEh]    -129.56523640 [kcal/mol]    -542.10094910 [kJ/mol]
      Elst10,r                   -206.31053145 [mEh]    -129.46181303 [kcal/mol]    -541.66822570 [kJ/mol]
      Elst12,r                     -0.16481564 [mEh]      -0.10342337 [kcal/mol]      -0.43272340 [kJ/mol]

    Exchange                       23.02166673 [mEh]      14.44631398 [kcal/mol]      60.44337768 [kJ/mol]
      Exch10                       21.69882487 [mEh]      13.61621817 [kcal/mol]      56.97025684 [kJ/mol]
      Exch10(S^2)                  21.57915584 [mEh]      13.54112473 [kcal/mol]      56.65606586 [kJ/mol]
      Exch11(S^2)                  -0.29812314 [mEh]      -0.18707510 [kcal/mol]      -0.78272220 [kJ/mol]
      Exch12(S^2)                   1.62096501 [mEh]       1.01717090 [kcal/mol]       4.25584305 [kJ/mol]

    Induction                     -18.76056624 [mEh]     -11.77243305 [kcal/mol]     -49.25585987 [kJ/mol]
      Ind20,r                     -60.67412161 [mEh]     -38.07358612 [kcal/mol]    -159.29988434 [kJ/mol]
      Ind22                        -5.89888415 [mEh]      -3.70160569 [kcal/mol]     -15.48751821 [kJ/mol]
      Exch-Ind20,r                 40.22197122 [mEh]      25.23966800 [kcal/mol]     105.60277090 [kJ/mol]
      Exch-Ind22                    3.91047686 [mEh]       2.45386128 [kcal/mol]      10.26695559 [kJ/mol]
      delta HF,r (2)                3.67999144 [mEh]       2.30922949 [kcal/mol]       9.66181620 [kJ/mol]

    Dispersion                     -0.74949568 [mEh]      -0.47031564 [kcal/mol]      -1.96780063 [kJ/mol]
      Disp20                       -0.83394519 [mEh]      -0.52330851 [kcal/mol]      -2.18952279 [kJ/mol]
      Disp21                       -0.02254830 [mEh]      -0.01414927 [kcal/mol]      -0.05920054 [kJ/mol]
      Disp22 (SDQ)                 -0.03212380 [mEh]      -0.02015799 [kcal/mol]      -0.08434102 [kJ/mol]
      Disp22 (T)                   -0.06477877 [mEh]      -0.04064929 [kcal/mol]      -0.17007664 [kJ/mol]
      Est. Disp22 (T)              -0.07808092 [mEh]      -0.04899652 [kcal/mol]      -0.20500143 [kJ/mol]
      Exch-Disp20                   0.21720253 [mEh]       0.13629664 [kcal/mol]       0.57026515 [kJ/mol]

  Total HF                       -201.38386553 [mEh]    -126.37028349 [kcal/mol]    -528.73326611 [kJ/mol]
  Total SAPT0                    -202.00060819 [mEh]    -126.75729535 [kcal/mol]    -530.35252374 [kJ/mol]
  Total SAPT2                    -202.83098925 [mEh]    -127.27836733 [kcal/mol]    -532.53268892 [kJ/mol]
  Total SAPT2+                   -202.96374227 [mEh]    -127.36167111 [kcal/mol]    -532.88123191 [kJ/mol]

  Special recipe for scaled SAPT0 (see Manual):
    Electrostatics sSAPT0        -206.31053145 [mEh]    -129.46181303 [kcal/mol]    -541.66822570 [kJ/mol]
    Exchange sSAPT0                21.69882487 [mEh]      13.61621817 [kcal/mol]      56.97025684 [kJ/mol]
    Induction sSAPT0              -16.09927821 [mEh]     -10.10244960 [kcal/mol]     -42.26864911 [kJ/mol]
    Dispersion sSAPT0              -0.61310904 [mEh]      -0.38473173 [kcal/mol]      -1.60971756 [kJ/mol]
  Total sSAPT0                   -201.32409383 [mEh]    -126.33277618 [kcal/mol]    -528.57633554 [kJ/mol]
  --------------------------------------------------------------------------------------------------------

*** Psi4 exiting successfully. Buy a developer a beer!
