                               Psi4 1.9 release

  ==> Input File <==

--------------------------------------------------------------------------
MEMORY 60 GB

molecule dimer {
1 1
Na     0.000000     0.000000     0.000000
--
-1 1
Cl     2.251598     0.000000     0.000000

units ang
no_reorient
no_com
symmetry c1
}

set {
basis        aug-cc-pVTZ
scf_type     df
}

energy("sapt2+")
--------------------------------------------------------------------------

  //              Dimer HF             //
    Molecular point group: c1
  Charge       = 0
  Multiplicity = 1
  Basis Set: AUG-CC-PVTZ
    Blend: AUG-CC-PVTZ
  Basis Set: (AUG-CC-PVTZ AUX)
    Blend: AUG-CC-PVTZ-JKFIT + DEF2-UNIVERSAL-JKFIT
  @DF-RHF Final Energy:  -621.45184327669347
    Total Energy =                       -621.4518432766934666
 Dipole X            :        -75.8229589           72.3333606           -3.4895983
 Dipole Y            :         -0.0000000            0.0000000           -0.0000000
 Dipole Z            :          0.0000000            0.0000000            0.0000000
 Magnitude           :                                                    3.4895983
  //            Monomer A HF           //
    Molecular point group: c1
  Multiplicity = 1
  Basis Set: AUG-CC-PVTZ
    Blend: AUG-CC-PVTZ
  Basis Set: (AUG-CC-PVTZ AUX)
    Blend: AUG-CC-PVTZ-JKFIT + DEF2-UNIVERSAL-JKFIT
  @DF-RHF Final Energy:  -161.67603788027074
    Total Energy =                       -161.6760378802707123
  //            Monomer B HF           //
    Molecular point group: c1

    Geometry (in Angstrom), charge = -1, multiplicity = 1:

       Center              X                  Y                   Z               Mass
    ------------   -----------------  -----------------  -----------------  -----------------
      Gh(NA)          0.000000000000     0.000000000000     0.000000000000    22.989769282000
         CL           2.251598000000     0.000000000000     0.000000000000    34.968852682000

  Charge       = -1
  Multiplicity = 1
  Basis Set: AUG-CC-PVTZ
    Blend: AUG-CC-PVTZ
  Basis Set: (AUG-CC-PVTZ AUX)
    Blend: AUG-CC-PVTZ-JKFIT + DEF2-UNIVERSAL-JKFIT

    Orbital Energies [Eh]
    ---------------------

    Doubly Occupied:

       1A   -104.506445     2A    -10.229852     3A     -7.695907
       4A     -7.695907     5A     -7.695889     6A     -0.733493
       7A     -0.150336     8A     -0.150319     9A     -0.150319

  @DF-RHF Final Energy:  -459.57350953536286

   => Energetics <=

    Nuclear Repulsion Energy =              0.0000000000000000
    One-Electron Energy =                -641.1300860053904671
    Two-Electron Energy =                 181.5565764700276645
    Total Energy =                       -459.5735095353628026
 Dipole X            :        -76.5888994           72.3333606           -4.2555388
 Dipole Y            :         -0.0000000            0.0000000           -0.0000000
 Dipole Z            :          0.0000000            0.0000000            0.0000000
 Magnitude           :                                                    4.2555388

    SAPT Results
  --------------------------------------------------------------------------------------------------------
    Electrostatics               -245.53788694 [mEh]    -154.07735022 [kcal/mol]    -644.65963334 [kJ/mol]
      Elst10,r                   -245.52497384 [mEh]    -154.06924714 [kcal/mol]    -644.62573002 [kJ/mol]
      Elst12,r                     -0.01291309 [mEh]      -0.00810309 [kcal/mol]      -0.03390332 [kJ/mol]

    Exchange                       65.50202355 [mEh]      41.10314033 [kcal/mol]     171.97553915 [kJ/mol]
      Exch10                       63.86010980 [mEh]      40.07282389 [kcal/mol]     167.66469517 [kJ/mol]
      Exch10(S^2)                  62.88636106 [mEh]      39.46178734 [kcal/mol]     165.10811822 [kJ/mol]
      Exch11(S^2)                  -1.17912745 [mEh]      -0.73991365 [kcal/mol]      -3.09579870 [kJ/mol]
      Exch12(S^2)                   2.82104121 [mEh]       1.77023009 [kcal/mol]       7.40664268 [kJ/mol]

    Induction                     -22.78735554 [mEh]     -14.29928149 [kcal/mol]     -59.82819374 [kJ/mol]
      Ind20,r                    -130.96236481 [mEh]     -82.18012463 [kcal/mol]    -343.84164144 [kJ/mol]
      Ind22                       -10.10909374 [mEh]      -6.34355209 [kcal/mol]     -26.54142196 [kJ/mol]
      Exch-Ind20,r                103.02694154 [mEh]      64.65038187 [kcal/mol]     270.49719776 [kJ/mol]
      Exch-Ind22                    7.95273521 [mEh]       4.99041669 [kcal/mol]      20.87990342 [kJ/mol]
      delta HF,r (2)                7.30442626 [mEh]       4.58359668 [kcal/mol]      19.17776849 [kJ/mol]

    Dispersion                     -1.48289870 [mEh]      -0.93053298 [kcal/mol]      -3.89335000 [kJ/mol]
      Disp20                       -1.89083833 [mEh]      -1.18651897 [kcal/mol]      -4.96439536 [kJ/mol]
      Disp21                       -0.00108308 [mEh]      -0.00067965 [kcal/mol]      -0.00284364 [kJ/mol]
      Disp22 (SDQ)                 -0.06077901 [mEh]      -0.03813940 [kcal/mol]      -0.15957526 [kJ/mol]
      Disp22 (T)                   -0.13955291 [mEh]      -0.08757077 [kcal/mol]      -0.36639611 [kJ/mol]
      Est. Disp22 (T)              -0.17266680 [mEh]      -0.10835005 [kcal/mol]      -0.45333661 [kJ/mol]
      Exch-Disp20                   0.64246852 [mEh]       0.40315508 [kcal/mol]       1.68680087 [kJ/mol]

  Total HF                       -202.29586106 [mEh]    -126.94256932 [kcal/mol]    -531.12771004 [kJ/mol]
  Total SAPT0                    -203.54423087 [mEh]    -127.72593320 [kcal/mol]    -534.40530453 [kJ/mol]
  Total SAPT2                    -204.07158874 [mEh]    -128.05685526 [kcal/mol]    -535.78988241 [kJ/mol]
  Total SAPT2+                   -204.30611762 [mEh]    -128.20402436 [kcal/mol]    -536.40563792 [kJ/mol]

  Special recipe for scaled SAPT0 (see Manual):
    Electrostatics sSAPT0        -245.52497384 [mEh]    -154.06924714 [kcal/mol]    -644.62573002 [kJ/mol]
    Exchange sSAPT0                63.86010980 [mEh]      40.07282389 [kcal/mol]     167.66469517 [kJ/mol]
    Induction sSAPT0              -15.77062089 [mEh]      -9.89621402 [kcal/mol]     -41.40575944 [kJ/mol]
    Dispersion sSAPT0              -1.21806086 [mEh]      -0.76434473 [kcal/mol]      -3.19801835 [kJ/mol]
  Total sSAPT0                   -198.65354580 [mEh]    -124.65698199 [kcal/mol]    -521.56481263 [kJ/mol]
  --------------------------------------------------------------------------------------------------------

*** Psi4 exiting successfully. Buy a developer a beer!
