                               Psi4 1.9 release

  ==> Input File <==

--------------------------------------------------------------------------
MEMORY 60 GB

molecule dimer {
1 1
Na     0.000000     0.000000     0.000000
--
-1 1
Cl     1.896082     0.000000     0.000000

units ang
no_reorient
no_com
symmetry c1
}

set {
basis        aug-cc-pVTZ
scf_type     df
}

energy("sapt2+")
--------------------------------------------------------------------------

  //              Dimer HF             //
    Molecular point group: c1
  Charge       = 0
  Multiplicity = 1
  Basis Set: AUG-CC-PVTZ
    Blend: AUG-CC-PVTZ
  Basis Set: (AUG-CC-PVTZ AUX)
    Blend: AUG-CC-PVTZ-JKFIT + DEF2-UNIVERSAL-JKFIT
  @DF-RHF Final Energy:  -621.39382029760577
    Total Energy =                       -621.3938202976057710
 Dipole X            :        -63.8779109           60.9122868           -2.9656242
 Dipole Y            :         -0.0000000            0.0000000           -0.0000000
 Dipole Z            :          0.0000000            0.0000000            0.0000000
 Magnitude           :                                                    2.9656242
  //            Monomer A HF           //
    Molecular point group: c1
  Multiplicity = 1
  Basis Set: AUG-CC-PVTZ
    Blend: AUG-CC-PVTZ
  Basis Set: (AUG-CC-PVTZ AUX)
    Blend: AUG-CC-PVTZ-JKFIT + DEF2-UNIVERSAL-JKFIT
  @DF-RHF Final Energy:  -161.67604334731911
    Total Energy =                       -161.6760433473191370
  //            Monomer B HF           //
    Molecular point group: c1

    Geometry (in Angstrom), charge = -1, multiplicity = 1:

       Center              X                  Y                   Z               Mass
    ------------   -----------------  -----------------  -----------------  -----------------
      Gh(NA)          0.000000000000     0.000000000000     0.000000000000    22.989769282000
         CL           1.896082000000     0.000000000000     0.000000000000    34.968852682000

  Charge       = -1
  Multiplicity = 1
  Basis Set: AUG-CC-PVTZ
    Blend: AUG-CC-PVTZ
  Basis Set: (AUG-CC-PVTZ AUX)
    Blend: AUG-CC-PVTZ-JKFIT + DEF2-UNIVERSAL-JKFIT

    Orbital Energies [Eh]
    ---------------------

    Doubly Occupied:

       1A   -104.506568     2A    -10.229885     3A     -7.695939
       4A     -7.695939     5A     -7.695917     6A     -0.733488
       7A     -0.150323     8A     -0.150318     9A     -0.150318

  @DF-RHF Final Energy:  -459.57351507769761

   => Energetics <=

    Nuclear Repulsion Energy =              0.0000000000000000
    One-Electron Energy =                -641.1296375736702657
    Two-Electron Energy =                 181.5561224959726871
    Total Energy =                       -459.5735150776976070
 Dipole X            :        -64.4965397           60.9122868           -3.5842529
 Dipole Y            :         -0.0000000            0.0000000           -0.0000000
 Dipole Z            :          0.0000000            0.0000000            0.0000000
 Magnitude           :                                                    3.5842529

    SAPT Results
  --------------------------------------------------------------------------------------------------------
    Electrostatics               -313.66492146 [mEh]    -196.82770981 [kcal/mol]    -823.52713783 [kJ/mol]
      Elst10,r                   -314.31915390 [mEh]    -197.23824686 [kcal/mol]    -825.24482487 [kJ/mol]
      Elst12,r                      0.65423244 [mEh]       0.41053705 [kcal/mol]       1.71768704 [kJ/mol]

    Exchange                      195.67814520 [mEh]     122.78988993 [kcal/mol]     513.75289945 [kJ/mol]
      Exch10                      196.49815206 [mEh]     123.30445200 [kcal/mol]     515.90582716 [kJ/mol]
      Exch10(S^2)                 188.16559569 [mEh]     118.07569393 [kcal/mol]     494.02870341 [kJ/mol]
      Exch11(S^2)                  -5.03743956 [mEh]      -3.16104105 [kcal/mol]     -13.22579575 [kJ/mol]
      Exch12(S^2)                   4.21743271 [mEh]       2.64647898 [kcal/mol]      11.07286805 [kJ/mol]

    Induction                     -29.21080080 [mEh]     -18.33005424 [kcal/mol]     -76.69294693 [kJ/mol]
      Ind20,r                    -310.83171912 [mEh]    -195.04984850 [kcal/mol]    -816.08856613 [kJ/mol]
      Ind22                       -17.15278703 [mEh]     -10.76353636 [kcal/mol]     -45.03463613 [kJ/mol]
      Exch-Ind20,r                260.63683720 [mEh]     163.55208456 [kcal/mol]     684.30192180 [kJ/mol]
      Exch-Ind22                   14.38285698 [mEh]       9.02537901 [kcal/mol]      37.76218579 [kJ/mol]
      delta HF,r (2)               23.75401117 [mEh]      14.90586705 [kcal/mol]      62.36614774 [kJ/mol]

    Dispersion                     -3.15842630 [mEh]      -1.98194243 [kcal/mol]      -8.29244712 [kJ/mol]
      Disp20                       -4.98538594 [mEh]      -3.12837691 [kcal/mol]     -13.08912898 [kJ/mol]
      Disp21                        0.16941182 [mEh]       0.10630752 [kcal/mol]       0.44479066 [kJ/mol]
      Disp22 (SDQ)                 -0.13866103 [mEh]      -0.08701111 [kcal/mol]      -0.36405448 [kJ/mol]
      Disp22 (T)                   -0.36932494 [mEh]      -0.23175490 [kcal/mol]      -0.96966249 [kJ/mol]
      Est. Disp22 (T)              -0.43576383 [mEh]      -0.27344593 [kcal/mol]      -1.14409777 [kJ/mol]
      Exch-Disp20                   2.23197268 [mEh]       1.40058400 [kcal/mol]       5.86004346 [kJ/mol]

  Total HF                       -144.26187259 [mEh]     -90.52569175 [kcal/mol]    -378.75949430 [kJ/mol]
  Total SAPT0                    -147.01528585 [mEh]     -92.25348466 [kcal/mol]    -385.98857982 [kJ/mol]
  Total SAPT2                    -149.95099031 [mEh]     -94.09566702 [kcal/mol]    -393.69627083 [kJ/mol]
  Total SAPT2+                   -150.35600336 [mEh]     -94.34981655 [kcal/mol]    -394.75963243 [kJ/mol]

  Special recipe for scaled SAPT0 (see Manual):
    Electrostatics sSAPT0        -314.31915390 [mEh]    -197.23824686 [kcal/mol]    -825.24482487 [kJ/mol]
    Exchange sSAPT0               196.49815206 [mEh]     123.30445200 [kcal/mol]     515.90582716 [kJ/mol]
    Induction sSAPT0                9.74050721 [mEh]       6.11226055 [kcal/mol]      25.57369815 [kJ/mol]
    Dispersion sSAPT0              -2.44357276 [mEh]      -1.53336506 [kcal/mol]      -6.41559941 [kJ/mol]
  Total sSAPT0                   -110.52406739 [mEh]     -69.35489937 [kcal/mol]    -290.18089896 [kJ/mol]
  --------------------------------------------------------------------------------------------------------

*** Psi4 exiting successfully. Buy a developer a beer!
