                               Psi4 1.9 release

  ==> Input File <==

--------------------------------------------------------------------------
MEMORY 60 GB

molecule dimer {
1 1
Na     0.000000     0.000000     0.000000
--
-1 1
Cl     2.133093     0.000000     0.000000

units ang
no_reorient
no_com
symmetry c1
}

set {
basis        aug-cc-pVTZ
scf_type     df
}

energy("sapt2+")
--------------------------------------------------------------------------

  //              Dimer HF             //
    Molecular point group: c1
  Charge       = 0
  Multiplicity = 1
  Basis Set: AUG-CC-PVTZ
    Blend: AUG-CC-PVTZ
  Basis Set: (AUG-CC-PVTZ AUX)
    Blend: AUG-CC-PVTZ-JKFIT + DEF2-UNIVERSAL-JKFIT
  @DF-RHF Final Energy:  -621.44304586212979
    Total Energy =                       -621.4430458621297930
 Dipole X            :        -71.8298352           68.5263467           -3.3034885
 Dipole Y            :         -0.0000000            0.0000000           -0.0000000
 Dipole Z            :          0.0000000            0.0000000            0.0000000
 Magnitude           :                                                    3.3034885
  //            Monomer A HF           //
    Molecular point group: c1
  Multiplicity = 1
  Basis Set: AUG-CC-PVTZ
    Blend: AUG-CC-PVTZ
  Basis Set: (AUG-CC-PVTZ AUX)
    Blend: AUG-CC-PVTZ-JKFIT + DEF2-UNIVERSAL-JKFIT
  @DF-RHF Final Energy:  -161.67603861473034
    Total Energy =                       -161.6760386147303450
  //            Monomer B HF           //
    Molecular point group: c1

    Geometry (in Angstrom), charge = -1, multiplicity = 1:

       Center              X                  Y                   Z               Mass
    ------------   -----------------  -----------------  -----------------  -----------------
      Gh(NA)          0.000000000000     0.000000000000     0.000000000000    22.989769282000
         CL           2.133093000000     0.000000000000     0.000000000000    34.968852682000

  Charge       = -1
  Multiplicity = 1
  Basis Set: AUG-CC-PVTZ
    Blend: AUG-CC-PVTZ
  Basis Set: (AUG-CC-PVTZ AUX)
    Blend: AUG-CC-PVTZ-JKFIT + DEF2-UNIVERSAL-JKFIT

    Orbital Energies [Eh]
    ---------------------

    Doubly Occupied:

       1A   -104.506481     2A    -10.229861     3A     -7.695915
       4A     -7.695915     5A     -7.695896     6A     -0.733491
       7A     -0.150332     8A     -0.150318     9A     -0.150318

  @DF-RHF Final Energy:  -459.57351182022012

   => Energetics <=

    Nuclear Repulsion Energy =              0.0000000000000000
    One-Electron Energy =                -641.1299664741063680
    Two-Electron Energy =                 181.5564546538862487
    Total Energy =                       -459.5735118202201193
 Dipole X            :        -72.5581932           68.5263467           -4.0318465
 Dipole Y            :          0.0000000            0.0000000            0.0000000
 Dipole Z            :          0.0000000            0.0000000            0.0000000
 Magnitude           :                                                    4.0318465

    SAPT Results
  --------------------------------------------------------------------------------------------------------
    Electrostatics               -263.59316163 [mEh]    -165.40720615 [kcal/mol]    -692.06375053 [kJ/mol]
      Elst10,r                   -263.72236710 [mEh]    -165.48828380 [kcal/mol]    -692.40297944 [kJ/mol]
      Elst12,r                      0.12920547 [mEh]       0.08107766 [kcal/mol]       0.33922891 [kJ/mol]

    Exchange                       93.85349341 [mEh]      58.89395626 [kcal/mol]     246.41231301 [kJ/mol]
      Exch10                       92.46579860 [mEh]      58.02316462 [kcal/mol]     242.76892077 [kJ/mol]
      Exch10(S^2)                  90.48102291 [mEh]      56.77769907 [kcal/mol]     237.55789291 [kJ/mol]
      Exch11(S^2)                  -1.89991468 [mEh]      -1.19221446 [kcal/mol]      -4.98822532 [kJ/mol]
      Exch12(S^2)                   3.28760950 [mEh]       2.06300611 [kcal/mol]       8.63161755 [kJ/mol]

    Induction                     -24.47390892 [mEh]     -15.35760971 [kcal/mol]     -64.25623902 [kJ/mol]
      Ind20,r                    -173.01152222 [mEh]    -108.56636927 [kcal/mol]    -454.24168901 [kJ/mol]
      Ind22                       -12.08208206 [mEh]      -7.58162096 [kcal/mol]     -31.72150209 [kJ/mol]
      Exch-Ind20,r                141.00632284 [mEh]      88.48280345 [kcal/mol]     370.21204962 [kJ/mol]
      Exch-Ind22                    9.84703182 [mEh]       6.17910575 [kcal/mol]      25.85337848 [kJ/mol]
      delta HF,r (2)                9.76634070 [mEh]       6.12847132 [kcal/mol]      25.64152398 [kJ/mol]

    Dispersion                     -1.89233597 [mEh]      -1.18745875 [kcal/mol]      -4.96832740 [kJ/mol]
      Disp20                       -2.56175521 [mEh]      -1.60752567 [kcal/mol]      -6.72588739 [kJ/mol]
      Disp21                        0.02625853 [mEh]       0.01647747 [kcal/mol]       0.06894176 [kJ/mol]
      Disp22 (SDQ)                 -0.07755738 [mEh]      -0.04866799 [kcal/mol]      -0.20362687 [kJ/mol]
      Disp22 (T)                   -0.18737817 [mEh]      -0.11758158 [kcal/mol]      -0.49196132 [kJ/mol]
      Est. Disp22 (T)              -0.23177451 [mEh]      -0.14544070 [kcal/mol]      -0.60852390 [kJ/mol]
      Exch-Disp20                   0.95249261 [mEh]       0.59769814 [kcal/mol]       2.50076901 [kJ/mol]

  Total HF                       -193.49542718 [mEh]    -121.42021369 [kcal/mol]    -508.02217407 [kJ/mol]
  Total SAPT0                    -195.10468978 [mEh]    -122.43004122 [kcal/mol]    -512.24729245 [kJ/mol]
  Total SAPT2                    -195.82283975 [mEh]    -122.88068712 [kcal/mol]    -514.13279492 [kJ/mol]
  Total SAPT2+                   -196.10591311 [mEh]    -123.05831834 [kcal/mol]    -514.87600394 [kJ/mol]

  Special recipe for scaled SAPT0 (see Manual):
    Electrostatics sSAPT0        -263.72236710 [mEh]    -165.48828380 [kcal/mol]    -692.40297944 [kJ/mol]
    Exchange sSAPT0                92.46579860 [mEh]      58.02316462 [kcal/mol]     242.76892077 [kJ/mol]
    Induction sSAPT0              -12.75455278 [mEh]      -8.00360270 [kcal/mol]     -33.48707370 [kJ/mol]
    Dispersion sSAPT0              -1.54519646 [mEh]      -0.96962542 [kcal/mol]      -4.05691275 [kJ/mol]
  Total sSAPT0                   -185.55631774 [mEh]    -116.43834730 [kcal/mol]    -487.17804511 [kJ/mol]
  --------------------------------------------------------------------------------------------------------

*** Psi4 exiting successfully. Buy a developer a beer!
