                               Psi4 1.9 release

  ==> Input File <==

--------------------------------------------------------------------------
MEMORY 60 GB

molecule dimer {
1 1
Na     0.000000     0.000000     0.000000
--
-1 1
Cl     4.740206     0.000000     0.000000

units ang
no_reorient
no_com
symmetry c1
}

set {
basis        aug-cc-pVTZ
scf_type     df
}

energy("sapt2+")
--------------------------------------------------------------------------

  //              Dimer HF             //
    Molecular point group: c1
  Charge       = 0
  Multiplicity = 1
  Basis Set: AUG-CC-PVTZ
    Blend: AUG-CC-PVTZ
  Basis Set: (AUG-CC-PVTZ AUX)
    Blend: AUG-CC-PVTZ-JKFIT + DEF2-UNIVERSAL-JKFIT
  @DF-RHF Final Energy:  -621.36438313846634
    Total Energy =                       -621.3643831384663372
 Dipole X            :       -160.7457008          152.2807490           -8.4649518
 Dipole Y            :         -0.0000000            0.0000000           -0.0000000
 Dipole Z            :         -0.0000000            0.0000000           -0.0000000
 Magnitude           :                                                    8.4649518
  //            Monomer A HF           //
    Molecular point group: c1
  Multiplicity = 1
  Basis Set: AUG-CC-PVTZ
    Blend: AUG-CC-PVTZ
  Basis Set: (AUG-CC-PVTZ AUX)
    Blend: AUG-CC-PVTZ-JKFIT + DEF2-UNIVERSAL-JKFIT
  @DF-RHF Final Energy:  -161.67602469176484
    Total Energy =                       -161.6760246917648374
  //            Monomer B HF           //
    Molecular point group: c1

    Geometry (in Angstrom), charge = -1, multiplicity = 1:

       Center              X                  Y                   Z               Mass
    ------------   -----------------  -----------------  -----------------  -----------------
      Gh(NA)          0.000000000000     0.000000000000     0.000000000000    22.989769282000
         CL           4.740206000000     0.000000000000     0.000000000000    34.968852682000

  Charge       = -1
  Multiplicity = 1
  Basis Set: AUG-CC-PVTZ
    Blend: AUG-CC-PVTZ
  Basis Set: (AUG-CC-PVTZ AUX)
    Blend: AUG-CC-PVTZ-JKFIT + DEF2-UNIVERSAL-JKFIT

    Orbital Energies [Eh]
    ---------------------

    Doubly Occupied:

       1A   -104.506047     2A    -10.229765     3A     -7.695802
       4A     -7.695802     5A     -7.695796     6A     -0.733513
       7A     -0.150338     8A     -0.150338     9A     -0.150337

  @DF-RHF Final Energy:  -459.57348612252900

   => Energetics <=

    Nuclear Repulsion Energy =              0.0000000000000000
    One-Electron Energy =                -641.1314976317991068
    Two-Electron Energy =                 181.5580115092700453
    Total Energy =                       -459.5734861225290615
 Dipole X            :       -161.2385512          152.2807490           -8.9578022
 Dipole Y            :         -0.0000000            0.0000000           -0.0000000
 Dipole Z            :         -0.0000000            0.0000000           -0.0000000
 Magnitude           :                                                    8.9578022

    SAPT Results
  --------------------------------------------------------------------------------------------------------
    Electrostatics               -111.68270163 [mEh]     -70.08195333 [kcal/mol]    -293.22289274 [kJ/mol]
      Elst10,r                   -111.65030446 [mEh]     -70.06162380 [kcal/mol]    -293.13783398 [kJ/mol]
      Elst12,r                     -0.03239717 [mEh]      -0.02032953 [kcal/mol]      -0.08505875 [kJ/mol]

    Exchange                        0.08442743 [mEh]       0.05297901 [kcal/mol]       0.22166419 [kJ/mol]
      Exch10                        0.06549997 [mEh]       0.04110185 [kcal/mol]       0.17197014 [kJ/mol]
      Exch10(S^2)                   0.06549880 [mEh]       0.04110112 [kcal/mol]       0.17196707 [kJ/mol]
      Exch11(S^2)                  -0.00034418 [mEh]      -0.00021598 [kcal/mol]      -0.00090365 [kJ/mol]
      Exch12(S^2)                   0.01927165 [mEh]       0.01209314 [kcal/mol]       0.05059770 [kJ/mol]

    Induction                      -3.60167641 [mEh]      -2.26008607 [kcal/mol]      -9.45620011 [kJ/mol]
      Ind20,r                      -2.91959948 [mEh]      -1.83207633 [kcal/mol]      -7.66540737 [kJ/mol]
      Ind22                        -0.33664559 [mEh]      -0.21124830 [kcal/mol]      -0.88386289 [kJ/mol]
      Exch-Ind20,r                  0.19503737 [mEh]       0.12238780 [kcal/mol]       0.51207054 [kJ/mol]
      Exch-Ind22                    0.02248886 [mEh]       0.01411197 [kcal/mol]       0.05904450 [kJ/mol]
      delta HF,r (2)               -0.56295757 [mEh]      -0.35326121 [kcal/mol]      -1.47804489 [kJ/mol]

    Dispersion                     -0.02116681 [mEh]      -0.01328238 [kcal/mol]      -0.05557346 [kJ/mol]
      Disp20                       -0.01800920 [mEh]      -0.01130095 [kcal/mol]      -0.04728316 [kJ/mol]
      Disp21                       -0.00062042 [mEh]      -0.00038932 [kcal/mol]      -0.00162890 [kJ/mol]
      Disp22 (SDQ)                 -0.00128987 [mEh]      -0.00080941 [kcal/mol]      -0.00338656 [kJ/mol]
      Disp22 (T)                   -0.00169466 [mEh]      -0.00106341 [kcal/mol]      -0.00444933 [kJ/mol]
      Est. Disp22 (T)              -0.00197328 [mEh]      -0.00123825 [kcal/mol]      -0.00518086 [kJ/mol]
      Exch-Disp20                   0.00072596 [mEh]       0.00045555 [kcal/mol]       0.00190602 [kJ/mol]

  Total HF                       -114.87232417 [mEh]     -72.08347169 [kcal/mol]    -301.59724556 [kJ/mol]
  Total SAPT0                    -114.88960741 [mEh]     -72.09431709 [kcal/mol]    -301.64262271 [kJ/mol]
  Total SAPT2                    -115.21723385 [mEh]     -72.29990578 [kcal/mol]    -302.50280579 [kJ/mol]
  Total SAPT2+                   -115.22111742 [mEh]     -72.30234276 [kcal/mol]    -302.51300211 [kJ/mol]

  Special recipe for scaled SAPT0 (see Manual):
    Electrostatics sSAPT0        -111.65030446 [mEh]     -70.06162380 [kcal/mol]    -293.13783398 [kJ/mol]
    Exchange sSAPT0                 0.06549997 [mEh]       0.04110185 [kcal/mol]       0.17197014 [kJ/mol]
    Induction sSAPT0               -3.28750924 [mEh]      -2.06294319 [kcal/mol]      -8.63135431 [kJ/mol]
    Dispersion sSAPT0              -0.01728320 [mEh]      -0.01084537 [kcal/mol]      -0.04537704 [kJ/mol]
  Total sSAPT0                   -114.88959694 [mEh]     -72.09431052 [kcal/mol]    -301.64259520 [kJ/mol]
  --------------------------------------------------------------------------------------------------------

*** Psi4 exiting successfully. Buy a developer a beer!
