                               Psi4 1.9 release

  ==> Input File <==

--------------------------------------------------------------------------
MEMORY 60 GB

molecule dimer {
1 1
Na     0.000000     0.000000     0.000000
--
-1 1
Br     5.028318     0.000000     0.000000

units ang
no_reorient
no_com
symmetry c1
}

set {
basis        aug-cc-pVTZ
scf_type     df
}

energy("sapt2+")
--------------------------------------------------------------------------

  //              Dimer HF             //
    Molecular point group: c1
  Charge       = 0
  Multiplicity = 1
  Basis Set: AUG-CC-PVTZ
    Blend: AUG-CC-PVTZ
  Basis Set: (AUG-CC-PVTZ AUX)
    Blend: AUG-CC-PVTZ-JKFIT + DEF2-UNIVERSAL-JKFIT
  @DF-RHF Final Energy: -2734.31857177762686
    Total Energy =                      -2734.3185717776268575
 Dipole X            :       -341.4501097          332.5750362           -8.8750735
 Dipole Y            :          0.0000000            0.0000000            0.0000000
 Dipole Z            :          0.0000000            0.0000000            0.0000000
 Magnitude           :                                                    8.8750735
  //            Monomer A HF           //
    Molecular point group: c1
  Multiplicity = 1
  Basis Set: AUG-CC-PVTZ
    Blend: AUG-CC-PVTZ
  Basis Set: (AUG-CC-PVTZ AUX)
    Blend: AUG-CC-PVTZ-JKFIT + DEF2-UNIVERSAL-JKFIT
  @DF-RHF Final Energy:  -161.67602482754916
    Total Energy =                       -161.6760248275491563
  //            Monomer B HF           //
    Molecular point group: c1

    Geometry (in Angstrom), charge = -1, multiplicity = 1:

       Center              X                  Y                   Z               Mass
    ------------   -----------------  -----------------  -----------------  -----------------
      Gh(NA)          0.000000000000     0.000000000000     0.000000000000    22.989769282000
         BR           5.028318000000     0.000000000000     0.000000000000    78.918337600000

  Charge       = -1
  Multiplicity = 1
  Basis Set: AUG-CC-PVTZ
    Blend: AUG-CC-PVTZ
  Basis Set: (AUG-CC-PVTZ AUX)
    Blend: AUG-CC-PVTZ-JKFIT + DEF2-UNIVERSAL-JKFIT

    Orbital Energies [Eh]
    ---------------------

    Doubly Occupied:

       1A   -489.720441     2A    -64.860508     3A    -58.214981
       4A    -58.214981     5A    -58.214979     6A     -9.532870
       7A     -7.140214     8A     -7.140214     9A     -7.140211
      10A     -2.881882    11A     -2.881882    12A     -2.881881
      13A     -2.881881    14A     -2.881875    15A     -0.686002
      16A     -0.139340    17A     -0.139340    18A     -0.139339

  @DF-RHF Final Energy: -2572.53367024868930

   => Energetics <=

    Nuclear Repulsion Energy =              0.0000000000000000
    One-Electron Energy =               -3593.6816969738265470
    Two-Electron Energy =                1021.1480267251370151
    Total Energy =                      -2572.5336702486893046
 Dipole X            :       -342.0773684          332.5750362           -9.5023322
 Dipole Y            :         -0.0000000            0.0000000           -0.0000000
 Dipole Z            :          0.0000000            0.0000000            0.0000000
 Magnitude           :                                                    9.5023322

    SAPT Results
  --------------------------------------------------------------------------------------------------------
    Electrostatics               -105.25609480 [mEh]     -66.04919666 [kcal/mol]    -276.34983882 [kJ/mol]
      Elst10,r                   -105.22866177 [mEh]     -66.03198218 [kcal/mol]    -276.27781342 [kJ/mol]
      Elst12,r                     -0.02743302 [mEh]      -0.01721448 [kcal/mol]      -0.07202540 [kJ/mol]

    Exchange                        0.07045922 [mEh]       0.04421383 [kcal/mol]       0.18499067 [kJ/mol]
      Exch10                        0.05761186 [mEh]       0.03615199 [kcal/mol]       0.15125993 [kJ/mol]
      Exch10(S^2)                   0.05761098 [mEh]       0.03615144 [kcal/mol]       0.15125761 [kJ/mol]
      Exch11(S^2)                  -0.00030233 [mEh]      -0.00018972 [kcal/mol]      -0.00079378 [kJ/mol]
      Exch12(S^2)                   0.01314969 [mEh]       0.00825156 [kcal/mol]       0.03452452 [kJ/mol]

    Induction                      -3.99797797 [mEh]      -2.50876905 [kcal/mol]     -10.49668972 [kJ/mol]
      Ind20,r                      -3.14464877 [mEh]      -1.97329689 [kcal/mol]      -8.25627420 [kJ/mol]
      Ind22                        -0.31042858 [mEh]      -0.19479687 [kcal/mol]      -0.81503011 [kJ/mol]
      Exch-Ind20,r                  0.18337453 [mEh]       0.11506926 [kcal/mol]       0.48144976 [kJ/mol]
      Exch-Ind22                    0.01810208 [mEh]       0.01135923 [kcal/mol]       0.04752701 [kJ/mol]
      delta HF,r (2)               -0.74437724 [mEh]      -0.46710377 [kcal/mol]      -1.95436218 [kJ/mol]

    Dispersion                     -0.01901307 [mEh]      -0.01193088 [kcal/mol]      -0.04991881 [kJ/mol]
      Disp20                       -0.01647735 [mEh]      -0.01033969 [kcal/mol]      -0.04326128 [kJ/mol]
      Disp21                       -0.00032906 [mEh]      -0.00020649 [kcal/mol]      -0.00086395 [kJ/mol]
      Disp22 (SDQ)                 -0.00110727 [mEh]      -0.00069482 [kcal/mol]      -0.00290712 [kJ/mol]
      Disp22 (T)                   -0.00147990 [mEh]      -0.00092865 [kcal/mol]      -0.00388547 [kJ/mol]
      Est. Disp22 (T)              -0.00172069 [mEh]      -0.00107975 [kcal/mol]      -0.00451766 [kJ/mol]
      Exch-Disp20                   0.00062129 [mEh]       0.00038987 [kcal/mol]       0.00163121 [kJ/mol]

  Total HF                       -108.87670139 [mEh]     -68.32116159 [kcal/mol]    -285.85574011 [kJ/mol]
  Total SAPT0                    -108.89255744 [mEh]     -68.33111142 [kcal/mol]    -285.89737018 [kJ/mol]
  Total SAPT2                    -109.19946960 [mEh]     -68.52370171 [kcal/mol]    -286.70316794 [kJ/mol]
  Total SAPT2+                   -109.20262662 [mEh]     -68.52568276 [kcal/mol]    -286.71145668 [kJ/mol]

  Special recipe for scaled SAPT0 (see Manual):
    Electrostatics sSAPT0        -105.22866177 [mEh]     -66.03198218 [kcal/mol]    -276.27781342 [kJ/mol]
    Exchange sSAPT0                 0.05761186 [mEh]       0.03615199 [kcal/mol]       0.15125993 [kJ/mol]
    Induction sSAPT0               -3.70564303 [mEh]      -2.32532611 [kcal/mol]      -9.72916443 [kJ/mol]
    Dispersion sSAPT0              -0.01585603 [mEh]      -0.00994981 [kcal/mol]      -0.04162999 [kJ/mol]
  Total sSAPT0                   -108.89254896 [mEh]     -68.33110610 [kcal/mol]    -285.89734792 [kJ/mol]
  --------------------------------------------------------------------------------------------------------

*** Psi4 exiting successfully. Buy a developer a beer!
