                               Psi4 1.9 release

  ==> Input File <==

--------------------------------------------------------------------------
MEMORY 60 GB

molecule dimer {
1 1
Na     0.000000     0.000000     0.000000
--
-1 1
Br     2.765575     0.000000     0.000000

units ang
no_reorient
no_com
symmetry c1
}

set {
basis        aug-cc-pVTZ
scf_type     df
}

energy("sapt2+")
--------------------------------------------------------------------------

  //              Dimer HF             //
    Molecular point group: c1
  Charge       = 0
  Multiplicity = 1
  Basis Set: AUG-CC-PVTZ
    Blend: AUG-CC-PVTZ
  Basis Set: (AUG-CC-PVTZ AUX)
    Blend: AUG-CC-PVTZ-JKFIT + DEF2-UNIVERSAL-JKFIT
  @DF-RHF Final Energy: -2734.40233013906845
    Total Energy =                      -2734.4023301390684537
 Dipole X            :       -187.1052906          182.9162765           -4.1890141
 Dipole Y            :          0.0000000            0.0000000            0.0000000
 Dipole Z            :         -0.0000000            0.0000000           -0.0000000
 Magnitude           :                                                    4.1890141
  //            Monomer A HF           //
    Molecular point group: c1
  Multiplicity = 1
  Basis Set: AUG-CC-PVTZ
    Blend: AUG-CC-PVTZ
  Basis Set: (AUG-CC-PVTZ AUX)
    Blend: AUG-CC-PVTZ-JKFIT + DEF2-UNIVERSAL-JKFIT
  @DF-RHF Final Energy:  -161.67603405443020
    Total Energy =                       -161.6760340544302323
  //            Monomer B HF           //
    Molecular point group: c1

    Geometry (in Angstrom), charge = -1, multiplicity = 1:

       Center              X                  Y                   Z               Mass
    ------------   -----------------  -----------------  -----------------  -----------------
      Gh(NA)          0.000000000000     0.000000000000     0.000000000000    22.989769282000
         BR           2.765575000000     0.000000000000     0.000000000000    78.918337600000

  Charge       = -1
  Multiplicity = 1
  Basis Set: AUG-CC-PVTZ
    Blend: AUG-CC-PVTZ
  Basis Set: (AUG-CC-PVTZ AUX)
    Blend: AUG-CC-PVTZ-JKFIT + DEF2-UNIVERSAL-JKFIT

    Orbital Energies [Eh]
    ---------------------

    Doubly Occupied:

       1A   -489.720859     2A    -64.860801     3A    -58.215292
       4A    -58.215292     5A    -58.215289     6A     -9.532957
       7A     -7.140303     8A     -7.140303     9A     -7.140294
      10A     -2.881983    11A     -2.881983    12A     -2.881975
      13A     -2.881975    14A     -2.881968    15A     -0.685997
      16A     -0.139340    17A     -0.139337    18A     -0.139337

  @DF-RHF Final Energy: -2572.53368373821422

   => Energetics <=

    Nuclear Repulsion Energy =              0.0000000000000000
    One-Electron Energy =               -3593.6767962492976949
    Two-Electron Energy =                1021.1431125110833591
    Total Energy =                      -2572.5336837382142221
 Dipole X            :       -188.1428017          182.9162765           -5.2265251
 Dipole Y            :          0.0000000            0.0000000            0.0000000
 Dipole Z            :         -0.0000000            0.0000000           -0.0000000
 Magnitude           :                                                    5.2265251

    SAPT Results
  --------------------------------------------------------------------------------------------------------
    Electrostatics               -194.44502425 [mEh]    -122.01609484 [kcal/mol]    -510.51534082 [kJ/mol]
      Elst10,r                   -194.26542129 [mEh]    -121.90339228 [kcal/mol]    -510.04379332 [kJ/mol]
      Elst12,r                     -0.17960296 [mEh]      -0.11270256 [kcal/mol]      -0.47154751 [kJ/mol]

    Exchange                       21.60595699 [mEh]      13.55794270 [kcal/mol]      56.72643226 [kJ/mol]
      Exch10                       20.56446494 [mEh]      12.90439657 [kcal/mol]      53.99199525 [kJ/mol]
      Exch10(S^2)                  20.45758883 [mEh]      12.83733080 [kcal/mol]      53.71139207 [kJ/mol]
      Exch11(S^2)                  -0.29930025 [mEh]      -0.18781375 [kcal/mol]      -0.78581271 [kJ/mol]
      Exch12(S^2)                   1.34079231 [mEh]       0.84135987 [kcal/mol]       3.52024971 [kJ/mol]

    Induction                     -20.85820068 [mEh]     -13.08871854 [kcal/mol]     -54.76319835 [kJ/mol]
      Ind20,r                     -63.99721141 [mEh]     -40.15885646 [kcal/mol]    -168.02465542 [kJ/mol]
      Ind22                        -5.45906899 [mEh]      -3.42561751 [kcal/mol]     -14.33278365 [kJ/mol]
      Exch-Ind20,r                 41.17455605 [mEh]      25.83742400 [kcal/mol]     108.10378200 [kJ/mol]
      Exch-Ind22                    3.51225838 [mEh]       2.20397541 [kcal/mol]       9.22143310 [kJ/mol]
      delta HF,r (2)                3.91126529 [mEh]       2.45435603 [kcal/mol]      10.26902561 [kJ/mol]

    Dispersion                     -0.72313190 [mEh]      -0.45377212 [kcal/mol]      -1.89858254 [kJ/mol]
      Disp20                       -0.80591339 [mEh]      -0.50571829 [kcal/mol]      -2.11592532 [kJ/mol]
      Disp21                       -0.02145744 [mEh]      -0.01346475 [kcal/mol]      -0.05633650 [kJ/mol]
      Disp22 (SDQ)                 -0.03230662 [mEh]      -0.02027271 [kcal/mol]      -0.08482102 [kJ/mol]
      Disp22 (T)                   -0.06101688 [mEh]      -0.03828867 [kcal/mol]      -0.16019979 [kJ/mol]
      Est. Disp22 (T)              -0.07249470 [mEh]      -0.04549111 [kcal/mol]      -0.19033480 [kJ/mol]
      Exch-Disp20                   0.20904025 [mEh]       0.13117474 [kcal/mol]       0.54883510 [kJ/mol]

  Total HF                       -192.61234642 [mEh]    -120.86607215 [kcal/mol]    -505.70364587 [kJ/mol]
  Total SAPT0                    -193.20921956 [mEh]    -121.24061570 [kcal/mol]    -507.27073608 [kJ/mol]
  Total SAPT2                    -194.29414108 [mEh]    -121.92141423 [kcal/mol]    -510.11919713 [kJ/mol]
  Total SAPT2+                   -194.42039984 [mEh]    -122.00064280 [kcal/mol]    -510.45068946 [kJ/mol]

  Special recipe for scaled SAPT0 (see Manual):
    Electrostatics sSAPT0        -194.26542129 [mEh]    -121.90339228 [kcal/mol]    -510.04379332 [kJ/mol]
    Exchange sSAPT0                20.56446494 [mEh]      12.90439657 [kcal/mol]      53.99199525 [kJ/mol]
    Induction sSAPT0              -18.26269101 [mEh]     -11.46001163 [kcal/mol]     -47.94868865 [kJ/mol]
    Dispersion sSAPT0              -0.59357974 [mEh]      -0.37247691 [kcal/mol]      -1.55844340 [kJ/mol]
  Total sSAPT0                   -192.55722710 [mEh]    -120.83148425 [kcal/mol]    -505.55893011 [kJ/mol]
  --------------------------------------------------------------------------------------------------------

*** Psi4 exiting successfully. Buy a developer a beer!
