                               Psi4 1.9 release

  ==> Input File <==

--------------------------------------------------------------------------
MEMORY 60 GB

molecule dimer {
1 1
Na     0.000000     0.000000     0.000000
--
-1 1
Br     3.771238     0.000000     0.000000

units ang
no_reorient
no_com
symmetry c1
}

set {
basis        aug-cc-pVTZ
scf_type     df
}

energy("sapt2+")
--------------------------------------------------------------------------

  //              Dimer HF             //
    Molecular point group: c1
  Charge       = 0
  Multiplicity = 1
  Basis Set: AUG-CC-PVTZ
    Blend: AUG-CC-PVTZ
  Basis Set: (AUG-CC-PVTZ AUX)
    Blend: AUG-CC-PVTZ-JKFIT + DEF2-UNIVERSAL-JKFIT
  @DF-RHF Final Energy: -2734.35880891177885
    Total Energy =                      -2734.3588089117788513
 Dipole X            :       -255.6184843          249.4312441           -6.1872402
 Dipole Y            :          0.0000000            0.0000000            0.0000000
 Dipole Z            :         -0.0000000            0.0000000           -0.0000000
 Magnitude           :                                                    6.1872402
  //            Monomer A HF           //
    Molecular point group: c1
  Multiplicity = 1
  Basis Set: AUG-CC-PVTZ
    Blend: AUG-CC-PVTZ
  Basis Set: (AUG-CC-PVTZ AUX)
    Blend: AUG-CC-PVTZ-JKFIT + DEF2-UNIVERSAL-JKFIT
  @DF-RHF Final Energy:  -161.67602908071513
    Total Energy =                       -161.6760290807151250
  //            Monomer B HF           //
    Molecular point group: c1

    Geometry (in Angstrom), charge = -1, multiplicity = 1:

       Center              X                  Y                   Z               Mass
    ------------   -----------------  -----------------  -----------------  -----------------
      Gh(NA)          0.000000000000     0.000000000000     0.000000000000    22.989769282000
         BR           3.771238000000     0.000000000000     0.000000000000    78.918337600000

  Charge       = -1
  Multiplicity = 1
  Basis Set: AUG-CC-PVTZ
    Blend: AUG-CC-PVTZ
  Basis Set: (AUG-CC-PVTZ AUX)
    Blend: AUG-CC-PVTZ-JKFIT + DEF2-UNIVERSAL-JKFIT

    Orbital Energies [Eh]
    ---------------------

    Doubly Occupied:

       1A   -489.720575     2A    -64.860601     3A    -58.215079
       4A    -58.215079     5A    -58.215078     6A     -9.532897
       7A     -7.140241     8A     -7.140241     9A     -7.140236
      10A     -2.881912    11A     -2.881912    12A     -2.881910
      13A     -2.881910    14A     -2.881908    15A     -0.686000
      16A     -0.139341    17A     -0.139337    18A     -0.139337

  @DF-RHF Final Energy: -2572.53367466907321

   => Energetics <=

    Nuclear Repulsion Energy =              0.0000000000000000
    One-Electron Energy =               -3593.6801526335857488
    Two-Electron Energy =                1021.1464779645126555
    Total Energy =                      -2572.5336746690732070
 Dipole X            :       -256.5579651          249.4312441           -7.1267211
 Dipole Y            :          0.0000000            0.0000000            0.0000000
 Dipole Z            :         -0.0000000            0.0000000           -0.0000000
 Magnitude           :                                                    7.1267211

    SAPT Results
  --------------------------------------------------------------------------------------------------------
    Electrostatics               -140.55110321 [mEh]     -88.19714882 [kcal/mol]    -369.01687064 [kJ/mol]
      Elst10,r                   -140.45963805 [mEh]     -88.13975356 [kcal/mol]    -368.77672890 [kJ/mol]
      Elst12,r                     -0.09146516 [mEh]      -0.05739525 [kcal/mol]      -0.24014174 [kJ/mol]

    Exchange                        1.52765699 [mEh]       0.95861923 [kcal/mol]       4.01086287 [kJ/mol]
      Exch10                        1.35358725 [mEh]       0.84938882 [kcal/mol]       3.55384283 [kJ/mol]
      Exch10(S^2)                   1.35310088 [mEh]       0.84908362 [kcal/mol]       3.55256586 [kJ/mol]
      Exch11(S^2)                  -0.01076701 [mEh]      -0.00675640 [kcal/mol]      -0.02826877 [kJ/mol]
      Exch12(S^2)                   0.18483675 [mEh]       0.11598681 [kcal/mol]       0.48528881 [kJ/mol]

    Induction                     -10.95398435 [mEh]      -6.87372895 [kcal/mol]     -28.75968194 [kJ/mol]
      Ind20,r                     -12.75559570 [mEh]      -8.00425715 [kcal/mol]     -33.48981191 [kJ/mol]
      Ind22                        -1.32189550 [mEh]      -0.82950195 [kcal/mol]      -3.47063616 [kJ/mol]
      Exch-Ind20,r                  3.54157238 [mEh]       2.22237022 [kcal/mol]       9.29839701 [kJ/mol]
      Exch-Ind22                    0.36702234 [mEh]       0.23031000 [kcal/mol]       0.96361702 [kJ/mol]
      delta HF,r (2)               -0.78508786 [mEh]      -0.49265007 [kcal/mol]      -2.06124790 [kJ/mol]

    Dispersion                     -0.12980572 [mEh]      -0.08145432 [kcal/mol]      -0.34080488 [kJ/mol]
      Disp20                       -0.12090019 [mEh]      -0.07586602 [kcal/mol]      -0.31742341 [kJ/mol]
      Disp21                       -0.00522751 [mEh]      -0.00328031 [kcal/mol]      -0.01372482 [kJ/mol]
      Disp22 (SDQ)                 -0.00721434 [mEh]      -0.00452707 [kcal/mol]      -0.01894125 [kJ/mol]
      Disp22 (T)                   -0.01015468 [mEh]      -0.00637216 [kcal/mol]      -0.02666110 [kJ/mol]
      Est. Disp22 (T)              -0.01196499 [mEh]      -0.00750815 [kcal/mol]      -0.03141409 [kJ/mol]
      Exch-Disp20                   0.01550131 [mEh]       0.00972722 [kcal/mol]       0.04069869 [kJ/mol]

  Total HF                       -149.10516199 [mEh]     -93.56490174 [kcal/mol]    -391.47554887 [kJ/mol]
  Total SAPT0                    -149.21056087 [mEh]     -93.63104053 [kcal/mol]    -391.75227359 [kJ/mol]
  Total SAPT2                    -150.08282945 [mEh]     -94.17839733 [kcal/mol]    -394.04241443 [kJ/mol]
  Total SAPT2+                   -150.10723629 [mEh]     -94.19371286 [kcal/mol]    -394.10649459 [kJ/mol]

  Special recipe for scaled SAPT0 (see Manual):
    Electrostatics sSAPT0        -140.45963805 [mEh]     -88.13975356 [kcal/mol]    -368.77672890 [kJ/mol]
    Exchange sSAPT0                 1.35358725 [mEh]       0.84938882 [kcal/mol]       3.55384283 [kJ/mol]
    Induction sSAPT0               -9.99529074 [mEh]      -6.27213963 [kcal/mol]     -26.24263223 [kJ/mol]
    Dispersion sSAPT0              -0.10538216 [mEh]      -0.06612830 [kcal/mol]      -0.27668081 [kJ/mol]
  Total sSAPT0                   -149.20672370 [mEh]     -93.62863267 [kcal/mol]    -391.74219911 [kJ/mol]
  --------------------------------------------------------------------------------------------------------

*** Psi4 exiting successfully. Buy a developer a beer!
