                               Psi4 1.9 release

  ==> Input File <==

--------------------------------------------------------------------------
MEMORY 60 GB

molecule dimer {
1 1
Na     0.000000     0.000000     0.000000
--
-1 1
Br     2.388451     0.000000     0.000000

units ang
no_reorient
no_com
symmetry c1
}

set {
basis        aug-cc-pVTZ
scf_type     df
}

energy("sapt2+")
--------------------------------------------------------------------------

  //              Dimer HF             //
    Molecular point group: c1
  Charge       = 0
  Multiplicity = 1
  Basis Set: AUG-CC-PVTZ
    Blend: AUG-CC-PVTZ
  Basis Set: (AUG-CC-PVTZ AUX)
    Blend: AUG-CC-PVTZ-JKFIT + DEF2-UNIVERSAL-JKFIT
  @DF-RHF Final Energy: -2734.40279142395957
    Total Energy =                      -2734.4027914239595702
 Dipole X            :       -161.5181359          157.9731389           -3.5449970
 Dipole Y            :         -0.0000000            0.0000000           -0.0000000
 Dipole Z            :          0.0000000            0.0000000            0.0000000
 Magnitude           :                                                    3.5449970
  //            Monomer A HF           //
    Molecular point group: c1
  Multiplicity = 1
  Basis Set: AUG-CC-PVTZ
    Blend: AUG-CC-PVTZ
  Basis Set: (AUG-CC-PVTZ AUX)
    Blend: AUG-CC-PVTZ-JKFIT + DEF2-UNIVERSAL-JKFIT
  @DF-RHF Final Energy:  -161.67603833398169
    Total Energy =                       -161.6760383339816940
  //            Monomer B HF           //
    Molecular point group: c1

    Geometry (in Angstrom), charge = -1, multiplicity = 1:

       Center              X                  Y                   Z               Mass
    ------------   -----------------  -----------------  -----------------  -----------------
      Gh(NA)          0.000000000000     0.000000000000     0.000000000000    22.989769282000
         BR           2.388451000000     0.000000000000     0.000000000000    78.918337600000

  Charge       = -1
  Multiplicity = 1
  Basis Set: AUG-CC-PVTZ
    Blend: AUG-CC-PVTZ
  Basis Set: (AUG-CC-PVTZ AUX)
    Blend: AUG-CC-PVTZ-JKFIT + DEF2-UNIVERSAL-JKFIT

    Orbital Energies [Eh]
    ---------------------

    Doubly Occupied:

       1A   -489.721070     2A    -64.860945     3A    -58.215445
       4A    -58.215445     5A    -58.215441     6A     -9.533000
       7A     -7.140346     8A     -7.140346     9A     -7.140332
      10A     -2.882031    11A     -2.882031    12A     -2.882022
      13A     -2.882022    14A     -2.882016    15A     -0.685998
      16A     -0.139339    17A     -0.139339    18A     -0.139339

  @DF-RHF Final Energy: -2572.53368850236848

   => Energetics <=

    Nuclear Repulsion Energy =              0.0000000000000000
    One-Electron Energy =               -3593.6743595068437571
    Two-Electron Energy =                1021.1406710044751662
    Total Energy =                      -2572.5336885023684772
 Dipole X            :       -162.4873840          157.9731389           -4.5142451
 Dipole Y            :         -0.0000000            0.0000000           -0.0000000
 Dipole Z            :          0.0000000            0.0000000            0.0000000
 Magnitude           :                                                    4.5142451

    SAPT Results
  --------------------------------------------------------------------------------------------------------
    Electrostatics               -230.91167578 [mEh]    -144.89926416 [kcal/mol]    -606.25852123 [kJ/mol]
      Elst10,r                   -230.81684051 [mEh]    -144.83975412 [kcal/mol]    -606.00953126 [kJ/mol]
      Elst12,r                     -0.09483527 [mEh]      -0.05951003 [kcal/mol]      -0.24898997 [kJ/mol]

    Exchange                       62.04348341 [mEh]      38.93287362 [kcal/mol]     162.89514324 [kJ/mol]
      Exch10                       60.76392420 [mEh]      38.12993810 [kcal/mol]     159.53566101 [kJ/mol]
      Exch10(S^2)                  59.88009111 [mEh]      37.57532446 [kcal/mol]     157.21515755 [kJ/mol]
      Exch11(S^2)                  -1.19882978 [mEh]      -0.75227704 [kcal/mol]      -3.14752714 [kJ/mol]
      Exch12(S^2)                   2.47838898 [mEh]       1.55521257 [kcal/mol]       6.50700937 [kJ/mol]

    Induction                     -25.17142558 [mEh]     -15.79530802 [kcal/mol]     -66.08756874 [kJ/mol]
      Ind20,r                    -136.87358241 [mEh]     -85.88946967 [kcal/mol]    -359.36154111 [kJ/mol]
      Ind22                        -9.53477480 [mEh]      -5.98316152 [kcal/mol]     -25.03354779 [kJ/mol]
      Exch-Ind20,r                105.86988171 [mEh]      66.43435376 [kcal/mol]     277.96133615 [kJ/mol]
      Exch-Ind22                    7.37502053 [mEh]       4.62789525 [kcal/mol]      19.36311373 [kJ/mol]
      delta HF,r (2)                7.99202939 [mEh]       5.01507416 [kcal/mol]      20.98307027 [kJ/mol]

    Dispersion                     -1.38735420 [mEh]      -0.87057791 [kcal/mol]      -3.64249796 [kJ/mol]
      Disp20                       -1.76314934 [mEh]      -1.10639291 [kcal/mol]      -4.62914795 [kJ/mol]
      Disp21                       -0.00979768 [mEh]      -0.00614814 [kcal/mol]      -0.02572381 [kJ/mol]
      Disp22 (SDQ)                 -0.05894295 [mEh]      -0.03698726 [kcal/mol]      -0.15475470 [kJ/mol]
      Disp22 (T)                   -0.12925020 [mEh]      -0.08110573 [kcal/mol]      -0.33934635 [kJ/mol]
      Est. Disp22 (T)              -0.15474930 [mEh]      -0.09710665 [kcal/mol]      -0.40629424 [kJ/mol]
      Exch-Disp20                   0.59928507 [mEh]       0.37605706 [kcal/mol]       1.57342273 [kJ/mol]

  Total HF                       -193.06458761 [mEh]    -121.14985778 [kcal/mol]    -506.89100493 [kJ/mol]
  Total SAPT0                    -194.22845188 [mEh]    -121.88019363 [kcal/mol]    -509.94673015 [kJ/mol]
  Total SAPT2                    -195.20348221 [mEh]    -122.49203440 [kcal/mol]    -512.50667194 [kJ/mol]
  Total SAPT2+                   -195.42697215 [mEh]    -122.63227645 [kcal/mol]    -513.09344468 [kJ/mol]

  Special recipe for scaled SAPT0 (see Manual):
    Electrostatics sSAPT0        -230.81684051 [mEh]    -144.83975412 [kcal/mol]    -606.00953126 [kJ/mol]
    Exchange sSAPT0                60.76392420 [mEh]      38.12993810 [kcal/mol]     159.53566101 [kJ/mol]
    Induction sSAPT0              -18.25420274 [mEh]     -11.45468516 [kcal/mol]     -47.92640270 [kJ/mol]
    Dispersion sSAPT0              -1.13693423 [mEh]      -0.71343700 [kcal/mol]      -2.98502041 [kJ/mol]
  Total sSAPT0                   -189.44405328 [mEh]    -118.87793818 [kcal/mol]    -497.38529336 [kJ/mol]
  --------------------------------------------------------------------------------------------------------

*** Psi4 exiting successfully. Buy a developer a beer!
