                               Psi4 1.9 release

  ==> Input File <==

--------------------------------------------------------------------------
MEMORY 60 GB

molecule dimer {
1 1
Na     0.000000     0.000000     0.000000
--
-1 1
Br     3.016991     0.000000     0.000000

units ang
no_reorient
no_com
symmetry c1
}

set {
basis        aug-cc-pVTZ
scf_type     df
}

energy("sapt2+")
--------------------------------------------------------------------------

  //              Dimer HF             //
    Molecular point group: c1
  Charge       = 0
  Multiplicity = 1
  Basis Set: AUG-CC-PVTZ
    Blend: AUG-CC-PVTZ
  Basis Set: (AUG-CC-PVTZ AUX)
    Blend: AUG-CC-PVTZ-JKFIT + DEF2-UNIVERSAL-JKFIT
  @DF-RHF Final Energy: -2734.39274595408415
    Total Energy =                      -2734.3927459540836935
 Dipole X            :       -204.2034023          199.5450350           -4.6583673
 Dipole Y            :          0.0000000            0.0000000            0.0000000
 Dipole Z            :         -0.0000000            0.0000000           -0.0000000
 Magnitude           :                                                    4.6583673
  //            Monomer A HF           //
    Molecular point group: c1
  Multiplicity = 1
  Basis Set: AUG-CC-PVTZ
    Blend: AUG-CC-PVTZ
  Basis Set: (AUG-CC-PVTZ AUX)
    Blend: AUG-CC-PVTZ-JKFIT + DEF2-UNIVERSAL-JKFIT
  @DF-RHF Final Energy:  -161.67603269814245
    Total Energy =                       -161.6760326981424498
  //            Monomer B HF           //
    Molecular point group: c1

    Geometry (in Angstrom), charge = -1, multiplicity = 1:

       Center              X                  Y                   Z               Mass
    ------------   -----------------  -----------------  -----------------  -----------------
      Gh(NA)          0.000000000000     0.000000000000     0.000000000000    22.989769282000
         BR           3.016991000000     0.000000000000     0.000000000000    78.918337600000

  Charge       = -1
  Multiplicity = 1
  Basis Set: AUG-CC-PVTZ
    Blend: AUG-CC-PVTZ
  Basis Set: (AUG-CC-PVTZ AUX)
    Blend: AUG-CC-PVTZ-JKFIT + DEF2-UNIVERSAL-JKFIT

    Orbital Energies [Eh]
    ---------------------

    Doubly Occupied:

       1A   -489.720749     2A    -64.860722     3A    -58.215208
       4A    -58.215208     5A    -58.215207     6A     -9.532933
       7A     -7.140279     8A     -7.140279     9A     -7.140271
      10A     -2.881955    11A     -2.881955    12A     -2.881949
      13A     -2.881949    14A     -2.881946    15A     -0.685997
      16A     -0.139340    17A     -0.139336    18A     -0.139336

  @DF-RHF Final Energy: -2572.53367993689744

   => Energetics <=

    Nuclear Repulsion Energy =              0.0000000000000000
    One-Electron Energy =               -3593.6781156211391135
    Two-Electron Energy =                1021.1444356842417847
    Total Energy =                      -2572.5336799368974425
 Dipole X            :       -205.2465301          199.5450350           -5.7014951
 Dipole Y            :          0.0000000            0.0000000            0.0000000
 Dipole Z            :          0.0000000            0.0000000            0.0000000
 Magnitude           :                                                    5.7014951

    SAPT Results
  --------------------------------------------------------------------------------------------------------
    Electrostatics               -176.97083710 [mEh]    -111.05087686 [kcal/mol]    -464.63686878 [kJ/mol]
      Elst10,r                   -176.78768887 [mEh]    -110.93594961 [kcal/mol]    -464.15601318 [kJ/mol]
      Elst12,r                     -0.18314823 [mEh]      -0.11492725 [kcal/mol]      -0.48085560 [kJ/mol]

    Exchange                       10.93280156 [mEh]       6.86043656 [kcal/mol]      28.70406655 [kJ/mol]
      Exch10                       10.20946725 [mEh]       6.40653742 [kcal/mol]      26.80495256 [kJ/mol]
      Exch10(S^2)                  10.18251123 [mEh]       6.38962227 [kcal/mol]      26.73417956 [kJ/mol]
      Exch11(S^2)                  -0.12479528 [mEh]      -0.07831022 [kcal/mol]      -0.32764996 [kJ/mol]
      Exch12(S^2)                   0.84812960 [mEh]       0.53220936 [kcal/mol]       2.22676395 [kJ/mol]

    Induction                     -18.18246978 [mEh]     -11.40967204 [kcal/mol]     -47.73806783 [kJ/mol]
      Ind20,r                     -40.65742484 [mEh]     -25.51291927 [kcal/mol]    -106.74605422 [kJ/mol]
      Ind22                        -3.79710772 [mEh]      -2.38272106 [kcal/mol]      -9.96930493 [kJ/mol]
      Exch-Ind20,r                 22.16163353 [mEh]      13.90663500 [kcal/mol]      58.18536083 [kJ/mol]
      Exch-Ind22                    2.06973536 [mEh]       1.29877854 [kcal/mol]       5.43408943 [kJ/mol]
      delta HF,r (2)                2.04069389 [mEh]       1.28055475 [kcal/mol]       5.35784107 [kJ/mol]

    Dispersion                     -0.47357332 [mEh]      -0.29717175 [kcal/mol]      -1.24336659 [kJ/mol]
      Disp20                       -0.49590584 [mEh]      -0.31118561 [kcal/mol]      -1.30200060 [kJ/mol]
      Disp21                       -0.01767224 [mEh]      -0.01108950 [kcal/mol]      -0.04639846 [kJ/mol]
      Disp22 (SDQ)                 -0.02262492 [mEh]      -0.01419735 [kcal/mol]      -0.05940172 [kJ/mol]
      Disp22 (T)                   -0.03872394 [mEh]      -0.02429964 [kcal/mol]      -0.10166970 [kJ/mol]
      Est. Disp22 (T)              -0.04586451 [mEh]      -0.02878041 [kcal/mol]      -0.12041724 [kJ/mol]
      Exch-Disp20                   0.10849418 [mEh]       0.06808112 [kcal/mol]       0.28485142 [kJ/mol]

  Total HF                       -183.03331904 [mEh]    -114.85514172 [kcal/mol]    -480.55391294 [kJ/mol]
  Total SAPT0                    -183.42073070 [mEh]    -115.09824620 [kcal/mol]    -481.57106212 [kJ/mol]
  Total SAPT2                    -184.60791697 [mEh]    -115.84321683 [kcal/mol]    -484.68801924 [kJ/mol]
  Total SAPT2+                   -184.69407864 [mEh]    -115.89728410 [kcal/mol]    -484.91423665 [kJ/mol]

  Special recipe for scaled SAPT0 (see Manual):
    Electrostatics sSAPT0        -176.78768887 [mEh]    -110.93594961 [kcal/mol]    -464.15601318 [kJ/mol]
    Exchange sSAPT0                10.20946725 [mEh]       6.40653742 [kcal/mol]      26.80495256 [kJ/mol]
    Induction sSAPT0              -16.27862657 [mEh]     -10.21499239 [kcal/mol]     -42.73952816 [kJ/mol]
    Dispersion sSAPT0              -0.38654773 [mEh]      -0.24256236 [kcal/mol]      -1.01488093 [kJ/mol]
  Total sSAPT0                   -183.24339592 [mEh]    -114.98696695 [kcal/mol]    -481.10546971 [kJ/mol]
  --------------------------------------------------------------------------------------------------------

*** Psi4 exiting successfully. Buy a developer a beer!
