                               Psi4 1.9 release

  ==> Input File <==

--------------------------------------------------------------------------
MEMORY 60 GB

molecule dimer {
1 1
Na     0.000000     0.000000     0.000000
--
-1 1
Br     2.639867     0.000000     0.000000

units ang
no_reorient
no_com
symmetry c1
}

set {
basis        aug-cc-pVTZ
scf_type     df
}

energy("sapt2+")
--------------------------------------------------------------------------

  //              Dimer HF             //
    Molecular point group: c1
  Charge       = 0
  Multiplicity = 1
  Basis Set: AUG-CC-PVTZ
    Blend: AUG-CC-PVTZ
  Basis Set: (AUG-CC-PVTZ AUX)
    Blend: AUG-CC-PVTZ-JKFIT + DEF2-UNIVERSAL-JKFIT
  @DF-RHF Final Energy: -2734.40526193677397
    Total Energy =                      -2734.4052619367739680
 Dipole X            :       -178.5673277          174.6018973           -3.9654304
 Dipole Y            :         -0.0000000            0.0000000           -0.0000000
 Dipole Z            :          0.0000000            0.0000000            0.0000000
 Magnitude           :                                                    3.9654304
  //            Monomer A HF           //
    Molecular point group: c1
  Multiplicity = 1
  Basis Set: AUG-CC-PVTZ
    Blend: AUG-CC-PVTZ
  Basis Set: (AUG-CC-PVTZ AUX)
    Blend: AUG-CC-PVTZ-JKFIT + DEF2-UNIVERSAL-JKFIT
  @DF-RHF Final Energy:  -161.67603528959324
    Total Energy =                       -161.6760352895932442
  //            Monomer B HF           //
    Molecular point group: c1

    Geometry (in Angstrom), charge = -1, multiplicity = 1:

       Center              X                  Y                   Z               Mass
    ------------   -----------------  -----------------  -----------------  -----------------
      Gh(NA)          0.000000000000     0.000000000000     0.000000000000    22.989769282000
         BR           2.639867000000     0.000000000000     0.000000000000    78.918337600000

  Charge       = -1
  Multiplicity = 1
  Basis Set: AUG-CC-PVTZ
    Blend: AUG-CC-PVTZ
  Basis Set: (AUG-CC-PVTZ AUX)
    Blend: AUG-CC-PVTZ-JKFIT + DEF2-UNIVERSAL-JKFIT

    Orbital Energies [Eh]
    ---------------------

    Doubly Occupied:

       1A   -489.720928     2A    -64.860850     3A    -58.215344
       4A    -58.215344     5A    -58.215340     6A     -9.532971
       7A     -7.140318     8A     -7.140318     9A     -7.140307
      10A     -2.882000    11A     -2.882000    12A     -2.881991
      13A     -2.881991    14A     -2.881982    15A     -0.685997
      16A     -0.139340    17A     -0.139337    18A     -0.139337

  @DF-RHF Final Energy: -2572.53368572241334

   => Energetics <=

    Nuclear Repulsion Energy =              0.0000000000000000
    One-Electron Energy =               -3593.6759763128902705
    Two-Electron Energy =                1021.1422905904770460
    Total Energy =                      -2572.5336857224133382
 Dipole X            :       -179.5909628          174.6018973           -4.9890655
 Dipole Y            :         -0.0000000            0.0000000           -0.0000000
 Dipole Z            :          0.0000000            0.0000000            0.0000000
 Magnitude           :                                                    4.9890655

    SAPT Results
  --------------------------------------------------------------------------------------------------------
    Electrostatics               -204.87282944 [mEh]    -128.55964140 [kcal/mol]    -537.89353960 [kJ/mol]
      Elst10,r                   -204.71730359 [mEh]    -128.46204745 [kcal/mol]    -537.48520652 [kJ/mol]
      Elst12,r                     -0.15552585 [mEh]      -0.09759395 [kcal/mol]      -0.40833307 [kJ/mol]

    Exchange                       30.56037983 [mEh]      19.17692786 [kcal/mol]      80.23626618 [kJ/mol]
      Exch10                       29.37094542 [mEh]      18.43054650 [kcal/mol]      77.11340657 [kJ/mol]
      Exch10(S^2)                  29.15619517 [mEh]      18.29578869 [kcal/mol]      76.54957987 [kJ/mol]
      Exch11(S^2)                  -0.46953920 [mEh]      -0.29464030 [kcal/mol]      -1.23277501 [kJ/mol]
      Exch12(S^2)                   1.65897361 [mEh]       1.04102166 [kcal/mol]       4.35563462 [kJ/mol]

    Induction                     -22.22084415 [mEh]     -13.94379022 [kcal/mol]     -58.34081829 [kJ/mol]
      Ind20,r                     -81.47960319 [mEh]     -51.12922292 [kcal/mol]    -213.92466869 [kJ/mol]
      Ind22                        -6.54638706 [mEh]      -4.10791990 [kcal/mol]     -17.18753685 [kJ/mol]
      Exch-Ind20,r                 56.25954062 [mEh]      35.30339473 [kcal/mol]     147.70940356 [kJ/mol]
      Exch-Ind22                    4.52010950 [mEh]       2.83641154 [kcal/mol]      11.86754586 [kJ/mol]
      delta HF,r (2)                5.02549597 [mEh]       3.15354633 [kcal/mol]      13.19443784 [kJ/mol]

    Dispersion                     -0.89337459 [mEh]      -0.56060102 [kcal/mol]      -2.34555465 [kJ/mol]
      Disp20                       -1.03381966 [mEh]      -0.64873163 [kcal/mol]      -2.71429314 [kJ/mol]
      Disp21                       -0.02138294 [mEh]      -0.01341800 [kcal/mol]      -0.05614090 [kJ/mol]
      Disp22 (SDQ)                 -0.03881293 [mEh]      -0.02435548 [kcal/mol]      -0.10190333 [kJ/mol]
      Disp22 (T)                   -0.07755067 [mEh]      -0.04866378 [kcal/mol]      -0.20360926 [kJ/mol]
      Est. Disp22 (T)              -0.09190228 [mEh]      -0.05766955 [kcal/mol]      -0.24128940 [kJ/mol]
      Exch-Disp20                   0.29254322 [mEh]       0.18357364 [kcal/mol]       0.76807212 [kJ/mol]

  Total HF                       -195.54092477 [mEh]    -122.70378280 [kcal/mol]    -513.39262725 [kJ/mol]
  Total SAPT0                    -196.28220121 [mEh]    -123.16894079 [kcal/mol]    -515.33884827 [kJ/mol]
  Total SAPT2                    -197.27457021 [mEh]    -123.79166174 [kcal/mol]    -517.94431272 [kJ/mol]
  Total SAPT2+                   -197.42666835 [mEh]    -123.88710477 [kcal/mol]    -518.34364635 [kJ/mol]

  Special recipe for scaled SAPT0 (see Manual):
    Electrostatics sSAPT0        -204.71730359 [mEh]    -128.46204745 [kcal/mol]    -537.48520652 [kJ/mol]
    Exchange sSAPT0                29.37094542 [mEh]      18.43054650 [kcal/mol]      77.11340657 [kJ/mol]
    Induction sSAPT0              -18.94224711 [mEh]     -11.88643952 [kcal/mol]     -49.73286294 [kJ/mol]
    Dispersion sSAPT0              -0.73476452 [mEh]      -0.46107170 [kcal/mol]      -1.92912398 [kJ/mol]
  Total sSAPT0                   -195.02336980 [mEh]    -122.37901216 [kcal/mol]    -512.03378687 [kJ/mol]
  --------------------------------------------------------------------------------------------------------

*** Psi4 exiting successfully. Buy a developer a beer!
