                               Psi4 1.9 release

  ==> Input File <==

--------------------------------------------------------------------------
MEMORY 60 GB

molecule dimer {
1 1
Na     0.000000     0.000000     0.000000
--
-1 1
Br     2.011327     0.000000     0.000000

units ang
no_reorient
no_com
symmetry c1
}

set {
basis        aug-cc-pVTZ
scf_type     df
}

energy("sapt2+")
--------------------------------------------------------------------------

  //              Dimer HF             //
    Molecular point group: c1
  Charge       = 0
  Multiplicity = 1
  Basis Set: AUG-CC-PVTZ
    Blend: AUG-CC-PVTZ
  Basis Set: (AUG-CC-PVTZ AUX)
    Blend: AUG-CC-PVTZ-JKFIT + DEF2-UNIVERSAL-JKFIT
  @DF-RHF Final Energy: -2734.34583699744826
    Total Energy =                      -2734.3458369974482594
 Dipole X            :       -136.0273989          133.0300013           -2.9973977
 Dipole Y            :         -0.0000000            0.0000000           -0.0000000
 Dipole Z            :          0.0000000            0.0000000            0.0000000
 Magnitude           :                                                    2.9973977
  //            Monomer A HF           //
    Molecular point group: c1
  Multiplicity = 1
  Basis Set: AUG-CC-PVTZ
    Blend: AUG-CC-PVTZ
  Basis Set: (AUG-CC-PVTZ AUX)
    Blend: AUG-CC-PVTZ-JKFIT + DEF2-UNIVERSAL-JKFIT
  @DF-RHF Final Energy:  -161.67604332831968
    Total Energy =                       -161.6760433283196789
  //            Monomer B HF           //
    Molecular point group: c1

    Geometry (in Angstrom), charge = -1, multiplicity = 1:

       Center              X                  Y                   Z               Mass
    ------------   -----------------  -----------------  -----------------  -----------------
      Gh(NA)          0.000000000000     0.000000000000     0.000000000000    22.989769282000
         BR           2.011327000000     0.000000000000     0.000000000000    78.918337600000

  Charge       = -1
  Multiplicity = 1
  Basis Set: AUG-CC-PVTZ
    Blend: AUG-CC-PVTZ
  Basis Set: (AUG-CC-PVTZ AUX)
    Blend: AUG-CC-PVTZ-JKFIT + DEF2-UNIVERSAL-JKFIT

    Orbital Energies [Eh]
    ---------------------

    Doubly Occupied:

       1A   -489.721232     2A    -64.861054     3A    -58.215560
       4A    -58.215560     5A    -58.215557     6A     -9.533035
       7A     -7.140379     8A     -7.140379     9A     -7.140364
      10A     -2.882066    11A     -2.882066    12A     -2.882065
      13A     -2.882058    14A     -2.882058    15A     -0.685998
      16A     -0.139342    17A     -0.139342    18A     -0.139335

  @DF-RHF Final Energy: -2572.53369082073550

   => Energetics <=

    Nuclear Repulsion Energy =              0.0000000000000000
    One-Electron Energy =               -3593.6724806631464162
    Two-Electron Energy =                1021.1387898424110290
    Total Energy =                      -2572.5336908207355009
 Dipole X            :       -136.8317486          133.0300013           -3.8017474
 Dipole Y            :          0.0000000            0.0000000            0.0000000
 Dipole Z            :          0.0000000            0.0000000            0.0000000
 Magnitude           :                                                    3.8017474

    SAPT Results
  --------------------------------------------------------------------------------------------------------
    Electrostatics               -293.74955510 [mEh]    -184.33062874 [kcal/mol]    -771.23935066 [kJ/mol]
      Elst10,r                   -294.02898398 [mEh]    -184.50597301 [kcal/mol]    -771.97299108 [kJ/mol]
      Elst12,r                      0.27942888 [mEh]       0.17534427 [kcal/mol]       0.73364042 [kJ/mol]

    Exchange                      185.56869511 [mEh]     116.44611422 [kcal/mol]     487.21054190 [kJ/mol]
      Exch10                      186.61264840 [mEh]     117.10120480 [kcal/mol]     489.95144088 [kJ/mol]
      Exch10(S^2)                 179.03164028 [mEh]     112.34405038 [kcal/mol]     470.04750680 [kJ/mol]
      Exch11(S^2)                  -5.19794373 [mEh]      -3.26175893 [kcal/mol]     -13.64719938 [kJ/mol]
      Exch12(S^2)                   4.15399044 [mEh]       2.60666835 [kcal/mol]      10.90630040 [kJ/mol]

    Induction                     -31.46289271 [mEh]     -19.74326325 [kcal/mol]     -82.60581343 [kJ/mol]
      Ind20,r                    -323.01964904 [mEh]    -202.69788999 [kcal/mol]    -848.08797172 [kJ/mol]
      Ind22                       -16.95440459 [mEh]     -10.63904950 [kcal/mol]     -44.51378312 [kJ/mol]
      Exch-Ind20,r                270.12334981 [mEh]     169.50496109 [kcal/mol]     709.20875722 [kJ/mol]
      Exch-Ind22                   14.17802470 [mEh]       8.89684482 [kcal/mol]      37.22439872 [kJ/mol]
      delta HF,r (2)               24.20978641 [mEh]      15.19187033 [kcal/mol]      63.56278547 [kJ/mol]

    Dispersion                     -2.79267299 [mEh]      -1.75242876 [kcal/mol]      -7.33216192 [kJ/mol]
      Disp20                       -4.42086667 [mEh]      -2.77413572 [kcal/mol]     -11.60698385 [kJ/mol]
      Disp21                        0.10125850 [mEh]       0.06354067 [kcal/mol]       0.26585415 [kJ/mol]
      Disp22 (SDQ)                 -0.12772890 [mEh]      -0.08015109 [kcal/mol]      -0.33535217 [kJ/mol]
      Disp22 (T)                   -0.31795135 [mEh]      -0.19951748 [kcal/mol]      -0.83478115 [kJ/mol]
      Est. Disp22 (T)              -0.37361468 [mEh]      -0.23444675 [kcal/mol]      -0.98092522 [kJ/mol]
      Exch-Disp20                   2.02827877 [mEh]       1.27276414 [kcal/mol]       5.32524517 [kJ/mol]

  Total HF                       -136.10284839 [mEh]     -85.40582677 [kcal/mol]    -357.33797923 [kJ/mol]
  Total SAPT0                    -138.49543630 [mEh]     -86.90719835 [kcal/mol]    -363.61971791 [kJ/mol]
  Total SAPT2                    -142.03634060 [mEh]     -89.12914935 [kcal/mol]    -372.91636087 [kJ/mol]
  Total SAPT2+                   -142.43642568 [mEh]     -89.38020653 [kcal/mol]    -373.96678411 [kJ/mol]

  Special recipe for scaled SAPT0 (see Manual):
    Electrostatics sSAPT0        -294.02898398 [mEh]    -184.50597301 [kcal/mol]    -771.97299108 [kJ/mol]
    Exchange sSAPT0               186.61264840 [mEh]     117.10120480 [kcal/mol]     489.95144088 [kJ/mol]
    Induction sSAPT0                7.10176450 [mEh]       4.45642451 [kcal/mol]      18.64568013 [kJ/mol]
    Dispersion sSAPT0              -2.12386399 [mEh]      -1.33274478 [kcal/mol]      -5.57620415 [kJ/mol]
  Total sSAPT0                   -102.43843507 [mEh]     -64.28108848 [kcal/mol]    -268.95207422 [kJ/mol]
  --------------------------------------------------------------------------------------------------------

*** Psi4 exiting successfully. Buy a developer a beer!
