                               Psi4 1.9 release

  ==> Input File <==

--------------------------------------------------------------------------
MEMORY 60 GB

molecule dimer {
1 1
Na     0.000000     0.000000     0.000000
--
-1 1
Br     2.262743     0.000000     0.000000

units ang
no_reorient
no_com
symmetry c1
}

set {
basis        aug-cc-pVTZ
scf_type     df
}

energy("sapt2+")
--------------------------------------------------------------------------

  //              Dimer HF             //
    Molecular point group: c1
  Charge       = 0
  Multiplicity = 1
  Basis Set: AUG-CC-PVTZ
    Blend: AUG-CC-PVTZ
  Basis Set: (AUG-CC-PVTZ AUX)
    Blend: AUG-CC-PVTZ-JKFIT + DEF2-UNIVERSAL-JKFIT
  @DF-RHF Final Energy: -2734.39402648992291
    Total Energy =                      -2734.3940264899229078
 Dipole X            :       -153.0089556          149.6587597           -3.3501959
 Dipole Y            :          0.0000000            0.0000000            0.0000000
 Dipole Z            :          0.0000000            0.0000000            0.0000000
 Magnitude           :                                                    3.3501959
  //            Monomer A HF           //
    Molecular point group: c1
  Multiplicity = 1
  Basis Set: AUG-CC-PVTZ
    Blend: AUG-CC-PVTZ
  Basis Set: (AUG-CC-PVTZ AUX)
    Blend: AUG-CC-PVTZ-JKFIT + DEF2-UNIVERSAL-JKFIT
  @DF-RHF Final Energy:  -161.67603961116208
    Total Energy =                       -161.6760396111620821
  //            Monomer B HF           //
    Molecular point group: c1

    Geometry (in Angstrom), charge = -1, multiplicity = 1:

       Center              X                  Y                   Z               Mass
    ------------   -----------------  -----------------  -----------------  -----------------
      Gh(NA)          0.000000000000     0.000000000000     0.000000000000    22.989769282000
         BR           2.262743000000     0.000000000000     0.000000000000    78.918337600000

  Charge       = -1
  Multiplicity = 1
  Basis Set: AUG-CC-PVTZ
    Blend: AUG-CC-PVTZ
  Basis Set: (AUG-CC-PVTZ AUX)
    Blend: AUG-CC-PVTZ-JKFIT + DEF2-UNIVERSAL-JKFIT

    Orbital Energies [Eh]
    ---------------------

    Doubly Occupied:

       1A   -489.721130     2A    -64.860983     3A    -58.215486
       4A    -58.215486     5A    -58.215482     6A     -9.533012
       7A     -7.140357     8A     -7.140357     9A     -7.140341
      10A     -2.882043    11A     -2.882043    12A     -2.882034
      13A     -2.882034    14A     -2.882034    15A     -0.685998
      16A     -0.139340    17A     -0.139340    18A     -0.139337

  @DF-RHF Final Energy: -2572.53368917431089

   => Energetics <=

    Nuclear Repulsion Energy =              0.0000000000000000
    One-Electron Energy =               -3593.6737002258196298
    Two-Electron Energy =                1021.1400110515083952
    Total Energy =                      -2572.5336891743113483
 Dipole X            :       -153.9355752          149.6587597           -4.2768156
 Dipole Y            :          0.0000000            0.0000000            0.0000000
 Dipole Z            :          0.0000000            0.0000000            0.0000000
 Magnitude           :                                                    4.2768156

    SAPT Results
  --------------------------------------------------------------------------------------------------------
    Electrostatics               -247.68172440 [mEh]    -155.42262854 [kcal/mol]    -650.28827783 [kJ/mol]
      Elst10,r                   -247.64946180 [mEh]    -155.40238345 [kcal/mol]    -650.20357238 [kJ/mol]
      Elst12,r                     -0.03226260 [mEh]      -0.02024509 [kcal/mol]      -0.08470545 [kJ/mol]

    Exchange                       89.03265379 [mEh]      55.86883373 [kcal/mol]     233.75520031 [kJ/mol]
      Exch10                       87.99397675 [mEh]      55.21705405 [kcal/mol]     231.02815414 [kJ/mol]
      Exch10(S^2)                  86.18740573 [mEh]      54.08341362 [kcal/mol]     226.28500258 [kJ/mol]
      Exch11(S^2)                  -1.94581232 [mEh]      -1.22101567 [kcal/mol]      -5.10872955 [kJ/mol]
      Exch12(S^2)                   2.98448936 [mEh]       1.87279534 [kcal/mol]       7.83577572 [kJ/mol]

    Induction                     -26.89714128 [mEh]     -16.87821097 [kcal/mol]     -70.61843471 [kJ/mol]
      Ind20,r                    -180.47119152 [mEh]    -113.24738242 [kcal/mol]    -473.82704805 [kJ/mol]
      Ind22                       -11.56546046 [mEh]      -7.25743601 [kcal/mol]     -30.36511225 [kJ/mol]
      Exch-Ind20,r                145.28466007 [mEh]      91.16750059 [kcal/mol]     381.44482245 [kJ/mol]
      Exch-Ind22                    9.31053858 [mEh]       5.84245117 [kcal/mol]      24.44481568 [kJ/mol]
      delta HF,r (2)               10.54431205 [mEh]       6.61665570 [kcal/mol]      27.68408747 [kJ/mol]

    Dispersion                     -1.74486818 [mEh]      -1.09492131 [kcal/mol]      -4.58115077 [kJ/mol]
      Disp20                       -2.35452541 [mEh]      -1.47748700 [kcal/mol]      -6.18180561 [kJ/mol]
      Disp21                        0.00778474 [mEh]       0.00488500 [kcal/mol]       0.02043884 [kJ/mol]
      Disp22 (SDQ)                 -0.07468904 [mEh]      -0.04686808 [kcal/mol]      -0.19609605 [kJ/mol]
      Disp22 (T)                   -0.16742279 [mEh]      -0.10505938 [kcal/mol]      -0.43956846 [kJ/mol]
      Est. Disp22 (T)              -0.20455322 [mEh]      -0.12835908 [kcal/mol]      -0.53705440 [kJ/mol]
      Exch-Disp20                   0.88111475 [mEh]       0.55290785 [kcal/mol]       2.31336645 [kJ/mol]

  Total HF                       -184.29770445 [mEh]    -115.64855554 [kcal/mol]    -483.87355637 [kJ/mol]
  Total SAPT0                    -185.77111511 [mEh]    -116.57313469 [kcal/mol]    -487.74199553 [kJ/mol]
  Total SAPT2                    -187.01962256 [mEh]    -117.35658494 [kcal/mol]    -491.01995139 [kJ/mol]
  Total SAPT2+                   -187.29108008 [mEh]    -117.52692710 [kcal/mol]    -491.73266300 [kJ/mol]

  Special recipe for scaled SAPT0 (see Manual):
    Electrostatics sSAPT0        -247.64946180 [mEh]    -155.40238345 [kcal/mol]    -650.20357238 [kJ/mol]
    Exchange sSAPT0                87.99397675 [mEh]      55.21705405 [kcal/mol]     231.02815414 [kJ/mol]
    Induction sSAPT0              -15.31346461 [mEh]      -9.60934412 [kcal/mol]     -40.20549579 [kJ/mol]
    Dispersion sSAPT0              -1.41683412 [mEh]      -0.88907683 [kcal/mol]      -3.71989747 [kJ/mol]
  Total sSAPT0                   -176.38578377 [mEh]    -110.68375036 [kcal/mol]    -463.10081150 [kJ/mol]
  --------------------------------------------------------------------------------------------------------

*** Psi4 exiting successfully. Buy a developer a beer!
