                               Psi4 1.9 release

  ==> Input File <==

--------------------------------------------------------------------------
MEMORY 60 GB

molecule dimer {
1 1
Na     0.000000     0.000000     0.000000
--
-1 1
Br     3.268407     0.000000     0.000000

units ang
no_reorient
no_com
symmetry c1
}

set {
basis        aug-cc-pVTZ
scf_type     df
}

energy("sapt2+")
--------------------------------------------------------------------------

  //              Dimer HF             //
    Molecular point group: c1
  Charge       = 0
  Multiplicity = 1
  Basis Set: AUG-CC-PVTZ
    Blend: AUG-CC-PVTZ
  Basis Set: (AUG-CC-PVTZ AUX)
    Blend: AUG-CC-PVTZ-JKFIT + DEF2-UNIVERSAL-JKFIT
  @DF-RHF Final Energy: -2734.38125630932427
    Total Energy =                      -2734.3812563093242716
 Dipole X            :       -221.3254897          216.1737934           -5.1516964
 Dipole Y            :          0.0000000            0.0000000            0.0000000
 Dipole Z            :          0.0000000            0.0000000            0.0000000
 Magnitude           :                                                    5.1516964
  //            Monomer A HF           //
    Molecular point group: c1
  Multiplicity = 1
  Basis Set: AUG-CC-PVTZ
    Blend: AUG-CC-PVTZ
  Basis Set: (AUG-CC-PVTZ AUX)
    Blend: AUG-CC-PVTZ-JKFIT + DEF2-UNIVERSAL-JKFIT
  @DF-RHF Final Energy:  -161.67603189714237
    Total Energy =                       -161.6760318971423658
  //            Monomer B HF           //
    Molecular point group: c1

    Geometry (in Angstrom), charge = -1, multiplicity = 1:

       Center              X                  Y                   Z               Mass
    ------------   -----------------  -----------------  -----------------  -----------------
      Gh(NA)          0.000000000000     0.000000000000     0.000000000000    22.989769282000
         BR           3.268407000000     0.000000000000     0.000000000000    78.918337600000

  Charge       = -1
  Multiplicity = 1
  Basis Set: AUG-CC-PVTZ
    Blend: AUG-CC-PVTZ
  Basis Set: (AUG-CC-PVTZ AUX)
    Blend: AUG-CC-PVTZ-JKFIT + DEF2-UNIVERSAL-JKFIT

    Orbital Energies [Eh]
    ---------------------

    Doubly Occupied:

       1A   -489.720672     2A    -64.860667     3A    -58.215150
       4A    -58.215150     5A    -58.215149     6A     -9.532917
       7A     -7.140261     8A     -7.140261     9A     -7.140255
      10A     -2.881935    11A     -2.881935    12A     -2.881932
      13A     -2.881932    14A     -2.881930    15A     -0.685998
      16A     -0.139341    17A     -0.139336    18A     -0.139336

  @DF-RHF Final Energy: -2572.53367728457852

   => Energetics <=

    Nuclear Repulsion Energy =              0.0000000000000000
    One-Electron Energy =               -3593.6790339905755900
    Two-Electron Energy =                1021.1453567059968464
    Total Energy =                      -2572.5336772845785163
 Dipole X            :       -222.3503063          216.1737934           -6.1765129
 Dipole Y            :          0.0000000            0.0000000            0.0000000
 Dipole Z            :          0.0000000            0.0000000            0.0000000
 Magnitude           :                                                    6.1765129

    SAPT Results
  --------------------------------------------------------------------------------------------------------
    Electrostatics               -162.72264875 [mEh]    -102.11000369 [kcal/mol]    -427.22825545 [kJ/mol]
      Elst10,r                   -162.56921318 [mEh]    -102.01372142 [kcal/mol]    -426.82541040 [kJ/mol]
      Elst12,r                     -0.15343557 [mEh]      -0.09628228 [kcal/mol]      -0.40284504 [kJ/mol]

    Exchange                        5.60850785 [mEh]       3.51939181 [kcal/mol]      14.72513532 [kJ/mol]
      Exch10                        5.14332825 [mEh]       3.22748720 [kcal/mol]      13.50380645 [kJ/mol]
      Exch10(S^2)                   5.13638425 [mEh]       3.22312977 [kcal/mol]      13.48557498 [kJ/mol]
      Exch11(S^2)                  -0.05357789 [mEh]      -0.03362063 [kcal/mol]      -0.14066872 [kJ/mol]
      Exch12(S^2)                   0.51875748 [mEh]       0.32552524 [kcal/mol]       1.36199759 [kJ/mol]

    Induction                     -15.58142111 [mEh]      -9.77748936 [kcal/mol]     -40.90901549 [kJ/mol]
      Ind20,r                     -26.74507638 [mEh]     -16.78278881 [kcal/mol]     -70.21918836 [kJ/mol]
      Ind22                        -2.64358816 [mEh]      -1.65887662 [kcal/mol]      -6.94073976 [kJ/mol]
      Exch-Ind20,r                 11.97250910 [mEh]       7.51286289 [kcal/mol]      31.43381832 [kJ/mol]
      Exch-Ind22                    1.18340972 [mEh]       0.74260081 [kcal/mol]       3.10704179 [kJ/mol]
      delta HF,r (2)                0.65132461 [mEh]       0.40871236 [kcal/mol]       1.71005253 [kJ/mol]

    Dispersion                     -0.30729863 [mEh]      -0.19283280 [kcal/mol]      -0.80681245 [kJ/mol]
      Disp20                       -0.30677163 [mEh]      -0.19250210 [kcal/mol]      -0.80542880 [kJ/mol]
      Disp21                       -0.01263291 [mEh]      -0.00792727 [kcal/mol]      -0.03316769 [kJ/mol]
      Disp22 (SDQ)                 -0.01562542 [mEh]      -0.00980510 [kcal/mol]      -0.04102453 [kJ/mol]
      Disp22 (T)                   -0.02409634 [mEh]      -0.01512068 [kcal/mol]      -0.06326494 [kJ/mol]
      Est. Disp22 (T)              -0.02887983 [mEh]      -0.01812237 [kcal/mol]      -0.07582399 [kJ/mol]
      Exch-Disp20                   0.05661115 [mEh]       0.03552404 [kcal/mol]       0.14863256 [kJ/mol]

  Total HF                       -171.54712760 [mEh]    -107.64744777 [kcal/mol]    -450.39692147 [kJ/mol]
  Total SAPT0                    -171.79728808 [mEh]    -107.80442584 [kcal/mol]    -451.05371771 [kJ/mol]
  Total SAPT2                    -172.94572250 [mEh]    -108.52507932 [kcal/mol]    -454.06893186 [kJ/mol]
  Total SAPT2+                   -173.00286066 [mEh]    -108.56093405 [kcal/mol]    -454.21894807 [kJ/mol]

  Special recipe for scaled SAPT0 (see Manual):
    Electrostatics sSAPT0        -162.56921318 [mEh]    -102.01372142 [kcal/mol]    -426.82541040 [kJ/mol]
    Exchange sSAPT0                 5.14332825 [mEh]       3.22748720 [kcal/mol]      13.50380645 [kJ/mol]
    Induction sSAPT0              -14.07261922 [mEh]      -8.83070188 [kcal/mol]     -36.94765668 [kJ/mol]
    Dispersion sSAPT0              -0.24993056 [mEh]      -0.15683380 [kcal/mol]      -0.65619260 [kJ/mol]
  Total sSAPT0                   -171.74843472 [mEh]    -107.77376990 [kcal/mol]    -450.92545324 [kJ/mol]
  --------------------------------------------------------------------------------------------------------

*** Psi4 exiting successfully. Buy a developer a beer!
