                               Psi4 1.9 release

  ==> Input File <==

--------------------------------------------------------------------------
MEMORY 60 GB

molecule dimer {
1 1
Na     0.000000     0.000000     0.000000
--
-1 1
Br     2.514159     0.000000     0.000000

units ang
no_reorient
no_com
symmetry c1
}

set {
basis        aug-cc-pVTZ
scf_type     df
}

energy("sapt2+")
--------------------------------------------------------------------------

  //              Dimer HF             //
    Molecular point group: c1
  Charge       = 0
  Multiplicity = 1
  Basis Set: AUG-CC-PVTZ
    Blend: AUG-CC-PVTZ
  Basis Set: (AUG-CC-PVTZ AUX)
    Blend: AUG-CC-PVTZ-JKFIT + DEF2-UNIVERSAL-JKFIT
  @DF-RHF Final Energy: -2734.40586250362094
    Total Energy =                      -2734.4058625036209378
 Dipole X            :       -170.0379579          166.2875181           -3.7504398
 Dipole Y            :          0.0000000            0.0000000            0.0000000
 Dipole Z            :         -0.0000000            0.0000000           -0.0000000
 Magnitude           :                                                    3.7504398
  //            Monomer A HF           //
    Molecular point group: c1
  Multiplicity = 1
  Basis Set: AUG-CC-PVTZ
    Blend: AUG-CC-PVTZ
  Basis Set: (AUG-CC-PVTZ AUX)
    Blend: AUG-CC-PVTZ-JKFIT + DEF2-UNIVERSAL-JKFIT
  @DF-RHF Final Energy:  -161.67603682872516
    Total Energy =                       -161.6760368287251595
  //            Monomer B HF           //
    Molecular point group: c1

    Geometry (in Angstrom), charge = -1, multiplicity = 1:

       Center              X                  Y                   Z               Mass
    ------------   -----------------  -----------------  -----------------  -----------------
      Gh(NA)          0.000000000000     0.000000000000     0.000000000000    22.989769282000
         BR           2.514159000000     0.000000000000     0.000000000000    78.918337600000

  Charge       = -1
  Multiplicity = 1
  Basis Set: AUG-CC-PVTZ
    Blend: AUG-CC-PVTZ
  Basis Set: (AUG-CC-PVTZ AUX)
    Blend: AUG-CC-PVTZ-JKFIT + DEF2-UNIVERSAL-JKFIT

    Orbital Energies [Eh]
    ---------------------

    Doubly Occupied:

       1A   -489.721001     2A    -64.860900     3A    -58.215398
       4A    -58.215398     5A    -58.215393     6A     -9.532986
       7A     -7.140333     8A     -7.140333     9A     -7.140321
      10A     -2.882017    11A     -2.882017    12A     -2.882007
      13A     -2.882007    14A     -2.881998    15A     -0.685998
      16A     -0.139340    17A     -0.139338    18A     -0.139338

  @DF-RHF Final Energy: -2572.53368738574636

   => Energetics <=

    Nuclear Repulsion Energy =              0.0000000000000000
    One-Electron Energy =               -3593.6751285161208216
    Two-Electron Energy =                1021.1414411303743464
    Total Energy =                      -2572.5336873857463615
 Dipole X            :       -171.0391614          166.2875181           -4.7516433
 Dipole Y            :          0.0000000            0.0000000            0.0000000
 Dipole Z            :         -0.0000000            0.0000000           -0.0000000
 Magnitude           :                                                    4.7516433

    SAPT Results
  --------------------------------------------------------------------------------------------------------
    Electrostatics               -216.86286674 [mEh]    -136.08350339 [kcal/mol]    -569.37337818 [kJ/mol]
      Elst10,r                   -216.73730666 [mEh]    -136.00471325 [kcal/mol]    -569.04372024 [kJ/mol]
      Elst12,r                     -0.12556008 [mEh]      -0.07879014 [kcal/mol]      -0.32965794 [kJ/mol]

    Exchange                       43.43402779 [mEh]      27.25526392 [kcal/mol]     114.03602426 [kJ/mol]
      Exch10                       42.14558308 [mEh]      26.44675266 [kcal/mol]     110.65321313 [kJ/mol]
      Exch10(S^2)                  41.71124088 [mEh]      26.17419882 [kcal/mol]     109.51284784 [kJ/mol]
      Exch11(S^2)                  -0.74543967 [mEh]      -0.46777045 [kcal/mol]      -1.95715158 [kJ/mol]
      Exch12(S^2)                   2.03388438 [mEh]       1.27628172 [kcal/mol]       5.33996270 [kJ/mol]

    Induction                     -23.63776137 [mEh]     -14.83291920 [kcal/mol]     -62.06093393 [kJ/mol]
      Ind20,r                    -104.95686349 [mEh]     -65.86142618 [kcal/mol]    -275.56420713 [kJ/mol]
      Ind22                        -7.87639484 [mEh]      -4.94251238 [kcal/mol]     -20.67947179 [kJ/mol]
      Exch-Ind20,r                 77.09064334 [mEh]      48.37510903 [kcal/mol]     202.40145619 [kJ/mol]
      Exch-Ind22                    5.78519903 [mEh]       3.63026720 [kcal/mol]      15.18903797 [kJ/mol]
      delta HF,r (2)                6.31965459 [mEh]       3.96564312 [kcal/mol]      16.59225083 [kJ/mol]

    Dispersion                     -1.10926792 [mEh]      -0.69607613 [kcal/mol]      -2.91238252 [kJ/mol]
      Disp20                       -1.34025676 [mEh]      -0.84102381 [kcal/mol]      -3.51884363 [kJ/mol]
      Disp21                       -0.01829410 [mEh]      -0.01147972 [kcal/mol]      -0.04803114 [kJ/mol]
      Disp22 (SDQ)                 -0.04731391 [mEh]      -0.02968992 [kcal/mol]      -0.12422264 [kJ/mol]
      Disp22 (T)                   -0.09965403 [mEh]      -0.06253385 [kcal/mol]      -0.26164163 [kJ/mol]
      Est. Disp22 (T)              -0.11832913 [mEh]      -0.07425265 [kcal/mol]      -0.31067310 [kJ/mol]
      Exch-Disp20                   0.41492597 [mEh]       0.26036998 [kcal/mol]       1.08938800 [kJ/mol]

  Total HF                       -196.13828915 [mEh]    -123.07863461 [kcal/mol]    -514.96100722 [kJ/mol]
  Total SAPT0                    -197.06361993 [mEh]    -123.65928844 [kcal/mol]    -517.39046285 [kJ/mol]
  Total SAPT2                    -197.99193110 [mEh]    -124.24181250 [kcal/mol]    -519.82774349 [kJ/mol]
  Total SAPT2+                   -198.17586824 [mEh]    -124.35723479 [kcal/mol]    -520.31067037 [kJ/mol]

  Special recipe for scaled SAPT0 (see Manual):
    Electrostatics sSAPT0        -216.73730666 [mEh]    -136.00471325 [kcal/mol]    -569.04372024 [kJ/mol]
    Exchange sSAPT0                42.14558308 [mEh]      26.44675266 [kcal/mol]     110.65321313 [kJ/mol]
    Induction sSAPT0              -19.11314972 [mEh]     -11.99368252 [kcal/mol]     -50.18156767 [kJ/mol]
    Dispersion sSAPT0              -0.91223338 [mEh]      -0.57243509 [kcal/mol]      -2.39506840 [kJ/mol]
  Total sSAPT0                   -194.61710667 [mEh]    -122.12407820 [kcal/mol]    -510.96714318 [kJ/mol]
  --------------------------------------------------------------------------------------------------------

*** Psi4 exiting successfully. Buy a developer a beer!
