                               Psi4 1.9 release

  ==> Input File <==

--------------------------------------------------------------------------
MEMORY 60 GB

molecule dimer {
1 1
Na     0.000000     0.000000     0.000000
--
-1 1
Br     3.519823     0.000000     0.000000

units ang
no_reorient
no_com
symmetry c1
}

set {
basis        aug-cc-pVTZ
scf_type     df
}

energy("sapt2+")
--------------------------------------------------------------------------

  //              Dimer HF             //
    Molecular point group: c1
  Charge       = 0
  Multiplicity = 1
  Basis Set: AUG-CC-PVTZ
    Blend: AUG-CC-PVTZ
  Basis Set: (AUG-CC-PVTZ AUX)
    Blend: AUG-CC-PVTZ-JKFIT + DEF2-UNIVERSAL-JKFIT
  @DF-RHF Final Energy: -2734.36968995358075
    Total Energy =                      -2734.3696899535807461
 Dipole X            :       -238.4655869          232.8025518           -5.6630351
 Dipole Y            :          0.0000000            0.0000000            0.0000000
 Dipole Z            :         -0.0000000            0.0000000           -0.0000000
 Magnitude           :                                                    5.6630351
  //            Monomer A HF           //
    Molecular point group: c1
  Multiplicity = 1
  Basis Set: AUG-CC-PVTZ
    Blend: AUG-CC-PVTZ
  Basis Set: (AUG-CC-PVTZ AUX)
    Blend: AUG-CC-PVTZ-JKFIT + DEF2-UNIVERSAL-JKFIT
  @DF-RHF Final Energy:  -161.67603080531322
    Total Energy =                       -161.6760308053132178
  //            Monomer B HF           //
    Molecular point group: c1

    Geometry (in Angstrom), charge = -1, multiplicity = 1:

       Center              X                  Y                   Z               Mass
    ------------   -----------------  -----------------  -----------------  -----------------
      Gh(NA)          0.000000000000     0.000000000000     0.000000000000    22.989769282000
         BR           3.519823000000     0.000000000000     0.000000000000    78.918337600000

  Charge       = -1
  Multiplicity = 1
  Basis Set: AUG-CC-PVTZ
    Blend: AUG-CC-PVTZ
  Basis Set: (AUG-CC-PVTZ AUX)
    Blend: AUG-CC-PVTZ-JKFIT + DEF2-UNIVERSAL-JKFIT

    Orbital Energies [Eh]
    ---------------------

    Doubly Occupied:

       1A   -489.720616     2A    -64.860629     3A    -58.215109
       4A    -58.215109     5A    -58.215108     6A     -9.532905
       7A     -7.140250     8A     -7.140250     9A     -7.140244
      10A     -2.881922    11A     -2.881922    12A     -2.881919
      13A     -2.881919    14A     -2.881917    15A     -0.685999
      16A     -0.139342    17A     -0.139337    18A     -0.139337

  @DF-RHF Final Energy: -2572.53367572944671

   => Energetics <=

    Nuclear Repulsion Energy =              0.0000000000000000
    One-Electron Energy =               -3593.6796834716283229
    Two-Electron Energy =                1021.1460077421813821
    Total Energy =                      -2572.5336757294471681
 Dipole X            :       -239.4541486          232.8025518           -6.6515968
 Dipole Y            :          0.0000000            0.0000000            0.0000000
 Dipole Z            :          0.0000000            0.0000000            0.0000000
 Magnitude           :                                                    6.6515968

    SAPT Results
  --------------------------------------------------------------------------------------------------------
    Electrostatics               -150.77365179 [mEh]     -94.61189489 [kcal/mol]    -395.85616823 [kJ/mol]
      Elst10,r                   -150.65374120 [mEh]     -94.53664986 [kcal/mol]    -395.54134302 [kJ/mol]
      Elst12,r                     -0.11991059 [mEh]      -0.07524503 [kcal/mol]      -0.31482521 [kJ/mol]

    Exchange                        2.91172075 [mEh]       1.82713236 [kcal/mol]       7.64472178 [kJ/mol]
      Exch10                        2.62401077 [mEh]       1.64659162 [kcal/mol]       6.88933933 [kJ/mol]
      Exch10(S^2)                   2.62218860 [mEh]       1.64544819 [kcal/mol]       6.88455523 [kJ/mol]
      Exch11(S^2)                  -0.02368056 [mEh]      -0.01485978 [kcal/mol]      -0.06217330 [kJ/mol]
      Exch12(S^2)                   0.31139054 [mEh]       0.19540052 [kcal/mol]       0.81755576 [kJ/mol]

    Induction                     -13.14737419 [mEh]      -8.25010186 [kcal/mol]     -34.51842618 [kJ/mol]
      Ind20,r                     -18.18511712 [mEh]     -11.41133327 [kcal/mol]     -47.74501842 [kJ/mol]
      Ind22                        -1.85697119 [mEh]      -1.16526701 [kcal/mol]      -4.87547718 [kJ/mol]
      Exch-Ind20,r                  6.49548178 [mEh]       4.07597635 [kcal/mol]      17.05388506 [kJ/mol]
      Exch-Ind22                    0.66328539 [mEh]       0.41621787 [kcal/mol]       1.74145555 [kJ/mol]
      delta HF,r (2)               -0.26405305 [mEh]      -0.16569579 [kcal/mol]      -0.69327119 [kJ/mol]

    Dispersion                     -0.19913210 [mEh]      -0.12495728 [kcal/mol]      -0.52282126 [kJ/mol]
      Disp20                       -0.19126997 [mEh]      -0.12002372 [kcal/mol]      -0.50217924 [kJ/mol]
      Disp21                       -0.00833295 [mEh]      -0.00522901 [kcal/mol]      -0.02187817 [kJ/mol]
      Disp22 (SDQ)                 -0.01064850 [mEh]      -0.00668204 [kcal/mol]      -0.02795764 [kJ/mol]
      Disp22 (T)                   -0.01555885 [mEh]      -0.00976333 [kcal/mol]      -0.04084976 [kJ/mol]
      Est. Disp22 (T)              -0.01848331 [mEh]      -0.01159845 [kcal/mol]      -0.04852792 [kJ/mol]
      Exch-Disp20                   0.02960263 [mEh]       0.01857593 [kcal/mol]       0.07772171 [kJ/mol]

  Total HF                       -159.98341882 [mEh]    -100.39111096 [kcal/mol]    -420.03640825 [kJ/mol]
  Total SAPT0                    -160.14508616 [mEh]    -100.49255874 [kcal/mol]    -420.46086578 [kJ/mol]
  Total SAPT2                    -161.17097256 [mEh]    -101.13631218 [kcal/mol]    -423.15433016 [kJ/mol]
  Total SAPT2+                   -161.20843733 [mEh]    -101.15982168 [kcal/mol]    -423.25269389 [kJ/mol]

  Special recipe for scaled SAPT0 (see Manual):
    Electrostatics sSAPT0        -150.65374120 [mEh]     -94.53664986 [kcal/mol]    -395.54134302 [kJ/mol]
    Exchange sSAPT0                 2.62401077 [mEh]       1.64659162 [kcal/mol]       6.88933933 [kJ/mol]
    Induction sSAPT0              -11.94013778 [mEh]      -7.49254957 [kcal/mol]     -31.34882742 [kJ/mol]
    Dispersion sSAPT0              -0.16160558 [mEh]      -0.10140903 [kcal/mol]      -0.42429539 [kJ/mol]
  Total sSAPT0                   -160.13147379 [mEh]    -100.48401685 [kcal/mol]    -420.42512651 [kJ/mol]
  --------------------------------------------------------------------------------------------------------

*** Psi4 exiting successfully. Buy a developer a beer!
