                               Psi4 1.9 release

  ==> Input File <==

--------------------------------------------------------------------------
MEMORY 60 GB

molecule dimer {
1 1
K      0.000000     0.000000     0.000000
--
-1 1
F      1.740144     0.000000     0.000000

units ang
no_reorient
no_com
symmetry c1
}

set {
basis        aug-cc-pVTZ
scf_type     df
}

energy("sapt2+")
--------------------------------------------------------------------------

  //              Dimer HF             //
    Molecular point group: c1
  Charge       = 0
  Multiplicity = 1
  Basis Set: AUG-CC-PVTZ
    Blend: AUG-CC-PVTZ
  Basis Set: (AUG-CC-PVTZ AUX)
    Blend: AUG-CC-PVTZ-JKFIT + DEF2-UNIVERSAL-JKFIT
  @DF-RHF Final Energy:  -698.61168656526513
    Total Energy =                       -698.6116865652651313
 Dipole X            :        -31.9438379           29.5955602           -2.3482777
 Dipole Y            :          0.0000000            0.0000000            0.0000000
 Dipole Z            :         -0.0000000            0.0000000           -0.0000000
 Magnitude           :                                                    2.3482777
  //            Monomer A HF           //
    Molecular point group: c1
  Multiplicity = 1
  Basis Set: AUG-CC-PVTZ
    Blend: AUG-CC-PVTZ
  Basis Set: (AUG-CC-PVTZ AUX)
    Blend: AUG-CC-PVTZ-JKFIT + DEF2-UNIVERSAL-JKFIT
  @DF-RHF Final Energy:  -599.01750850575957
    Total Energy =                       -599.0175085057595652
  //            Monomer B HF           //
    Molecular point group: c1

    Geometry (in Angstrom), charge = -1, multiplicity = 1:

       Center              X                  Y                   Z               Mass
    ------------   -----------------  -----------------  -----------------  -----------------
      Gh(K)           0.000000000000     0.000000000000     0.000000000000    38.963706486400
         F            1.740144000000     0.000000000000     0.000000000000    18.998403162730

  Charge       = -1
  Multiplicity = 1
  Basis Set: AUG-CC-PVTZ
    Blend: AUG-CC-PVTZ
  Basis Set: (AUG-CC-PVTZ AUX)
    Blend: AUG-CC-PVTZ-JKFIT + DEF2-UNIVERSAL-JKFIT

    Orbital Energies [Eh]
    ---------------------

    Doubly Occupied:

       1A    -25.833900     2A     -1.076116     3A     -0.181058
       4A     -0.181032     5A     -0.181032

  @DF-RHF Final Energy:   -99.45084315064747

   => Energetics <=

    Nuclear Repulsion Energy =              0.0000000000000000
    One-Electron Energy =                -143.9954132743136199
    Two-Electron Energy =                  44.5445701236661478
    Total Energy =                        -99.4508431506474722
 Dipole X            :        -32.8856172           29.5955602           -3.2900570
 Dipole Y            :         -0.0000000            0.0000000           -0.0000000
 Dipole Z            :         -0.0000000            0.0000000           -0.0000000
 Magnitude           :                                                    3.2900570

    SAPT Results
  --------------------------------------------------------------------------------------------------------
    Electrostatics               -433.58108192 [mEh]    -272.07623656 [kcal/mol]   -1138.36697376 [kJ/mol]
      Elst10,r                   -422.73623484 [mEh]    -265.27099227 [kcal/mol]   -1109.89383166 [kJ/mol]
      Elst12,r                    -10.84484708 [mEh]      -6.80524429 [kcal/mol]     -28.47314210 [kJ/mol]

    Exchange                      372.00785269 [mEh]     233.43845188 [kcal/mol]     976.70648267 [kJ/mol]
      Exch10                      346.72805116 [mEh]     217.57513693 [kcal/mol]     910.33437291 [kJ/mol]
      Exch10(S^2)                 315.25864194 [mEh]     197.82778451 [kcal/mol]     827.71145039 [kJ/mol]
      Exch11(S^2)                  -8.17006186 [mEh]      -5.12679122 [kcal/mol]     -21.45049447 [kJ/mol]
      Exch12(S^2)                  33.44986339 [mEh]      20.99010617 [kcal/mol]      87.82260423 [kJ/mol]

    Induction                     -93.51482605 [mEh]     -58.68143929 [kcal/mol]    -245.52314197 [kJ/mol]
      Ind20,r                    -519.14427638 [mEh]    -325.76795169 [kcal/mol]   -1363.01310986 [kJ/mol]
      Ind22                      -115.45691690 [mEh]     -72.45030917 [kcal/mol]    -303.13209355 [kJ/mol]
      Exch-Ind20,r                401.39123878 [mEh]     251.87680502 [kcal/mol]    1053.85255222 [kJ/mol]
      Exch-Ind22                   89.26881602 [mEh]      56.01702777 [kcal/mol]     234.37524418 [kJ/mol]
      delta HF,r (2)               50.42631243 [mEh]      31.64298878 [kcal/mol]     132.39426504 [kJ/mol]

    Dispersion                    -19.48427102 [mEh]     -12.22656466 [kcal/mol]     -51.15594652 [kJ/mol]
      Disp20                      -28.38121051 [mEh]     -17.80947848 [kcal/mol]     -74.51485794 [kJ/mol]
      Disp21                        3.99441526 [mEh]       2.50653342 [kcal/mol]      10.48733583 [kJ/mol]
      Disp22 (SDQ)                 -2.10452418 [mEh]      -1.32060886 [kcal/mol]      -5.52542747 [kJ/mol]
      Disp22 (T)                   -3.16527494 [mEh]      -1.98624001 [kcal/mol]      -8.31042820 [kJ/mol]
      Est. Disp22 (T)              -3.35758596 [mEh]      -2.10691700 [kcal/mol]      -8.81534073 [kJ/mol]
      Exch-Disp20                  10.36463437 [mEh]       6.50390626 [kcal/mol]      27.21234379 [kJ/mol]

  Total HF                       -143.33490886 [mEh]     -89.94401323 [kcal/mol]    -376.32575136 [kJ/mol]
  Total SAPT0                    -161.35148500 [mEh]    -101.24958545 [kcal/mol]    -423.62826551 [kJ/mol]
  Total SAPT2                    -173.10463143 [mEh]    -108.62479618 [kcal/mol]    -454.48614722 [kJ/mol]
  Total SAPT2+                   -174.57232631 [mEh]    -109.54578862 [kcal/mol]    -458.33957959 [kJ/mol]

  Special recipe for scaled SAPT0 (see Manual):
    Electrostatics sSAPT0        -422.73623484 [mEh]    -265.27099227 [kcal/mol]   -1109.89383166 [kJ/mol]
    Exchange sSAPT0               346.72805116 [mEh]     217.57513693 [kcal/mol]     910.33437291 [kJ/mol]
    Induction sSAPT0               65.27289591 [mEh]      40.95936056 [kcal/mol]     171.37396460 [kJ/mol]
    Dispersion sSAPT0             -14.59261852 [mEh]      -9.15700637 [kcal/mol]     -38.31291466 [kJ/mol]
  Total sSAPT0                    -25.32790629 [mEh]     -15.89350115 [kcal/mol]     -66.49840881 [kJ/mol]
  --------------------------------------------------------------------------------------------------------

*** Psi4 exiting successfully. Buy a developer a beer!
