                               Psi4 1.9 release

  ==> Input File <==

--------------------------------------------------------------------------
MEMORY 60 GB

molecule dimer {
1 1
K      0.000000     0.000000     0.000000
--
-1 1
F      1.957662     0.000000     0.000000

units ang
no_reorient
no_com
symmetry c1
}

set {
basis        aug-cc-pVTZ
scf_type     df
}

energy("sapt2+")
--------------------------------------------------------------------------

  //              Dimer HF             //
    Molecular point group: c1
  Charge       = 0
  Multiplicity = 1
  Basis Set: AUG-CC-PVTZ
    Blend: AUG-CC-PVTZ
  Basis Set: (AUG-CC-PVTZ AUX)
    Blend: AUG-CC-PVTZ-JKFIT + DEF2-UNIVERSAL-JKFIT
  @DF-RHF Final Energy:  -698.66942951274962
    Total Energy =                       -698.6694295127496162
 Dipole X            :        -36.2585754           33.2950052           -2.9635702
 Dipole Y            :          0.0000000            0.0000000            0.0000000
 Dipole Z            :          0.0000000            0.0000000            0.0000000
 Magnitude           :                                                    2.9635702
  //            Monomer A HF           //
    Molecular point group: c1
  Multiplicity = 1
  Basis Set: AUG-CC-PVTZ
    Blend: AUG-CC-PVTZ
  Basis Set: (AUG-CC-PVTZ AUX)
    Blend: AUG-CC-PVTZ-JKFIT + DEF2-UNIVERSAL-JKFIT
  @DF-RHF Final Energy:  -599.01750811218676
    Total Energy =                       -599.0175081121867606
  //            Monomer B HF           //
    Molecular point group: c1

    Geometry (in Angstrom), charge = -1, multiplicity = 1:

       Center              X                  Y                   Z               Mass
    ------------   -----------------  -----------------  -----------------  -----------------
      Gh(K)           0.000000000000     0.000000000000     0.000000000000    38.963706486400
         F            1.957662000000     0.000000000000     0.000000000000    18.998403162730

  Charge       = -1
  Multiplicity = 1
  Basis Set: AUG-CC-PVTZ
    Blend: AUG-CC-PVTZ
  Basis Set: (AUG-CC-PVTZ AUX)
    Blend: AUG-CC-PVTZ-JKFIT + DEF2-UNIVERSAL-JKFIT

    Orbital Energies [Eh]
    ---------------------

    Doubly Occupied:

       1A    -25.833886     2A     -1.076111     3A     -0.181062
       4A     -0.181025     5A     -0.181025

  @DF-RHF Final Energy:   -99.45084623806584

   => Energetics <=

    Nuclear Repulsion Energy =              0.0000000000000000
    One-Electron Energy =                -143.9954758981787677
    Two-Electron Energy =                  44.5446296601129319
    Total Energy =                        -99.4508462380658358
 Dipole X            :        -36.9949227           33.2950052           -3.6999175
 Dipole Y            :         -0.0000000            0.0000000           -0.0000000
 Dipole Z            :         -0.0000000            0.0000000           -0.0000000
 Magnitude           :                                                    3.6999175

    SAPT Results
  --------------------------------------------------------------------------------------------------------
    Electrostatics               -331.94326588 [mEh]    -208.29754410 [kcal/mol]    -871.51692450 [kJ/mol]
      Elst10,r                   -323.32667394 [mEh]    -202.89055102 [kcal/mol]    -848.89406547 [kJ/mol]
      Elst12,r                     -8.61659194 [mEh]      -5.40699308 [kcal/mol]     -22.62285903 [kJ/mol]

    Exchange                      181.98128736 [mEh]     114.19498187 [kcal/mol]     477.79180414 [kJ/mol]
      Exch10                      160.88446813 [mEh]     100.95652794 [kcal/mol]     422.40211289 [kJ/mol]
      Exch10(S^2)                 153.00969808 [mEh]      96.01503512 [kcal/mol]     401.72690696 [kJ/mol]
      Exch11(S^2)                  -3.01457125 [mEh]      -1.89167202 [kcal/mol]      -7.91475572 [kJ/mol]
      Exch12(S^2)                  24.11139047 [mEh]      15.13012595 [kcal/mol]      63.30444696 [kJ/mol]

    Induction                     -51.30743652 [mEh]     -32.19590249 [kcal/mol]    -134.70765603 [kJ/mol]
      Ind20,r                    -258.19595852 [mEh]    -162.02041006 [kcal/mol]    -677.89339570 [kJ/mol]
      Ind22                       -73.83640502 [mEh]     -46.33304366 [kcal/mol]    -193.85745468 [kJ/mol]
      Exch-Ind20,r                213.87501052 [mEh]     134.20859530 [kcal/mol]     561.52876275 [kJ/mol]
      Exch-Ind22                   61.16192520 [mEh]      38.37968749 [kcal/mol]     160.58061248 [kJ/mol]
      delta HF,r (2)                5.68799131 [mEh]       3.56926843 [kcal/mol]      14.93381913 [kJ/mol]

    Dispersion                    -11.66623345 [mEh]      -7.32067201 [kcal/mol]     -30.62969169 [kJ/mol]
      Disp20                      -15.58410010 [mEh]      -9.77917045 [kcal/mol]     -40.91604917 [kJ/mol]
      Disp21                        1.78451921 [mEh]       1.11980271 [kcal/mol]       4.68525453 [kJ/mol]
      Disp22 (SDQ)                 -1.19528968 [mEh]      -0.75005560 [kcal/mol]      -3.13823261 [kJ/mol]
      Disp22 (T)                   -1.85972186 [mEh]      -1.16699309 [kcal/mol]      -4.88269907 [kJ/mol]
      Est. Disp22 (T)              -2.02714280 [mEh]      -1.27205131 [kcal/mol]      -5.32226268 [kJ/mol]
      Exch-Disp20                   5.35577992 [mEh]       3.36080264 [kcal/mol]      14.06159825 [kJ/mol]

  Total HF                       -201.07516250 [mEh]    -126.17656941 [kcal/mol]    -527.92276640 [kJ/mol]
  Total SAPT0                    -211.30348267 [mEh]    -132.59493722 [kcal/mol]    -554.77721733 [kJ/mol]
  Total SAPT2                    -211.49773522 [mEh]    -132.71683253 [kcal/mol]    -555.28722731 [kJ/mol]
  Total SAPT2+                   -212.93564849 [mEh]    -133.61913673 [kcal/mol]    -559.06246808 [kJ/mol]

  Special recipe for scaled SAPT0 (see Manual):
    Electrostatics sSAPT0        -323.32667394 [mEh]    -202.89055102 [kcal/mol]    -848.89406547 [kJ/mol]
    Exchange sSAPT0               160.88446813 [mEh]     100.95652794 [kcal/mol]     422.40211289 [kJ/mol]
    Induction sSAPT0               -3.88254899 [mEh]      -2.43633627 [kcal/mol]     -10.19363096 [kJ/mol]
    Dispersion sSAPT0              -9.35811316 [mEh]      -5.87230466 [kcal/mol]     -24.56972270 [kJ/mol]
  Total sSAPT0                   -175.68286795 [mEh]    -110.24266402 [kcal/mol]    -461.25530625 [kJ/mol]
  --------------------------------------------------------------------------------------------------------

*** Psi4 exiting successfully. Buy a developer a beer!
