                               Psi4 1.9 release

  ==> Input File <==

--------------------------------------------------------------------------
MEMORY 60 GB

molecule dimer {
1 1
K      0.000000     0.000000     0.000000
--
-1 1
F      3.262770     0.000000     0.000000

units ang
no_reorient
no_com
symmetry c1
}

set {
basis        aug-cc-pVTZ
scf_type     df
}

energy("sapt2+")
--------------------------------------------------------------------------

  //              Dimer HF             //
    Molecular point group: c1
  Charge       = 0
  Multiplicity = 1
  Basis Set: AUG-CC-PVTZ
    Blend: AUG-CC-PVTZ
  Basis Set: (AUG-CC-PVTZ AUX)
    Blend: AUG-CC-PVTZ-JKFIT + DEF2-UNIVERSAL-JKFIT
  @DF-RHF Final Energy:  -698.63416970637195
    Total Energy =                       -698.6341697063719494
 Dipole X            :        -61.2723306           55.4916754           -5.7806552
 Dipole Y            :         -0.0000000            0.0000000           -0.0000000
 Dipole Z            :         -0.0000000            0.0000000           -0.0000000
 Magnitude           :                                                    5.7806552
  //            Monomer A HF           //
    Molecular point group: c1
  Multiplicity = 1
  Basis Set: AUG-CC-PVTZ
    Blend: AUG-CC-PVTZ
  Basis Set: (AUG-CC-PVTZ AUX)
    Blend: AUG-CC-PVTZ-JKFIT + DEF2-UNIVERSAL-JKFIT
  @DF-RHF Final Energy:  -599.01750661445453
    Total Energy =                       -599.0175066144545326
  //            Monomer B HF           //
    Molecular point group: c1

    Geometry (in Angstrom), charge = -1, multiplicity = 1:

       Center              X                  Y                   Z               Mass
    ------------   -----------------  -----------------  -----------------  -----------------
      Gh(K)           0.000000000000     0.000000000000     0.000000000000    38.963706486400
         F            3.262770000000     0.000000000000     0.000000000000    18.998403162730

  Charge       = -1
  Multiplicity = 1
  Basis Set: AUG-CC-PVTZ
    Blend: AUG-CC-PVTZ
  Basis Set: (AUG-CC-PVTZ AUX)
    Blend: AUG-CC-PVTZ-JKFIT + DEF2-UNIVERSAL-JKFIT

    Orbital Energies [Eh]
    ---------------------

    Doubly Occupied:

       1A    -25.833886     2A     -1.076116     3A     -0.181040
       4A     -0.181038     5A     -0.181038

  @DF-RHF Final Energy:   -99.45082480731443

   => Energetics <=

    Nuclear Repulsion Energy =              0.0000000000000000
    One-Electron Energy =                -143.9954132876266044
    Two-Electron Energy =                  44.5445884803121785
    Total Energy =                        -99.4508248073144330
 Dipole X            :        -61.6573200           55.4916754           -6.1656446
 Dipole Y            :          0.0000000            0.0000000            0.0000000
 Dipole Z            :         -0.0000000            0.0000000           -0.0000000
 Magnitude           :                                                    6.1656446

    SAPT Results
  --------------------------------------------------------------------------------------------------------
    Electrostatics               -163.54181016 [mEh]    -102.62403524 [kcal/mol]    -429.37896343 [kJ/mol]
      Elst10,r                   -162.82094238 [mEh]    -102.17168388 [kcal/mol]    -427.48632534 [kJ/mol]
      Elst12,r                     -0.72086778 [mEh]      -0.45235136 [kcal/mol]      -1.89263810 [kJ/mol]

    Exchange                        3.76483552 [mEh]       2.36246995 [kcal/mol]       9.88457429 [kJ/mol]
      Exch10                        2.33426204 [mEh]       1.46477154 [kcal/mol]       6.12860414 [kJ/mol]
      Exch10(S^2)                   2.33153354 [mEh]       1.46305938 [kcal/mol]       6.12144046 [kJ/mol]
      Exch11(S^2)                   0.00162234 [mEh]       0.00101804 [kcal/mol]       0.00425946 [kJ/mol]
      Exch12(S^2)                   1.42895113 [mEh]       0.89668037 [kcal/mol]       3.75171068 [kJ/mol]

    Induction                      -7.69643218 [mEh]      -4.82958411 [kcal/mol]     -20.20697990 [kJ/mol]
      Ind20,r                      -9.82041021 [mEh]      -6.16240044 [kcal/mol]     -25.78348345 [kJ/mol]
      Ind22                        -4.52281066 [mEh]      -2.83810654 [kcal/mol]     -11.87463776 [kJ/mol]
      Exch-Ind20,r                  4.72906906 [mEh]       2.96753564 [kcal/mol]      12.41616910 [kJ/mol]
      Exch-Ind22                    2.17798274 [mEh]       1.36670480 [kcal/mol]       5.71829290 [kJ/mol]
      delta HF,r (2)               -0.26026311 [mEh]      -0.16331757 [kcal/mol]      -0.68332070 [kJ/mol]

    Dispersion                     -0.84851716 [mEh]      -0.53245256 [kcal/mol]      -2.22778149 [kJ/mol]
      Disp20                       -0.77202436 [mEh]      -0.48445260 [kcal/mol]      -2.02694967 [kJ/mol]
      Disp21                        0.06191020 [mEh]       0.03884924 [kcal/mol]       0.16254521 [kJ/mol]
      Disp22 (SDQ)                 -0.11372126 [mEh]      -0.07136117 [kcal/mol]      -0.29857514 [kJ/mol]
      Disp22 (T)                   -0.11921074 [mEh]      -0.07480587 [kcal/mol]      -0.31298775 [kJ/mol]
      Est. Disp22 (T)              -0.13328372 [mEh]      -0.08363680 [kcal/mol]      -0.34993636 [kJ/mol]
      Exch-Disp20                   0.10860199 [mEh]       0.06814877 [kcal/mol]       0.28513447 [kJ/mol]

  Total HF                       -165.83828460 [mEh]    -104.06509470 [kcal/mol]    -435.40835624 [kJ/mol]
  Total SAPT0                    -166.50170698 [mEh]    -104.48139853 [kcal/mol]    -437.15017144 [kJ/mol]
  Total SAPT2                    -168.13682920 [mEh]    -105.50745321 [kcal/mol]    -441.44318424 [kJ/mol]
  Total SAPT2+                   -168.32192398 [mEh]    -105.62360194 [kcal/mol]    -441.92915053 [kJ/mol]

  Special recipe for scaled SAPT0 (see Manual):
    Electrostatics sSAPT0        -162.82094238 [mEh]    -102.17168388 [kcal/mol]    -427.48632534 [kJ/mol]
    Exchange sSAPT0                 2.33426204 [mEh]       1.46477154 [kcal/mol]       6.12860414 [kJ/mol]
    Induction sSAPT0               -5.33498209 [mEh]      -3.34775180 [kcal/mol]     -14.00699354 [kJ/mol]
    Dispersion sSAPT0              -0.66304065 [mEh]      -0.41606429 [kcal/mol]      -1.74081298 [kJ/mol]
  Total sSAPT0                   -166.48470308 [mEh]    -104.47072842 [kcal/mol]    -437.10552772 [kJ/mol]
  --------------------------------------------------------------------------------------------------------

*** Psi4 exiting successfully. Buy a developer a beer!
