                               Psi4 1.9 release

  ==> Input File <==

--------------------------------------------------------------------------
MEMORY 60 GB

molecule dimer {
1 1
K      0.000000     0.000000     0.000000
--
-1 1
F      3.045252     0.000000     0.000000

units ang
no_reorient
no_com
symmetry c1
}

set {
basis        aug-cc-pVTZ
scf_type     df
}

energy("sapt2+")
--------------------------------------------------------------------------

  //              Dimer HF             //
    Molecular point group: c1
  Charge       = 0
  Multiplicity = 1
  Basis Set: AUG-CC-PVTZ
    Blend: AUG-CC-PVTZ
  Basis Set: (AUG-CC-PVTZ AUX)
    Blend: AUG-CC-PVTZ-JKFIT + DEF2-UNIVERSAL-JKFIT
  @DF-RHF Final Energy:  -698.64558738205596
    Total Energy =                       -698.6455873820559646
 Dipole X            :        -57.1293683           51.7922304           -5.3371379
 Dipole Y            :          0.0000000            0.0000000            0.0000000
 Dipole Z            :          0.0000000            0.0000000            0.0000000
 Magnitude           :                                                    5.3371379
  //            Monomer A HF           //
    Molecular point group: c1
  Multiplicity = 1
  Basis Set: AUG-CC-PVTZ
    Blend: AUG-CC-PVTZ
  Basis Set: (AUG-CC-PVTZ AUX)
    Blend: AUG-CC-PVTZ-JKFIT + DEF2-UNIVERSAL-JKFIT
  @DF-RHF Final Energy:  -599.01750670754780
    Total Energy =                       -599.0175067075477955
  //            Monomer B HF           //
    Molecular point group: c1

    Geometry (in Angstrom), charge = -1, multiplicity = 1:

       Center              X                  Y                   Z               Mass
    ------------   -----------------  -----------------  -----------------  -----------------
      Gh(K)           0.000000000000     0.000000000000     0.000000000000    38.963706486400
         F            3.045252000000     0.000000000000     0.000000000000    18.998403162730

  Charge       = -1
  Multiplicity = 1
  Basis Set: AUG-CC-PVTZ
    Blend: AUG-CC-PVTZ
  Basis Set: (AUG-CC-PVTZ AUX)
    Blend: AUG-CC-PVTZ-JKFIT + DEF2-UNIVERSAL-JKFIT

    Orbital Energies [Eh]
    ---------------------

    Doubly Occupied:

       1A    -25.833893     2A     -1.076116     3A     -0.181042
       4A     -0.181038     5A     -0.181038

  @DF-RHF Final Energy:   -99.45082656596448

   => Energetics <=

    Nuclear Repulsion Energy =              0.0000000000000000
    One-Electron Energy =                -143.9954025382382952
    Two-Electron Energy =                  44.5445759722738188
    Total Energy =                        -99.4508265659644763
 Dipole X            :        -57.5468062           51.7922304           -5.7545758
 Dipole Y            :         -0.0000000            0.0000000           -0.0000000
 Dipole Z            :          0.0000000            0.0000000            0.0000000
 Magnitude           :                                                    5.7545758

    SAPT Results
  --------------------------------------------------------------------------------------------------------
    Electrostatics               -176.13903658 [mEh]    -110.52891415 [kcal/mol]    -462.45297682 [kJ/mol]
      Elst10,r                   -175.03884467 [mEh]    -109.83853331 [kcal/mol]    -459.56442336 [kJ/mol]
      Elst12,r                     -1.10019191 [mEh]      -0.69038085 [kcal/mol]      -2.88855346 [kJ/mol]

    Exchange                        6.88839985 [mEh]       4.32253616 [kcal/mol]      18.08549131 [kJ/mol]
      Exch10                        4.51775934 [mEh]       2.83493679 [kcal/mol]      11.86137552 [kJ/mol]
      Exch10(S^2)                   4.50802299 [mEh]       2.82882713 [kcal/mol]      11.83581272 [kJ/mol]
      Exch11(S^2)                  -0.00625823 [mEh]      -0.00392710 [kcal/mol]      -0.01643097 [kJ/mol]
      Exch12(S^2)                   2.37689873 [mEh]       1.49152647 [kcal/mol]       6.24054677 [kJ/mol]

    Induction                      -9.68972137 [mEh]      -6.08039196 [kcal/mol]     -25.44035995 [kJ/mol]
      Ind20,r                     -15.09593465 [mEh]      -9.47284201 [kcal/mol]     -39.63437096 [kJ/mol]
      Ind22                        -7.01333509 [mEh]      -4.40093421 [kcal/mol]     -18.41350874 [kJ/mol]
      Exch-Ind20,r                  8.73175534 [mEh]       5.47925920 [kcal/mol]      22.92522049 [kJ/mol]
      Exch-Ind22                    4.05663694 [mEh]       2.54557811 [kcal/mol]      10.65069882 [kJ/mol]
      delta HF,r (2)               -0.36884391 [mEh]      -0.23145305 [kcal/mol]      -0.96839954 [kJ/mol]

    Dispersion                     -1.22707857 [mEh]      -0.77000343 [kcal/mol]      -3.22169434 [kJ/mol]
      Disp20                       -1.17200710 [mEh]      -0.73544556 [kcal/mol]      -3.07710421 [kJ/mol]
      Disp21                        0.09556209 [mEh]       0.05996612 [kcal/mol]       0.25089823 [kJ/mol]
      Disp22 (SDQ)                 -0.15635546 [mEh]      -0.09811453 [kcal/mol]      -0.41051121 [kJ/mol]
      Disp22 (T)                   -0.17204945 [mEh]      -0.10796266 [kcal/mol]      -0.45171576 [kJ/mol]
      Est. Disp22 (T)              -0.19522811 [mEh]      -0.12250749 [kcal/mol]      -0.51257134 [kJ/mol]
      Exch-Disp20                   0.20095001 [mEh]       0.12609803 [kcal/mol]       0.52759417 [kJ/mol]

  Total HF                       -177.25410854 [mEh]    -111.22863238 [kcal/mol]    -465.38059787 [kJ/mol]
  Total SAPT0                    -178.22516563 [mEh]    -111.83797990 [kcal/mol]    -467.93010790 [kJ/mol]
  Total SAPT2                    -179.91141518 [mEh]    -112.89611747 [kcal/mol]    -472.35735548 [kJ/mol]
  Total SAPT2+                   -180.16743666 [mEh]    -113.05677337 [kcal/mol]    -473.02953979 [kJ/mol]

  Special recipe for scaled SAPT0 (see Manual):
    Electrostatics sSAPT0        -175.03884467 [mEh]    -109.83853331 [kcal/mol]    -459.56442336 [kJ/mol]
    Exchange sSAPT0                 4.51775934 [mEh]       2.83493679 [kcal/mol]      11.86137552 [kJ/mol]
    Induction sSAPT0               -6.67632482 [mEh]      -4.18945708 [kcal/mol]     -17.52868840 [kJ/mol]
    Dispersion sSAPT0              -0.96975225 [mEh]      -0.60852872 [kcal/mol]      -2.54608418 [kJ/mol]
  Total sSAPT0                   -178.16716240 [mEh]    -111.80158232 [kcal/mol]    -467.77782043 [kJ/mol]
  --------------------------------------------------------------------------------------------------------

*** Psi4 exiting successfully. Buy a developer a beer!
