                               Psi4 1.9 release

  ==> Input File <==

--------------------------------------------------------------------------
MEMORY 60 GB

molecule dimer {
1 1
K      0.000000     0.000000     0.000000
--
-1 1
F      2.283939     0.000000     0.000000

units ang
no_reorient
no_com
symmetry c1
}

set {
basis        aug-cc-pVTZ
scf_type     df
}

energy("sapt2+")
--------------------------------------------------------------------------

  //              Dimer HF             //
    Molecular point group: c1
  Charge       = 0
  Multiplicity = 1
  Basis Set: AUG-CC-PVTZ
    Blend: AUG-CC-PVTZ
  Basis Set: (AUG-CC-PVTZ AUX)
    Blend: AUG-CC-PVTZ-JKFIT + DEF2-UNIVERSAL-JKFIT
  @DF-RHF Final Energy:  -698.68370890971721
    Total Energy =                       -698.6837089097173248
 Dipole X            :        -42.5775983           38.8441728           -3.7334256
 Dipole Y            :          0.0000000            0.0000000            0.0000000
 Dipole Z            :         -0.0000000            0.0000000           -0.0000000
 Magnitude           :                                                    3.7334256
  //            Monomer A HF           //
    Molecular point group: c1
  Multiplicity = 1
  Basis Set: AUG-CC-PVTZ
    Blend: AUG-CC-PVTZ
  Basis Set: (AUG-CC-PVTZ AUX)
    Blend: AUG-CC-PVTZ-JKFIT + DEF2-UNIVERSAL-JKFIT
  @DF-RHF Final Energy:  -599.01750763134714
    Total Energy =                       -599.0175076313471436
  //            Monomer B HF           //
    Molecular point group: c1

    Geometry (in Angstrom), charge = -1, multiplicity = 1:

       Center              X                  Y                   Z               Mass
    ------------   -----------------  -----------------  -----------------  -----------------
      Gh(K)           0.000000000000     0.000000000000     0.000000000000    38.963706486400
         F            2.283939000000     0.000000000000     0.000000000000    18.998403162730

  Charge       = -1
  Multiplicity = 1
  Basis Set: AUG-CC-PVTZ
    Blend: AUG-CC-PVTZ
  Basis Set: (AUG-CC-PVTZ AUX)
    Blend: AUG-CC-PVTZ-JKFIT + DEF2-UNIVERSAL-JKFIT

    Orbital Energies [Eh]
    ---------------------

    Doubly Occupied:

       1A    -25.833887     2A     -1.076111     3A     -0.181056
       4A     -0.181027     5A     -0.181027

  @DF-RHF Final Energy:   -99.45083706911809

   => Energetics <=

    Nuclear Repulsion Energy =              0.0000000000000000
    One-Electron Energy =                -143.9954583906980190
    Two-Electron Energy =                  44.5446213215799247
    Total Energy =                        -99.4508370691180943
 Dipole X            :        -43.1597502           38.8441728           -4.3155775
 Dipole Y            :          0.0000000            0.0000000            0.0000000
 Dipole Z            :          0.0000000            0.0000000            0.0000000
 Magnitude           :                                                    4.3155775

    SAPT Results
  --------------------------------------------------------------------------------------------------------
    Electrostatics               -253.22776711 [mEh]    -158.90282288 [kcal/mol]    -664.84941095 [kJ/mol]
      Elst10,r                   -248.15463560 [mEh]    -155.71938480 [kcal/mol]    -651.52990601 [kJ/mol]
      Elst12,r                     -5.07313151 [mEh]      -3.18343808 [kcal/mol]     -13.31950494 [kJ/mol]

    Exchange                       64.71564476 [mEh]      40.60968019 [kcal/mol]     169.91090191 [kJ/mol]
      Exch10                       52.42838419 [mEh]      32.89930778 [kcal/mol]     137.65070373 [kJ/mol]
      Exch10(S^2)                  51.42514568 [mEh]      32.26976611 [kcal/mol]     135.01670139 [kJ/mol]
      Exch11(S^2)                  -0.66763202 [mEh]      -0.41894542 [kcal/mol]      -1.75286762 [kJ/mol]
      Exch12(S^2)                  12.95489259 [mEh]       8.12931783 [kcal/mol]      34.01306580 [kJ/mol]

    Induction                     -26.17967495 [mEh]     -16.42799405 [kcal/mol]     -68.73472712 [kJ/mol]
      Ind20,r                     -98.36079463 [mEh]     -61.72233048 [kcal/mol]    -258.24623073 [kJ/mol]
      Ind22                       -36.40790563 [mEh]     -22.84630570 [kcal/mol]     -95.58894307 [kJ/mol]
      Exch-Ind20,r                 80.68747665 [mEh]      50.63215602 [kcal/mol]     211.84494077 [kJ/mol]
      Exch-Ind22                   29.86618852 [mEh]      18.74131624 [kcal/mol]      78.41366716 [kJ/mol]
      delta HF,r (2)               -1.96463986 [mEh]      -1.23283013 [kcal/mol]      -5.15816125 [kJ/mol]

    Dispersion                     -5.59754910 [mEh]      -3.51251509 [kcal/mol]     -14.69636314 [kJ/mol]
      Disp20                       -6.63866089 [mEh]      -4.16582260 [kcal/mol]     -17.42980176 [kJ/mol]
      Disp21                        0.60280131 [mEh]       0.37826353 [kcal/mol]       1.58265462 [kJ/mol]
      Disp22 (SDQ)                 -0.57776764 [mEh]      -0.36255466 [kcal/mol]      -1.51692872 [kJ/mol]
      Disp22 (T)                   -0.87727362 [mEh]      -0.55049751 [kcal/mol]      -2.30328156 [kJ/mol]
      Est. Disp22 (T)              -0.96344675 [mEh]      -0.60457196 [kcal/mol]      -2.52952909 [kJ/mol]
      Exch-Disp20                   1.97952486 [mEh]       1.24217060 [kcal/mol]       5.19724180 [kJ/mol]

  Total HF                       -215.36420925 [mEh]    -135.14308162 [kcal/mol]    -565.43865349 [kJ/mol]
  Total SAPT0                    -220.02334528 [mEh]    -138.06673362 [kcal/mol]    -577.67121345 [kJ/mol]
  Total SAPT2                    -219.35093333 [mEh]    -137.64478875 [kcal/mol]    -575.90579612 [kJ/mol]
  Total SAPT2+                   -220.28934640 [mEh]    -138.23365184 [kcal/mol]    -578.36959930 [kJ/mol]

  Special recipe for scaled SAPT0 (see Manual):
    Electrostatics sSAPT0        -248.15463560 [mEh]    -155.71938480 [kcal/mol]    -651.52990601 [kJ/mol]
    Exchange sSAPT0                52.42838419 [mEh]      32.89930778 [kcal/mol]     137.65070373 [kJ/mol]
    Induction sSAPT0              -14.82290527 [mEh]      -9.30151348 [kcal/mol]     -38.91753242 [kJ/mol]
    Dispersion sSAPT0              -4.54100721 [mEh]      -2.84952504 [kcal/mol]     -11.92241279 [kJ/mol]
  Total sSAPT0                   -215.09016389 [mEh]    -134.97111555 [kcal/mol]    -564.71914748 [kJ/mol]
  --------------------------------------------------------------------------------------------------------

*** Psi4 exiting successfully. Buy a developer a beer!
