                               Psi4 1.9 release

  ==> Input File <==

--------------------------------------------------------------------------
MEMORY 60 GB

molecule dimer {
1 1
K      0.000000     0.000000     0.000000
--
-1 1
F      2.827734     0.000000     0.000000

units ang
no_reorient
no_com
symmetry c1
}

set {
basis        aug-cc-pVTZ
scf_type     df
}

energy("sapt2+")
--------------------------------------------------------------------------

  //              Dimer HF             //
    Molecular point group: c1
  Charge       = 0
  Multiplicity = 1
  Basis Set: AUG-CC-PVTZ
    Blend: AUG-CC-PVTZ
  Basis Set: (AUG-CC-PVTZ AUX)
    Blend: AUG-CC-PVTZ-JKFIT + DEF2-UNIVERSAL-JKFIT
  @DF-RHF Final Energy:  -698.65781478573149
    Total Energy =                       -698.6578147857314889
 Dipole X            :        -52.9848538           48.0927853           -4.8920685
 Dipole Y            :         -0.0000000            0.0000000           -0.0000000
 Dipole Z            :         -0.0000000            0.0000000           -0.0000000
 Magnitude           :                                                    4.8920685
  //            Monomer A HF           //
    Molecular point group: c1
  Multiplicity = 1
  Basis Set: AUG-CC-PVTZ
    Blend: AUG-CC-PVTZ
  Basis Set: (AUG-CC-PVTZ AUX)
    Blend: AUG-CC-PVTZ-JKFIT + DEF2-UNIVERSAL-JKFIT
  @DF-RHF Final Energy:  -599.01750684957801
    Total Energy =                       -599.0175068495780124
  //            Monomer B HF           //
    Molecular point group: c1

    Geometry (in Angstrom), charge = -1, multiplicity = 1:

       Center              X                  Y                   Z               Mass
    ------------   -----------------  -----------------  -----------------  -----------------
      Gh(K)           0.000000000000     0.000000000000     0.000000000000    38.963706486400
         F            2.827734000000     0.000000000000     0.000000000000    18.998403162730

  Charge       = -1
  Multiplicity = 1
  Basis Set: AUG-CC-PVTZ
    Blend: AUG-CC-PVTZ
  Basis Set: (AUG-CC-PVTZ AUX)
    Blend: AUG-CC-PVTZ-JKFIT + DEF2-UNIVERSAL-JKFIT

    Orbital Energies [Eh]
    ---------------------

    Doubly Occupied:

       1A    -25.833899     2A     -1.076116     3A     -0.181044
       4A     -0.181038     5A     -0.181038

  @DF-RHF Final Energy:   -99.45082836709817

   => Energetics <=

    Nuclear Repulsion Energy =              0.0000000000000000
    One-Electron Energy =                -143.9953873182188033
    Two-Electron Energy =                  44.5445589511206350
    Total Energy =                        -99.4508283670981683
 Dipole X            :        -53.4362342           48.0927853           -5.3434488
 Dipole Y            :         -0.0000000            0.0000000           -0.0000000
 Dipole Z            :          0.0000000            0.0000000            0.0000000
 Magnitude           :                                                    5.3434488

    SAPT Results
  --------------------------------------------------------------------------------------------------------
    Electrostatics               -191.45920808 [mEh]    -120.14246691 [kcal/mol]    -502.67608155 [kJ/mol]
      Elst10,r                   -189.72502672 [mEh]    -119.05425168 [kcal/mol]    -498.12298904 [kJ/mol]
      Elst12,r                     -1.73418135 [mEh]      -1.08821523 [kcal/mol]      -4.55309251 [kJ/mol]

    Exchange                       12.78355011 [mEh]       8.02179880 [kcal/mol]      33.56320618 [kJ/mol]
      Exch10                        8.89718339 [mEh]       5.58306687 [kcal/mol]      23.35955178 [kJ/mol]
      Exch10(S^2)                   8.86155217 [mEh]       5.56070794 [kcal/mol]      23.26600202 [kJ/mol]
      Exch11(S^2)                  -0.03612652 [mEh]      -0.02266974 [kcal/mol]      -0.09485017 [kJ/mol]
      Exch12(S^2)                   3.92249324 [mEh]       2.46140167 [kcal/mol]      10.29850458 [kJ/mol]

    Induction                     -12.30270778 [mEh]      -7.72006569 [kcal/mol]     -32.30075483 [kJ/mol]
      Ind20,r                     -24.29222730 [mEh]     -15.24360277 [kcal/mol]     -63.77923398 [kJ/mol]
      Ind22                       -11.04548825 [mEh]      -6.93114852 [kcal/mol]     -28.99992540 [kJ/mol]
      Exch-Ind20,r                 16.26266047 [mEh]      10.20497351 [kcal/mol]      42.69760918 [kJ/mol]
      Exch-Ind22                    7.39450619 [mEh]       4.64012269 [kcal/mol]      19.41427333 [kJ/mol]
      delta HF,r (2)               -0.62215890 [mEh]      -0.39041060 [kcal/mol]      -1.63347796 [kJ/mol]

    Dispersion                     -1.81587627 [mEh]      -1.13947956 [kcal/mol]      -4.76758249 [kJ/mol]
      Disp20                       -1.83610719 [mEh]      -1.15217465 [kcal/mol]      -4.82069876 [kJ/mol]
      Disp21                        0.15170746 [mEh]       0.09519787 [kcal/mol]       0.39830787 [kJ/mol]
      Disp22 (SDQ)                 -0.21684855 [mEh]      -0.13607452 [kcal/mol]      -0.56933579 [kJ/mol]
      Disp22 (T)                   -0.25655911 [mEh]      -0.16099327 [kcal/mol]      -0.67359586 [kJ/mol]
      Est. Disp22 (T)              -0.29420146 [mEh]      -0.18461420 [kcal/mol]      -0.77242583 [kJ/mol]
      Exch-Disp20                   0.37957347 [mEh]       0.23818595 [kcal/mol]       0.99657002 [kJ/mol]

  Total HF                       -189.47956906 [mEh]    -118.90022467 [kcal/mol]    -497.47854002 [kJ/mol]
  Total SAPT0                    -190.93610277 [mEh]    -119.81421337 [kcal/mol]    -501.30266876 [kJ/mol]
  Total SAPT2                    -192.43489946 [mEh]    -120.75472250 [kcal/mol]    -505.23775894 [kJ/mol]
  Total SAPT2+                   -192.79424202 [mEh]    -120.98021336 [kcal/mol]    -506.18121268 [kJ/mol]

  Special recipe for scaled SAPT0 (see Manual):
    Electrostatics sSAPT0        -189.72502672 [mEh]    -119.05425168 [kcal/mol]    -498.12298904 [kJ/mol]
    Exchange sSAPT0                 8.89718339 [mEh]       5.58306687 [kcal/mol]      23.35955178 [kJ/mol]
    Induction sSAPT0               -8.45476536 [mEh]      -5.30544536 [kcal/mol]     -22.19798339 [kJ/mol]
    Dispersion sSAPT0              -1.45193662 [mEh]      -0.91110399 [kcal/mol]      -3.81205908 [kJ/mol]
  Total sSAPT0                   -190.73454531 [mEh]    -119.68773416 [kcal/mol]    -500.77347973 [kJ/mol]
  --------------------------------------------------------------------------------------------------------

*** Psi4 exiting successfully. Buy a developer a beer!
