                               Psi4 1.9 release

  ==> Input File <==

--------------------------------------------------------------------------
MEMORY 60 GB

molecule dimer {
1 1
K      0.000000     0.000000     0.000000
--
-1 1
F      4.350360     0.000000     0.000000

units ang
no_reorient
no_com
symmetry c1
}

set {
basis        aug-cc-pVTZ
scf_type     df
}

energy("sapt2+")
--------------------------------------------------------------------------

  //              Dimer HF             //
    Molecular point group: c1
  Charge       = 0
  Multiplicity = 1
  Basis Set: AUG-CC-PVTZ
    Blend: AUG-CC-PVTZ
  Basis Set: (AUG-CC-PVTZ AUX)
    Blend: AUG-CC-PVTZ-JKFIT + DEF2-UNIVERSAL-JKFIT
  @DF-RHF Final Energy:  -698.59169868681772
    Total Energy =                       -698.5916986868176082
 Dipole X            :        -81.9769944           73.9889005           -7.9880939
 Dipole Y            :         -0.0000000            0.0000000           -0.0000000
 Dipole Z            :         -0.0000000            0.0000000           -0.0000000
 Magnitude           :                                                    7.9880939
  //            Monomer A HF           //
    Molecular point group: c1
  Multiplicity = 1
  Basis Set: AUG-CC-PVTZ
    Blend: AUG-CC-PVTZ
  Basis Set: (AUG-CC-PVTZ AUX)
    Blend: AUG-CC-PVTZ-JKFIT + DEF2-UNIVERSAL-JKFIT
  @DF-RHF Final Energy:  -599.01750599696447
    Total Energy =                       -599.0175059969644735
  //            Monomer B HF           //
    Molecular point group: c1

    Geometry (in Angstrom), charge = -1, multiplicity = 1:

       Center              X                  Y                   Z               Mass
    ------------   -----------------  -----------------  -----------------  -----------------
      Gh(K)           0.000000000000     0.000000000000     0.000000000000    38.963706486400
         F            4.350360000000     0.000000000000     0.000000000000    18.998403162730

  Charge       = -1
  Multiplicity = 1
  Basis Set: AUG-CC-PVTZ
    Blend: AUG-CC-PVTZ
  Basis Set: (AUG-CC-PVTZ AUX)
    Blend: AUG-CC-PVTZ-JKFIT + DEF2-UNIVERSAL-JKFIT

    Orbital Energies [Eh]
    ---------------------

    Doubly Occupied:

       1A    -25.833860     2A     -1.076122     3A     -0.181042
       4A     -0.181040     5A     -0.181040

  @DF-RHF Final Energy:   -99.45081898266903

   => Energetics <=

    Nuclear Repulsion Energy =              0.0000000000000000
    One-Electron Energy =                -143.9954276439867442
    Two-Electron Energy =                  44.5446086613177101
    Total Energy =                        -99.4508189826690341
 Dipole X            :        -82.2104137           73.9889005           -8.2215132
 Dipole Y            :         -0.0000000            0.0000000           -0.0000000
 Dipole Z            :         -0.0000000            0.0000000           -0.0000000
 Magnitude           :                                                    8.2215132

    SAPT Results
  --------------------------------------------------------------------------------------------------------
    Electrostatics               -121.84060560 [mEh]     -76.45613430 [kcal/mol]    -319.89246592 [kJ/mol]
      Elst10,r                   -121.65066531 [mEh]     -76.33694498 [kcal/mol]    -319.39377778 [kJ/mol]
      Elst12,r                     -0.18994028 [mEh]      -0.11918933 [kcal/mol]      -0.49868814 [kJ/mol]

    Exchange                        0.20539768 [mEh]       0.12888899 [kcal/mol]       0.53927152 [kJ/mol]
      Exch10                        0.10127645 [mEh]       0.06355193 [kcal/mol]       0.26590129 [kJ/mol]
      Exch10(S^2)                   0.10127054 [mEh]       0.06354822 [kcal/mol]       0.26588576 [kJ/mol]
      Exch11(S^2)                   0.00042308 [mEh]       0.00026549 [kcal/mol]       0.00111081 [kJ/mol]
      Exch12(S^2)                   0.10369814 [mEh]       0.06507156 [kcal/mol]       0.27225942 [kJ/mol]

    Induction                      -2.39496869 [mEh]      -1.50286554 [kcal/mol]      -6.28798944 [kJ/mol]
      Ind20,r                      -1.93089592 [mEh]      -1.21165548 [kcal/mol]      -5.06956654 [kJ/mol]
      Ind22                        -0.65514043 [mEh]      -0.41110683 [kcal/mol]      -1.72007096 [kJ/mol]
      Exch-Ind20,r                  0.24901762 [mEh]       0.15626092 [kcal/mol]       0.65379567 [kJ/mol]
      Exch-Ind22                    0.08449006 [mEh]       0.05301831 [kcal/mol]       0.22182862 [kJ/mol]
      delta HF,r (2)               -0.14244002 [mEh]      -0.08938246 [kcal/mol]      -0.37397623 [kJ/mol]

    Dispersion                     -0.14909563 [mEh]      -0.09355892 [kcal/mol]      -0.39145052 [kJ/mol]
      Disp20                       -0.12223579 [mEh]      -0.07670412 [kcal/mol]      -0.32093003 [kJ/mol]
      Disp21                        0.01091122 [mEh]       0.00684689 [kcal/mol]       0.02864740 [kJ/mol]
      Disp22 (SDQ)                 -0.02140936 [mEh]      -0.01343458 [kcal/mol]      -0.05621028 [kJ/mol]
      Disp22 (T)                   -0.02008194 [mEh]      -0.01260161 [kcal/mol]      -0.05272513 [kJ/mol]
      Est. Disp22 (T)              -0.02192875 [mEh]      -0.01376050 [kcal/mol]      -0.05757392 [kJ/mol]
      Exch-Disp20                   0.00556706 [mEh]       0.00349338 [kcal/mol]       0.01461630 [kJ/mol]

  Total HF                       -123.37370718 [mEh]     -77.41817007 [kcal/mol]    -323.91762359 [kJ/mol]
  Total SAPT0                    -123.49037592 [mEh]     -77.49138081 [kcal/mol]    -324.22393732 [kJ/mol]
  Total SAPT2                    -124.14684535 [mEh]     -77.90332160 [kcal/mol]    -325.94749757 [kJ/mol]
  Total SAPT2+                   -124.17927224 [mEh]     -77.92366978 [kcal/mol]    -326.03263436 [kJ/mol]

  Special recipe for scaled SAPT0 (see Manual):
    Electrostatics sSAPT0        -121.65066531 [mEh]     -76.33694498 [kcal/mol]    -319.39377778 [kJ/mol]
    Exchange sSAPT0                 0.10127645 [mEh]       0.06355193 [kcal/mol]       0.26590129 [kJ/mol]
    Induction sSAPT0               -1.82427468 [mEh]      -1.14474965 [kcal/mol]      -4.78963252 [kJ/mol]
    Dispersion sSAPT0              -0.11666776 [mEh]      -0.07321013 [kcal/mol]      -0.30631117 [kJ/mol]
  Total sSAPT0                   -123.49033131 [mEh]     -77.49135282 [kcal/mol]    -324.22382018 [kJ/mol]
  --------------------------------------------------------------------------------------------------------

*** Psi4 exiting successfully. Buy a developer a beer!
