                               Psi4 1.9 release

  ==> Input File <==

--------------------------------------------------------------------------
MEMORY 60 GB

molecule dimer {
1 1
K      0.000000     0.000000     0.000000
--
-1 1
F      2.392698     0.000000     0.000000

units ang
no_reorient
no_com
symmetry c1
}

set {
basis        aug-cc-pVTZ
scf_type     df
}

energy("sapt2+")
--------------------------------------------------------------------------

  //              Dimer HF             //
    Molecular point group: c1
  Charge       = 0
  Multiplicity = 1
  Basis Set: AUG-CC-PVTZ
    Blend: AUG-CC-PVTZ
  Basis Set: (AUG-CC-PVTZ AUX)
    Blend: AUG-CC-PVTZ-JKFIT + DEF2-UNIVERSAL-JKFIT
  @DF-RHF Final Energy:  -698.68058043859924
    Total Energy =                       -698.6805804385991223
 Dipole X            :        -44.6667077           40.6938953           -3.9728124
 Dipole Y            :         -0.0000000            0.0000000           -0.0000000
 Dipole Z            :          0.0000000            0.0000000            0.0000000
 Magnitude           :                                                    3.9728124
  //            Monomer A HF           //
    Molecular point group: c1
  Multiplicity = 1
  Basis Set: AUG-CC-PVTZ
    Blend: AUG-CC-PVTZ
  Basis Set: (AUG-CC-PVTZ AUX)
    Blend: AUG-CC-PVTZ-JKFIT + DEF2-UNIVERSAL-JKFIT
  @DF-RHF Final Energy:  -599.01750745884306
    Total Energy =                       -599.0175074588430562
  //            Monomer B HF           //
    Molecular point group: c1

    Geometry (in Angstrom), charge = -1, multiplicity = 1:

       Center              X                  Y                   Z               Mass
    ------------   -----------------  -----------------  -----------------  -----------------
      Gh(K)           0.000000000000     0.000000000000     0.000000000000    38.963706486400
         F            2.392698000000     0.000000000000     0.000000000000    18.998403162730

  Charge       = -1
  Multiplicity = 1
  Basis Set: AUG-CC-PVTZ
    Blend: AUG-CC-PVTZ
  Basis Set: (AUG-CC-PVTZ AUX)
    Blend: AUG-CC-PVTZ-JKFIT + DEF2-UNIVERSAL-JKFIT

    Orbital Energies [Eh]
    ---------------------

    Doubly Occupied:

       1A    -25.833892     2A     -1.076112     3A     -0.181053
       4A     -0.181030     5A     -0.181030

  @DF-RHF Final Energy:   -99.45083360731695

   => Energetics <=

    Nuclear Repulsion Energy =              0.0000000000000000
    One-Electron Energy =                -143.9954305468185680
    Two-Electron Energy =                  44.5445969395016164
    Total Energy =                        -99.4508336073169517
 Dipole X            :        -45.2149417           40.6938953           -4.5210464
 Dipole Y            :          0.0000000            0.0000000            0.0000000
 Dipole Z            :          0.0000000            0.0000000            0.0000000
 Magnitude           :                                                    4.5210464

    SAPT Results
  --------------------------------------------------------------------------------------------------------
    Electrostatics               -236.59271498 [mEh]    -148.46417008 [kcal/mol]    -621.17408761 [kJ/mol]
      Elst10,r                   -232.43909314 [mEh]    -145.85773302 [kcal/mol]    -610.26875496 [kJ/mol]
      Elst12,r                     -4.15362184 [mEh]      -2.60643706 [kcal/mol]     -10.90533265 [kJ/mol]

    Exchange                       46.34213923 [mEh]      29.08013140 [kcal/mol]     121.67126980 [kJ/mol]
      Exch10                       36.42865548 [mEh]      22.85932643 [kcal/mol]      95.64342177 [kJ/mol]
      Exch10(S^2)                  35.91907550 [mEh]      22.53956017 [kcal/mol]      94.30551974 [kJ/mol]
      Exch11(S^2)                  -0.39664212 [mEh]      -0.24889669 [kcal/mol]      -1.04138373 [kJ/mol]
      Exch12(S^2)                  10.31012587 [mEh]       6.46970166 [kcal/mol]      27.06923175 [kJ/mol]

    Induction                     -21.92105937 [mEh]     -13.75567243 [kcal/mol]     -57.55373344 [kJ/mol]
      Ind20,r                     -72.79966871 [mEh]     -45.68248180 [kcal/mol]    -191.13550387 [kJ/mol]
      Ind22                       -28.62070846 [mEh]     -17.95976570 [kcal/mol]     -75.14365970 [kJ/mol]
      Exch-Ind20,r                 58.32117371 [mEh]      36.59708902 [kcal/mol]     153.12222048 [kJ/mol]
      Exch-Ind22                   22.92858387 [mEh]      14.38790360 [kcal/mol]      60.19898865 [kJ/mol]
      delta HF,r (2)               -1.75043978 [mEh]      -1.09841754 [kcal/mol]      -4.59577900 [kJ/mol]

    Dispersion                     -4.41914238 [mEh]      -2.77305371 [kcal/mol]     -11.60245671 [kJ/mol]
      Disp20                       -5.05874974 [mEh]      -3.17441339 [kcal/mol]     -13.28174560 [kJ/mol]
      Disp21                        0.43916925 [mEh]       0.27558287 [kcal/mol]       1.15303871 [kJ/mol]
      Disp22 (SDQ)                 -0.46504319 [mEh]      -0.29181901 [kcal/mol]      -1.22097073 [kJ/mol]
      Disp22 (T)                   -0.68784416 [mEh]      -0.43162873 [kcal/mol]      -1.80593460 [kJ/mol]
      Est. Disp22 (T)              -0.75475414 [mEh]      -0.47361537 [kcal/mol]      -1.98160671 [kJ/mol]
      Exch-Disp20                   1.42023544 [mEh]       0.89121119 [kcal/mol]       3.72882762 [kJ/mol]

  Total HF                       -212.23937244 [mEh]    -133.18221691 [kcal/mol]    -557.23439557 [kJ/mol]
  Total SAPT0                    -215.87788674 [mEh]    -135.46541911 [kcal/mol]    -566.78731355 [kJ/mol]
  Total SAPT2                    -215.81014942 [mEh]    -135.42291330 [kcal/mol]    -566.60946923 [kJ/mol]
  Total SAPT2+                   -216.59077749 [mEh]    -135.91276481 [kcal/mol]    -568.65900796 [kJ/mol]

  Special recipe for scaled SAPT0 (see Manual):
    Electrostatics sSAPT0        -232.43909314 [mEh]    -145.85773302 [kcal/mol]    -610.26875496 [kJ/mol]
    Exchange sSAPT0                36.42865548 [mEh]      22.85932643 [kcal/mol]      95.64342177 [kJ/mol]
    Induction sSAPT0              -13.71136549 [mEh]      -8.60401174 [kcal/mol]     -35.99918514 [kJ/mol]
    Dispersion sSAPT0              -3.57720653 [mEh]      -2.24473099 [kcal/mol]      -9.39195445 [kJ/mol]
  Total sSAPT0                   -213.29900969 [mEh]    -133.84714932 [kcal/mol]    -560.01647278 [kJ/mol]
  --------------------------------------------------------------------------------------------------------

*** Psi4 exiting successfully. Buy a developer a beer!
