                               Psi4 1.9 release

  ==> Input File <==

--------------------------------------------------------------------------
MEMORY 60 GB

molecule dimer {
1 1
K      0.000000     0.000000     0.000000
--
-1 1
F      2.610216     0.000000     0.000000

units ang
no_reorient
no_com
symmetry c1
}

set {
basis        aug-cc-pVTZ
scf_type     df
}

energy("sapt2+")
--------------------------------------------------------------------------

  //              Dimer HF             //
    Molecular point group: c1
  Charge       = 0
  Multiplicity = 1
  Basis Set: AUG-CC-PVTZ
    Blend: AUG-CC-PVTZ
  Basis Set: (AUG-CC-PVTZ AUX)
    Blend: AUG-CC-PVTZ-JKFIT + DEF2-UNIVERSAL-JKFIT
  @DF-RHF Final Energy:  -698.67015154393425
    Total Energy =                       -698.6701515439342529
 Dipole X            :        -48.8326021           44.3933403           -4.4392617
 Dipole Y            :         -0.0000000            0.0000000           -0.0000000
 Dipole Z            :          0.0000000            0.0000000            0.0000000
 Magnitude           :                                                    4.4392617
  //            Monomer A HF           //
    Molecular point group: c1
  Multiplicity = 1
  Basis Set: AUG-CC-PVTZ
    Blend: AUG-CC-PVTZ
  Basis Set: (AUG-CC-PVTZ AUX)
    Blend: AUG-CC-PVTZ-JKFIT + DEF2-UNIVERSAL-JKFIT
  @DF-RHF Final Energy:  -599.01750710526790
    Total Energy =                       -599.0175071052678959
  //            Monomer B HF           //
    Molecular point group: c1

    Geometry (in Angstrom), charge = -1, multiplicity = 1:

       Center              X                  Y                   Z               Mass
    ------------   -----------------  -----------------  -----------------  -----------------
      Gh(K)           0.000000000000     0.000000000000     0.000000000000    38.963706486400
         F            2.610216000000     0.000000000000     0.000000000000    18.998403162730

  Charge       = -1
  Multiplicity = 1
  Basis Set: AUG-CC-PVTZ
    Blend: AUG-CC-PVTZ
  Basis Set: (AUG-CC-PVTZ AUX)
    Blend: AUG-CC-PVTZ-JKFIT + DEF2-UNIVERSAL-JKFIT

    Orbital Energies [Eh]
    ---------------------

    Doubly Occupied:

       1A    -25.833900     2A     -1.076115     3A     -0.181048
       4A     -0.181036     5A     -0.181036

  @DF-RHF Final Energy:   -99.45082996107993

   => Energetics <=

    Nuclear Repulsion Energy =              0.0000000000000000
    One-Electron Energy =                -143.9953906891054203
    Two-Electron Energy =                  44.5445607280254947
    Total Energy =                        -99.4508299610799327
 Dipole X            :        -49.3255517           44.3933403           -4.9322114
 Dipole Y            :         -0.0000000            0.0000000           -0.0000000
 Dipole Z            :         -0.0000000            0.0000000           -0.0000000
 Magnitude           :                                                    4.9322114

    SAPT Results
  --------------------------------------------------------------------------------------------------------
    Electrostatics               -210.81854999 [mEh]    -132.29063737 [kcal/mol]    -553.50402674 [kJ/mol]
      Elst10,r                   -208.09663392 [mEh]    -130.58260925 [kcal/mol]    -546.35763709 [kJ/mol]
      Elst12,r                     -2.72191607 [mEh]      -1.70802812 [kcal/mol]      -7.14638965 [kJ/mol]

    Exchange                       24.11605132 [mEh]      15.13305067 [kcal/mol]      63.31668402 [kJ/mol]
      Exch10                       17.84003180 [mEh]      11.19478897 [kcal/mol]      46.83899705 [kJ/mol]
      Exch10(S^2)                  17.70661387 [mEh]      11.11106795 [kcal/mol]      46.48870830 [kJ/mol]
      Exch11(S^2)                  -0.13055641 [mEh]      -0.08192538 [kcal/mol]      -0.34277580 [kJ/mol]
      Exch12(S^2)                   6.40657592 [mEh]       4.02018709 [kcal/mol]      16.82046277 [kJ/mol]

    Induction                     -16.06104360 [mEh]     -10.07845702 [kcal/mol]     -42.16826417 [kJ/mol]
      Ind20,r                     -41.09243281 [mEh]     -25.78589089 [kcal/mol]    -107.88816749 [kJ/mol]
      Ind22                       -17.68131143 [mEh]     -11.09519043 [kcal/mol]     -46.42227677 [kJ/mol]
      Exch-Ind20,r                 30.62679881 [mEh]      19.21860640 [kcal/mol]      80.41064920 [kJ/mol]
      Exch-Ind22                   13.17814330 [mEh]       8.26940976 [kcal/mol]      34.59921045 [kJ/mol]
      delta HF,r (2)               -1.09224146 [mEh]      -0.68539187 [kcal/mol]      -2.86767956 [kJ/mol]

    Dispersion                     -2.78767483 [mEh]      -1.74929237 [kcal/mol]      -7.31903926 [kJ/mol]
      Disp20                       -2.99553675 [mEh]      -1.87972769 [kcal/mol]      -7.86478066 [kJ/mol]
      Disp21                        0.24961176 [mEh]       0.15663375 [kcal/mol]       0.65535560 [kJ/mol]
      Disp22 (SDQ)                 -0.31054802 [mEh]      -0.19487183 [kcal/mol]      -0.81534372 [kJ/mol]
      Disp22 (T)                   -0.40465214 [mEh]      -0.25392305 [kcal/mol]      -1.06241405 [kJ/mol]
      Est. Disp22 (T)              -0.46245136 [mEh]      -0.29019261 [kcal/mol]      -1.21416587 [kJ/mol]
      Exch-Disp20                   0.73124953 [mEh]       0.45886601 [kcal/mol]       1.91989538 [kJ/mol]

  Total HF                       -201.81447759 [mEh]    -126.64049663 [kcal/mol]    -529.86383790 [kJ/mol]
  Total SAPT0                    -204.07876481 [mEh]    -128.06135831 [kcal/mol]    -535.80872318 [kJ/mol]
  Total SAPT2                    -205.02782949 [mEh]    -128.65690540 [kcal/mol]    -538.30049217 [kJ/mol]
  Total SAPT2+                   -205.55121711 [mEh]    -128.98533608 [kcal/mol]    -539.67464616 [kJ/mol]

  Special recipe for scaled SAPT0 (see Manual):
    Electrostatics sSAPT0        -208.09663392 [mEh]    -130.58260925 [kcal/mol]    -546.35763709 [kJ/mol]
    Exchange sSAPT0                17.84003180 [mEh]      11.19478897 [kcal/mol]      46.83899705 [kJ/mol]
    Induction sSAPT0              -10.86033432 [mEh]      -6.81496267 [kcal/mol]     -28.51380383 [kJ/mol]
    Dispersion sSAPT0              -2.24763263 [mEh]      -1.41041077 [kcal/mol]      -5.90115867 [kJ/mol]
  Total sSAPT0                   -203.36456907 [mEh]    -127.61319372 [kcal/mol]    -533.93360254 [kJ/mol]
  --------------------------------------------------------------------------------------------------------

*** Psi4 exiting successfully. Buy a developer a beer!
