                               Psi4 1.9 release

  ==> Input File <==

--------------------------------------------------------------------------
MEMORY 60 GB

molecule dimer {
1 1
K      0.000000     0.000000     0.000000
--
-1 1
F      2.175180     0.000000     0.000000

units ang
no_reorient
no_com
symmetry c1
}

set {
basis        aug-cc-pVTZ
scf_type     df
}

energy("sapt2+")
--------------------------------------------------------------------------

  //              Dimer HF             //
    Molecular point group: c1
  Charge       = 0
  Multiplicity = 1
  Basis Set: AUG-CC-PVTZ
    Blend: AUG-CC-PVTZ
  Basis Set: (AUG-CC-PVTZ AUX)
    Blend: AUG-CC-PVTZ-JKFIT + DEF2-UNIVERSAL-JKFIT
  @DF-RHF Final Energy:  -698.68411720855431
    Total Energy =                       -698.6841172085543121
 Dipole X            :        -40.4823886           36.9944503           -3.4879384
 Dipole Y            :         -0.0000000            0.0000000           -0.0000000
 Dipole Z            :         -0.0000000            0.0000000           -0.0000000
 Magnitude           :                                                    3.4879384
  //            Monomer A HF           //
    Molecular point group: c1
  Multiplicity = 1
  Basis Set: AUG-CC-PVTZ
    Blend: AUG-CC-PVTZ
  Basis Set: (AUG-CC-PVTZ AUX)
    Blend: AUG-CC-PVTZ-JKFIT + DEF2-UNIVERSAL-JKFIT
  @DF-RHF Final Energy:  -599.01750779639269
    Total Energy =                       -599.0175077963926924
  //            Monomer B HF           //
    Molecular point group: c1

    Geometry (in Angstrom), charge = -1, multiplicity = 1:

       Center              X                  Y                   Z               Mass
    ------------   -----------------  -----------------  -----------------  -----------------
      Gh(K)           0.000000000000     0.000000000000     0.000000000000    38.963706486400
         F            2.175180000000     0.000000000000     0.000000000000    18.998403162730

  Charge       = -1
  Multiplicity = 1
  Basis Set: AUG-CC-PVTZ
    Blend: AUG-CC-PVTZ
  Basis Set: (AUG-CC-PVTZ AUX)
    Blend: AUG-CC-PVTZ-JKFIT + DEF2-UNIVERSAL-JKFIT

    Orbital Energies [Eh]
    ---------------------

    Doubly Occupied:

       1A    -25.833883     2A     -1.076110     3A     -0.181060
       4A     -0.181024     5A     -0.181024

  @DF-RHF Final Energy:   -99.45084129429615

   => Energetics <=

    Nuclear Repulsion Energy =              0.0000000000000000
    One-Electron Energy =                -143.9954817530129105
    Two-Electron Energy =                  44.5446404587167564
    Total Energy =                        -99.4508412942961542
 Dipole X            :        -41.1046698           36.9944503           -4.1102195
 Dipole Y            :          0.0000000            0.0000000            0.0000000
 Dipole Z            :         -0.0000000            0.0000000           -0.0000000
 Magnitude           :                                                    4.1102195

    SAPT Results
  --------------------------------------------------------------------------------------------------------
    Electrostatics               -273.58191310 [mEh]    -171.67524233 [kcal/mol]    -718.28921389 [kJ/mol]
      Elst10,r                   -267.44200885 [mEh]    -167.82239424 [kcal/mol]    -702.16889751 [kJ/mol]
      Elst12,r                     -6.13990425 [mEh]      -3.85284808 [kcal/mol]     -16.12031638 [kJ/mol]

    Exchange                       90.85230037 [mEh]      57.01067920 [kcal/mol]     238.53268177 [kJ/mol]
      Exch10                       75.82650060 [mEh]      47.58184749 [kcal/mol]     199.08244991 [kJ/mol]
      Exch10(S^2)                  73.84147070 [mEh]      46.33622242 [kcal/mol]     193.87075462 [kJ/mol]
      Exch11(S^2)                  -1.10966129 [mEh]      -0.69632297 [kcal/mol]      -2.91341533 [kJ/mol]
      Exch12(S^2)                  16.13546106 [mEh]      10.12515468 [kcal/mol]      42.36364718 [kJ/mol]

    Induction                     -31.90231811 [mEh]     -20.01900685 [kcal/mol]     -83.75952467 [kJ/mol]
      Ind20,r                    -134.22882215 [mEh]     -84.22985755 [kcal/mol]    -352.41772399 [kJ/mol]
      Ind22                       -46.22788436 [mEh]     -29.00843539 [kcal/mol]    -121.37129365 [kJ/mol]
      Exch-Ind20,r                111.72651087 [mEh]      70.10944404 [kcal/mol]     293.33791387 [kJ/mol]
      Exch-Ind22                   38.47817586 [mEh]      24.14541988 [kcal/mol]     101.02443680 [kJ/mol]
      delta HF,r (2)               -1.65029834 [mEh]      -1.03557784 [kcal/mol]      -4.33285769 [kJ/mol]

    Dispersion                     -7.11965773 [mEh]      -4.46765267 [kcal/mol]     -18.69265878 [kJ/mol]
      Disp20                       -8.76647925 [mEh]      -5.50104878 [kcal/mol]     -23.01638810 [kJ/mol]
      Disp21                        0.84730848 [mEh]       0.53169410 [kcal/mol]       2.22460810 [kJ/mol]
      Disp22 (SDQ)                 -0.72590266 [mEh]      -0.45551079 [kcal/mol]      -1.90585716 [kJ/mol]
      Disp22 (T)                   -1.12271710 [mEh]      -0.70451562 [kcal/mol]      -2.94769335 [kJ/mol]
      Est. Disp22 (T)              -1.23324139 [mEh]      -0.77387065 [kcal/mol]      -3.23787481 [kJ/mol]
      Exch-Disp20                   2.75865709 [mEh]       1.73108346 [kcal/mol]       7.24285320 [kJ/mol]

  Total HF                       -215.76811787 [mEh]    -135.39653810 [kcal/mol]    -566.49911541 [kJ/mol]
  Total SAPT0                    -221.77594003 [mEh]    -139.16650342 [kcal/mol]    -582.27265032 [kJ/mol]
  Total SAPT2                    -220.63975300 [mEh]    -138.45353530 [kcal/mol]    -579.28959170 [kJ/mol]
  Total SAPT2+                   -221.75158857 [mEh]    -139.15122265 [kcal/mol]    -582.20871557 [kJ/mol]

  Special recipe for scaled SAPT0 (see Manual):
    Electrostatics sSAPT0        -267.44200885 [mEh]    -167.82239424 [kcal/mol]    -702.16889751 [kJ/mol]
    Exchange sSAPT0                75.82650060 [mEh]      47.58184749 [kcal/mol]     199.08244991 [kJ/mol]
    Induction sSAPT0              -14.89781581 [mEh]      -9.34852056 [kcal/mol]     -39.11421003 [kJ/mol]
    Dispersion sSAPT0              -5.77931057 [mEh]      -3.62657213 [kcal/mol]     -15.17357781 [kJ/mol]
  Total sSAPT0                   -212.29263463 [mEh]    -133.21563945 [kcal/mol]    -557.37423544 [kJ/mol]
  --------------------------------------------------------------------------------------------------------

*** Psi4 exiting successfully. Buy a developer a beer!
