                               Psi4 1.9 release

  ==> Input File <==

--------------------------------------------------------------------------
MEMORY 60 GB

molecule dimer {
1 1
K      0.000000     0.000000     0.000000
--
-1 1
F      2.066421     0.000000     0.000000

units ang
no_reorient
no_com
symmetry c1
}

set {
basis        aug-cc-pVTZ
scf_type     df
}

energy("sapt2+")
--------------------------------------------------------------------------

  //              Dimer HF             //
    Molecular point group: c1
  Charge       = 0
  Multiplicity = 1
  Basis Set: AUG-CC-PVTZ
    Blend: AUG-CC-PVTZ
  Basis Set: (AUG-CC-PVTZ AUX)
    Blend: AUG-CC-PVTZ-JKFIT + DEF2-UNIVERSAL-JKFIT
  @DF-RHF Final Energy:  -698.68017045809484
    Total Energy =                       -698.6801704580948353
 Dipole X            :        -38.3777486           35.1447277           -3.2330209
 Dipole Y            :          0.0000000            0.0000000            0.0000000
 Dipole Z            :         -0.0000000            0.0000000           -0.0000000
 Magnitude           :                                                    3.2330209
  //            Monomer A HF           //
    Molecular point group: c1
  Multiplicity = 1
  Basis Set: AUG-CC-PVTZ
    Blend: AUG-CC-PVTZ
  Basis Set: (AUG-CC-PVTZ AUX)
    Blend: AUG-CC-PVTZ-JKFIT + DEF2-UNIVERSAL-JKFIT
  @DF-RHF Final Energy:  -599.01750795764383
    Total Energy =                       -599.0175079576439430
  //            Monomer B HF           //
    Molecular point group: c1

    Geometry (in Angstrom), charge = -1, multiplicity = 1:

       Center              X                  Y                   Z               Mass
    ------------   -----------------  -----------------  -----------------  -----------------
      Gh(K)           0.000000000000     0.000000000000     0.000000000000    38.963706486400
         F            2.066421000000     0.000000000000     0.000000000000    18.998403162730

  Charge       = -1
  Multiplicity = 1
  Basis Set: AUG-CC-PVTZ
    Blend: AUG-CC-PVTZ
  Basis Set: (AUG-CC-PVTZ AUX)
    Blend: AUG-CC-PVTZ-JKFIT + DEF2-UNIVERSAL-JKFIT

    Orbital Energies [Eh]
    ---------------------

    Doubly Occupied:

       1A    -25.833882     2A     -1.076110     3A     -0.181062
       4A     -0.181023     5A     -0.181023

  @DF-RHF Final Energy:   -99.45084495972708

   => Energetics <=

    Nuclear Repulsion Energy =              0.0000000000000000
    One-Electron Energy =                -143.9954901316869496
    Two-Electron Energy =                  44.5446451719598642
    Total Energy =                        -99.4508449597270783
 Dipole X            :        -39.0497230           35.1447277           -3.9049952
 Dipole Y            :          0.0000000            0.0000000            0.0000000
 Dipole Z            :         -0.0000000            0.0000000           -0.0000000
 Magnitude           :                                                    3.9049952

    SAPT Results
  --------------------------------------------------------------------------------------------------------
    Electrostatics               -299.10765649 [mEh]    -187.69288813 [kcal/mol]    -785.30704392 [kJ/mol]
      Elst10,r                   -291.76891619 [mEh]    -183.08775906 [kcal/mol]    -766.03918391 [kJ/mol]
      Elst12,r                     -7.33874030 [mEh]      -4.60512906 [kcal/mol]     -19.26786000 [kJ/mol]

    Exchange                      128.23703143 [mEh]      80.46995211 [kcal/mol]     336.68627963 [kJ/mol]
      Exch10                      110.19943463 [mEh]      69.15118923 [kcal/mol]     289.32857575 [kJ/mol]
      Exch10(S^2)                 106.25327041 [mEh]      66.67493381 [kcal/mol]     278.96792304 [kJ/mol]
      Exch11(S^2)                  -1.83150363 [mEh]      -1.14928588 [kcal/mol]      -4.80861212 [kJ/mol]
      Exch12(S^2)                  19.86910043 [mEh]      12.46804876 [kcal/mol]      52.16631600 [kJ/mol]

    Induction                     -39.86713279 [mEh]     -25.01700352 [kcal/mol]    -104.67114272 [kJ/mol]
      Ind20,r                    -185.13064690 [mEh]    -116.17123482 [kcal/mol]    -486.06044648 [kJ/mol]
      Ind22                       -58.53369828 [mEh]     -36.73045021 [kcal/mol]    -153.68020367 [kJ/mol]
      Exch-Ind20,r                154.70739713 [mEh]      97.08035736 [kcal/mol]     406.18421520 [kJ/mol]
      Exch-Ind22                   48.91462466 [mEh]      30.69439038 [kcal/mol]     128.42532934 [kJ/mol]
      delta HF,r (2)                0.17519061 [mEh]       0.10993377 [kcal/mol]       0.45996288 [kJ/mol]

    Dispersion                     -9.09570530 [mEh]      -5.70764125 [kcal/mol]     -23.88077098 [kJ/mol]
      Disp20                      -11.65076378 [mEh]      -7.31096465 [kcal/mol]     -30.58907609 [kJ/mol]
      Disp21                        1.21780058 [mEh]       0.76418140 [kcal/mol]       3.19733498 [kJ/mol]
      Disp22 (SDQ)                 -0.92424646 [mEh]      -0.57997341 [kcal/mol]      -2.42660873 [kJ/mol]
      Disp22 (T)                   -1.44012183 [mEh]      -0.90369009 [kcal/mol]      -3.78103933 [kJ/mol]
      Est. Disp22 (T)              -1.58267377 [mEh]      -0.99314279 [kcal/mol]      -4.15530941 [kJ/mol]
      Exch-Disp20                   3.84417812 [mEh]       2.41225819 [kcal/mol]      10.09288828 [kJ/mol]

  Total HF                       -211.81754072 [mEh]    -132.91751352 [kcal/mol]    -556.12687655 [kJ/mol]
  Total SAPT0                    -219.62412638 [mEh]    -137.81621997 [kcal/mol]    -576.62306437 [kJ/mol]
  Total SAPT2                    -218.54434350 [mEh]    -137.13864599 [kcal/mol]    -573.78809482 [kJ/mol]
  Total SAPT2+                   -219.83346315 [mEh]    -137.94758078 [kcal/mol]    -577.17267799 [kJ/mol]

  Special recipe for scaled SAPT0 (see Manual):
    Electrostatics sSAPT0        -291.76891619 [mEh]    -183.08775906 [kcal/mol]    -766.03918391 [kJ/mol]
    Exchange sSAPT0               110.19943463 [mEh]      69.15118923 [kcal/mol]     289.32857575 [kJ/mol]
    Induction sSAPT0              -12.36282107 [mEh]      -7.75778735 [kcal/mol]     -32.45858226 [kJ/mol]
    Dispersion sSAPT0              -7.36217225 [mEh]      -4.61983284 [kcal/mol]     -19.32938058 [kJ/mol]
  Total sSAPT0                   -201.29447489 [mEh]    -126.31419001 [kcal/mol]    -528.49857100 [kJ/mol]
  --------------------------------------------------------------------------------------------------------

*** Psi4 exiting successfully. Buy a developer a beer!
