                               Psi4 1.9 release

  ==> Input File <==

--------------------------------------------------------------------------
MEMORY 60 GB

molecule dimer {
1 1
K      0.000000     0.000000     0.000000
--
-1 1
Cl     3.950319     0.000000     0.000000

units ang
no_reorient
no_com
symmetry c1
}

set {
basis        aug-cc-pVTZ
scf_type     df
}

energy("sapt2+")
--------------------------------------------------------------------------

  //              Dimer HF             //
    Molecular point group: c1
  Charge       = 0
  Multiplicity = 1
  Basis Set: AUG-CC-PVTZ
    Blend: AUG-CC-PVTZ
  Basis Set: (AUG-CC-PVTZ AUX)
    Blend: AUG-CC-PVTZ-JKFIT + DEF2-UNIVERSAL-JKFIT
  @DF-RHF Final Energy: -1058.73012983379567
    Total Energy =                      -1058.7301298337956723
 Dipole X            :       -133.7037497          126.9053573           -6.7983924
 Dipole Y            :          0.0000000            0.0000000            0.0000000
 Dipole Z            :         -0.0000000            0.0000000           -0.0000000
 Magnitude           :                                                    6.7983924
  //            Monomer A HF           //
    Molecular point group: c1
  Multiplicity = 1
  Basis Set: AUG-CC-PVTZ
    Blend: AUG-CC-PVTZ
  Basis Set: (AUG-CC-PVTZ AUX)
    Blend: AUG-CC-PVTZ-JKFIT + DEF2-UNIVERSAL-JKFIT
  @DF-RHF Final Energy:  -599.01750672844150
    Total Energy =                       -599.0175067284415036
  //            Monomer B HF           //
    Molecular point group: c1

    Geometry (in Angstrom), charge = -1, multiplicity = 1:

       Center              X                  Y                   Z               Mass
    ------------   -----------------  -----------------  -----------------  -----------------
      Gh(K)           0.000000000000     0.000000000000     0.000000000000    38.963706486400
         CL           3.950319000000     0.000000000000     0.000000000000    34.968852682000

  Charge       = -1
  Multiplicity = 1
  Basis Set: AUG-CC-PVTZ
    Blend: AUG-CC-PVTZ
  Basis Set: (AUG-CC-PVTZ AUX)
    Blend: AUG-CC-PVTZ-JKFIT + DEF2-UNIVERSAL-JKFIT

    Orbital Energies [Eh]
    ---------------------

    Doubly Occupied:

       1A   -104.506118     2A    -10.229785     3A     -7.695825
       4A     -7.695825     5A     -7.695816     6A     -0.733512
       7A     -0.150338     8A     -0.150337     9A     -0.150337

  @DF-RHF Final Energy:  -459.57348968207918

   => Energetics <=

    Nuclear Repulsion Energy =              0.0000000000000000
    One-Electron Energy =                -641.1311919825421910
    Two-Electron Energy =                 181.5577023004630064
    Total Energy =                       -459.5734896820791846
 Dipole X            :       -134.3707140          126.9053573           -7.4653567
 Dipole Y            :         -0.0000000            0.0000000           -0.0000000
 Dipole Z            :         -0.0000000            0.0000000           -0.0000000
 Magnitude           :                                                    7.4653567

    SAPT Results
  --------------------------------------------------------------------------------------------------------
    Electrostatics               -134.68856030 [mEh]     -84.51834760 [kcal/mol]    -353.62476634 [kJ/mol]
      Elst10,r                   -134.39214664 [mEh]     -84.33234522 [kcal/mol]    -352.84653240 [kJ/mol]
      Elst12,r                     -0.29641365 [mEh]      -0.18600238 [kcal/mol]      -0.77823394 [kJ/mol]

    Exchange                        1.93290517 [mEh]       1.21291630 [kcal/mol]       5.07484181 [kJ/mol]
      Exch10                        1.64145560 [mEh]       1.03002894 [kcal/mol]       4.30964109 [kJ/mol]
      Exch10(S^2)                   1.64008367 [mEh]       1.02916804 [kcal/mol]       4.30603909 [kJ/mol]
      Exch11(S^2)                   0.00504690 [mEh]       0.00316698 [kcal/mol]       0.01325063 [kJ/mol]
      Exch12(S^2)                   0.28640267 [mEh]       0.17972039 [kcal/mol]       0.75195009 [kJ/mol]

    Induction                      -7.24756942 [mEh]      -4.54791847 [kcal/mol]     -19.02849090 [kJ/mol]
      Ind20,r                     -10.34197686 [mEh]      -6.48968846 [kcal/mol]     -27.15285650 [kJ/mol]
      Ind22                        -1.47301420 [mEh]      -0.92433037 [kcal/mol]      -3.86739825 [kJ/mol]
      Exch-Ind20,r                  4.26998774 [mEh]       2.67945776 [kcal/mol]      11.21085127 [kJ/mol]
      Exch-Ind22                    0.60817701 [mEh]       0.38163684 [kcal/mol]       1.59676853 [kJ/mol]
      delta HF,r (2)               -0.31074312 [mEh]      -0.19499425 [kcal/mol]      -0.81585594 [kJ/mol]

    Dispersion                     -0.63513101 [mEh]      -0.39855072 [kcal/mol]      -1.66753623 [kJ/mol]
      Disp20                       -0.74607178 [mEh]      -0.46816711 [kcal/mol]      -1.95881119 [kJ/mol]
      Disp21                        0.12769204 [mEh]       0.08012797 [kcal/mol]       0.33525541 [kJ/mol]
      Disp22 (SDQ)                 -0.01145349 [mEh]      -0.00718717 [kcal/mol]      -0.03007114 [kJ/mol]
      Disp22 (T)                   -0.08125245 [mEh]      -0.05098668 [kcal/mol]      -0.21332827 [kJ/mol]
      Est. Disp22 (T)              -0.08880710 [mEh]      -0.05572730 [kcal/mol]      -0.23316301 [kJ/mol]
      Exch-Disp20                   0.08350932 [mEh]       0.05240289 [kcal/mol]       0.21925369 [kJ/mol]

  Total HF                       -139.13342327 [mEh]     -87.30754122 [kcal/mol]    -365.29475248 [kJ/mol]
  Total SAPT0                    -139.79598574 [mEh]     -87.72330544 [kcal/mol]    -367.03430998 [kJ/mol]
  Total SAPT2                    -140.66578701 [mEh]     -88.26911399 [kcal/mol]    -369.31797292 [kJ/mol]
  Total SAPT2+                   -140.63835556 [mEh]     -88.25190049 [kcal/mol]    -369.24595165 [kJ/mol]

  Special recipe for scaled SAPT0 (see Manual):
    Electrostatics sSAPT0        -134.39214664 [mEh]     -84.33234522 [kcal/mol]    -352.84653240 [kJ/mol]
    Exchange sSAPT0                 1.64145560 [mEh]       1.03002894 [kcal/mol]       4.30964109 [kJ/mol]
    Induction sSAPT0               -6.37200776 [mEh]      -3.99849524 [kcal/mol]     -16.72970406 [kJ/mol]
    Dispersion sSAPT0              -0.66235272 [mEh]      -0.41563261 [kcal/mol]      -1.73900682 [kJ/mol]
  Total sSAPT0                   -139.78505152 [mEh]     -87.71644412 [kcal/mol]    -367.00560220 [kJ/mol]
  --------------------------------------------------------------------------------------------------------

*** Psi4 exiting successfully. Buy a developer a beer!
