                               Psi4 1.9 release

  ==> Input File <==

--------------------------------------------------------------------------
MEMORY 60 GB

molecule dimer {
1 1
K      0.000000     0.000000     0.000000
--
-1 1
Cl     5.267092     0.000000     0.000000

units ang
no_reorient
no_com
symmetry c1
}

set {
basis        aug-cc-pVTZ
scf_type     df
}

energy("sapt2+")
--------------------------------------------------------------------------

  //              Dimer HF             //
    Molecular point group: c1
  Charge       = 0
  Multiplicity = 1
  Basis Set: AUG-CC-PVTZ
    Blend: AUG-CC-PVTZ
  Basis Set: (AUG-CC-PVTZ AUX)
    Blend: AUG-CC-PVTZ-JKFIT + DEF2-UNIVERSAL-JKFIT
  @DF-RHF Final Energy: -1058.69359403520389
    Total Energy =                      -1058.6935940352038870
 Dipole X            :       -178.7561390          169.2071431           -9.5489959
 Dipole Y            :         -0.0000000            0.0000000           -0.0000000
 Dipole Z            :          0.0000000            0.0000000            0.0000000
 Magnitude           :                                                    9.5489959
  //            Monomer A HF           //
    Molecular point group: c1
  Multiplicity = 1
  Basis Set: AUG-CC-PVTZ
    Blend: AUG-CC-PVTZ
  Basis Set: (AUG-CC-PVTZ AUX)
    Blend: AUG-CC-PVTZ-JKFIT + DEF2-UNIVERSAL-JKFIT
  @DF-RHF Final Energy:  -599.01750595917565
    Total Energy =                       -599.0175059591756508
  //            Monomer B HF           //
    Molecular point group: c1

    Geometry (in Angstrom), charge = -1, multiplicity = 1:

       Center              X                  Y                   Z               Mass
    ------------   -----------------  -----------------  -----------------  -----------------
      Gh(K)           0.000000000000     0.000000000000     0.000000000000    38.963706486400
         CL           5.267092000000     0.000000000000     0.000000000000    34.968852682000

  Charge       = -1
  Multiplicity = 1
  Basis Set: AUG-CC-PVTZ
    Blend: AUG-CC-PVTZ
  Basis Set: (AUG-CC-PVTZ AUX)
    Blend: AUG-CC-PVTZ-JKFIT + DEF2-UNIVERSAL-JKFIT

    Orbital Energies [Eh]
    ---------------------

    Doubly Occupied:

       1A   -104.506037     2A    -10.229765     3A     -7.695800
       4A     -7.695800     5A     -7.695798     6A     -0.733516
       7A     -0.150341     8A     -0.150340     9A     -0.150340

  @DF-RHF Final Energy:  -459.57348540936687

   => Energetics <=

    Nuclear Repulsion Energy =              0.0000000000000000
    One-Electron Energy =                -641.1314911532181213
    Two-Electron Energy =                 181.5580057438512540
    Total Energy =                       -459.5734854093668673
 Dipole X            :       -179.1608263          169.2071431           -9.9536832
 Dipole Y            :          0.0000000            0.0000000            0.0000000
 Dipole Z            :         -0.0000000            0.0000000           -0.0000000
 Magnitude           :                                                    9.9536832

    SAPT Results
  --------------------------------------------------------------------------------------------------------
    Electrostatics               -100.55422466 [mEh]     -63.09872860 [kcal/mol]    -264.00508046 [kJ/mol]
      Elst10,r                   -100.48196539 [mEh]     -63.05338522 [kcal/mol]    -263.81536378 [kJ/mol]
      Elst12,r                     -0.07225927 [mEh]      -0.04534338 [kcal/mol]      -0.18971669 [kJ/mol]

    Exchange                        0.07518065 [mEh]       0.04717657 [kcal/mol]       0.19738677 [kJ/mol]
      Exch10                        0.05767255 [mEh]       0.03619007 [kcal/mol]       0.15141925 [kJ/mol]
      Exch10(S^2)                   0.05767076 [mEh]       0.03618895 [kcal/mol]       0.15141455 [kJ/mol]
      Exch11(S^2)                   0.00009891 [mEh]       0.00006207 [kcal/mol]       0.00025968 [kJ/mol]
      Exch12(S^2)                   0.01740920 [mEh]       0.01092443 [kcal/mol]       0.04570784 [kJ/mol]

    Induction                      -2.39932707 [mEh]      -1.50560047 [kcal/mol]      -6.29943236 [kJ/mol]
      Ind20,r                      -2.12460943 [mEh]      -1.33321255 [kcal/mol]      -5.57816129 [kJ/mol]
      Ind22                        -0.24137959 [mEh]      -0.15146798 [kcal/mol]      -0.63374202 [kJ/mol]
      Exch-Ind20,r                  0.17979147 [mEh]       0.11282085 [kcal/mol]       0.47204243 [kJ/mol]
      Exch-Ind22                    0.02042634 [mEh]       0.01281772 [kcal/mol]       0.05362934 [kJ/mol]
      delta HF,r (2)               -0.23355586 [mEh]      -0.14655851 [kcal/mol]      -0.61320083 [kJ/mol]

    Dispersion                     -0.10089373 [mEh]      -0.06331177 [kcal/mol]      -0.26489645 [kJ/mol]
      Disp20                       -0.11049582 [mEh]      -0.06933718 [kcal/mol]      -0.29010675 [kJ/mol]
      Disp21                        0.02231566 [mEh]       0.01400329 [kcal/mol]       0.05858975 [kJ/mol]
      Disp22 (SDQ)                 -0.00249524 [mEh]      -0.00156579 [kcal/mol]      -0.00655125 [kJ/mol]
      Disp22 (T)                   -0.01264898 [mEh]      -0.00793735 [kcal/mol]      -0.03320988 [kJ/mol]
      Est. Disp22 (T)              -0.01349748 [mEh]      -0.00846979 [kcal/mol]      -0.03543762 [kJ/mol]
      Exch-Disp20                   0.00327915 [mEh]       0.00205770 [kcal/mol]       0.00860942 [kJ/mol]

  Total HF                       -102.60266666 [mEh]     -64.38414536 [kcal/mol]    -269.38326421 [kJ/mol]
  Total SAPT0                    -102.70988333 [mEh]     -64.45142484 [kcal/mol]    -269.66476154 [kJ/mol]
  Total SAPT2                    -102.98558775 [mEh]     -64.62443198 [kcal/mol]    -270.38862339 [kJ/mol]
  Total SAPT2+                   -102.97926481 [mEh]     -64.62046427 [kcal/mol]    -270.37202251 [kJ/mol]

  Special recipe for scaled SAPT0 (see Manual):
    Electrostatics sSAPT0        -100.48196539 [mEh]     -63.05338522 [kcal/mol]    -263.81536378 [kJ/mol]
    Exchange sSAPT0                 0.05767255 [mEh]       0.03619007 [kcal/mol]       0.15141925 [kJ/mol]
    Induction sSAPT0               -2.17835708 [mEh]      -1.36693971 [kcal/mol]      -5.71927573 [kJ/mol]
    Dispersion sSAPT0              -0.10721637 [mEh]      -0.06727929 [kcal/mol]      -0.28149653 [kJ/mol]
  Total sSAPT0                   -102.70986628 [mEh]     -64.45141414 [kcal/mol]    -269.66471678 [kJ/mol]
  --------------------------------------------------------------------------------------------------------

*** Psi4 exiting successfully. Buy a developer a beer!
