                               Psi4 1.9 release

  ==> Input File <==

--------------------------------------------------------------------------
MEMORY 60 GB

molecule dimer {
1 1
K      0.000000     0.000000     0.000000
--
-1 1
Cl     3.423610     0.000000     0.000000

units ang
no_reorient
no_com
symmetry c1
}

set {
basis        aug-cc-pVTZ
scf_type     df
}

energy("sapt2+")
--------------------------------------------------------------------------

  //              Dimer HF             //
    Molecular point group: c1
  Charge       = 0
  Multiplicity = 1
  Basis Set: AUG-CC-PVTZ
    Blend: AUG-CC-PVTZ
  Basis Set: (AUG-CC-PVTZ AUX)
    Blend: AUG-CC-PVTZ-JKFIT + DEF2-UNIVERSAL-JKFIT
  @DF-RHF Final Energy: -1058.75038203602526
    Total Energy =                      -1058.7503820360252575
 Dipole X            :       -115.6869772          109.9846494           -5.7023277
 Dipole Y            :         -0.0000000            0.0000000           -0.0000000
 Dipole Z            :          0.0000000            0.0000000            0.0000000
 Magnitude           :                                                    5.7023277
  //            Monomer A HF           //
    Molecular point group: c1
  Multiplicity = 1
  Basis Set: AUG-CC-PVTZ
    Blend: AUG-CC-PVTZ
  Basis Set: (AUG-CC-PVTZ AUX)
    Blend: AUG-CC-PVTZ-JKFIT + DEF2-UNIVERSAL-JKFIT
  @DF-RHF Final Energy:  -599.01750687124445
    Total Energy =                       -599.0175068712444499
  //            Monomer B HF           //
    Molecular point group: c1

    Geometry (in Angstrom), charge = -1, multiplicity = 1:

       Center              X                  Y                   Z               Mass
    ------------   -----------------  -----------------  -----------------  -----------------
      Gh(K)           0.000000000000     0.000000000000     0.000000000000    38.963706486400
         CL           3.423610000000     0.000000000000     0.000000000000    34.968852682000

  Charge       = -1
  Multiplicity = 1
  Basis Set: AUG-CC-PVTZ
    Blend: AUG-CC-PVTZ
  Basis Set: (AUG-CC-PVTZ AUX)
    Blend: AUG-CC-PVTZ-JKFIT + DEF2-UNIVERSAL-JKFIT

    Orbital Energies [Eh]
    ---------------------

    Doubly Occupied:

       1A   -104.506205     2A    -10.229807     3A     -7.695850
       4A     -7.695850     5A     -7.695834     6A     -0.733510
       7A     -0.150339     8A     -0.150334     9A     -0.150334

  @DF-RHF Final Energy:  -459.57349452555547

   => Energetics <=

    Nuclear Repulsion Energy =              0.0000000000000000
    One-Electron Energy =                -641.1308604918596075
    Two-Electron Energy =                 181.5573659663041042
    Total Energy =                       -459.5734945255554749
 Dipole X            :       -116.4548000          109.9846494           -6.4701506
 Dipole Y            :          0.0000000            0.0000000            0.0000000
 Dipole Z            :          0.0000000            0.0000000            0.0000000
 Magnitude           :                                                    6.4701506

    SAPT Results
  --------------------------------------------------------------------------------------------------------
    Electrostatics               -157.02581444 [mEh]     -98.53518619 [kcal/mol]    -412.27121902 [kJ/mol]
      Elst10,r                   -156.41887484 [mEh]     -98.15432584 [kcal/mol]    -410.67769931 [kJ/mol]
      Elst12,r                     -0.60693960 [mEh]      -0.38086035 [kcal/mol]      -1.59351971 [kJ/mol]

    Exchange                        7.62307263 [mEh]       4.78355030 [kcal/mol]      20.01437444 [kJ/mol]
      Exch10                        6.80250989 [mEh]       4.26863940 [kcal/mol]      17.85998727 [kJ/mol]
      Exch10(S^2)                   6.78014891 [mEh]       4.25460767 [kcal/mol]      17.80127850 [kJ/mol]
      Exch11(S^2)                   0.00868249 [mEh]       0.00544834 [kcal/mol]       0.02279587 [kJ/mol]
      Exch12(S^2)                   0.81188025 [mEh]       0.50946255 [kcal/mol]       2.13159131 [kJ/mol]

    Induction                     -11.10773247 [mEh]      -6.97020736 [kcal/mol]     -29.16334759 [kJ/mol]
      Ind20,r                     -25.66963530 [mEh]     -16.10793934 [kcal/mol]     -67.39561819 [kJ/mol]
      Ind22                        -3.56826597 [mEh]      -2.23912070 [kcal/mol]      -9.36848100 [kJ/mol]
      Exch-Ind20,r                 16.00497404 [mEh]      10.04327284 [kcal/mol]      42.02105355 [kJ/mol]
      Exch-Ind22                    2.22480777 [mEh]       1.39608796 [kcal/mol]       5.84123200 [kJ/mol]
      delta HF,r (2)               -0.09961302 [mEh]      -0.06250811 [kcal/mol]      -0.26153395 [kJ/mol]

    Dispersion                     -1.40994900 [mEh]      -0.88475635 [kcal/mol]      -3.70182058 [kJ/mol]
      Disp20                       -1.81604433 [mEh]      -1.13958502 [kcal/mol]      -4.76802374 [kJ/mol]
      Disp21                        0.30582232 [mEh]       0.19190640 [kcal/mol]       0.80293640 [kJ/mol]
      Disp22 (SDQ)                 -0.01174106 [mEh]      -0.00736762 [kcal/mol]      -0.03082614 [kJ/mol]
      Disp22 (T)                   -0.18344819 [mEh]      -0.11511548 [kcal/mol]      -0.48164315 [kJ/mol]
      Est. Disp22 (T)              -0.20432345 [mEh]      -0.12821490 [kcal/mol]      -0.53645115 [kJ/mol]
      Exch-Disp20                   0.31633753 [mEh]       0.19850479 [kcal/mol]       0.83054406 [kJ/mol]

  Total HF                       -159.38063923 [mEh]    -100.01286105 [kcal/mol]    -418.45381064 [kJ/mol]
  Total SAPT0                    -160.88034603 [mEh]    -100.95394128 [kcal/mol]    -422.39129032 [kJ/mol]
  Total SAPT2                    -162.01018109 [mEh]    -101.66292348 [kcal/mol]    -425.35767186 [kJ/mol]
  Total SAPT2+                   -161.92042328 [mEh]    -101.60659961 [kcal/mol]    -425.12201275 [kJ/mol]

  Special recipe for scaled SAPT0 (see Manual):
    Electrostatics sSAPT0        -156.41887484 [mEh]     -98.15432584 [kcal/mol]    -410.67769931 [kJ/mol]
    Exchange sSAPT0                 6.80250989 [mEh]       4.26863940 [kcal/mol]      17.85998727 [kJ/mol]
    Induction sSAPT0               -9.60539784 [mEh]      -6.02747814 [kcal/mol]     -25.21896855 [kJ/mol]
    Dispersion sSAPT0              -1.49656662 [mEh]      -0.93910973 [kcal/mol]      -3.92923513 [kJ/mol]
  Total sSAPT0                   -160.71832941 [mEh]    -100.85227431 [kcal/mol]    -421.96591573 [kJ/mol]
  --------------------------------------------------------------------------------------------------------

*** Psi4 exiting successfully. Buy a developer a beer!
