                               Psi4 1.9 release

  ==> Input File <==

--------------------------------------------------------------------------
MEMORY 60 GB

molecule dimer {
1 1
K      0.000000     0.000000     0.000000
--
-1 1
Cl     2.633546     0.000000     0.000000

units ang
no_reorient
no_com
symmetry c1
}

set {
basis        aug-cc-pVTZ
scf_type     df
}

energy("sapt2+")
--------------------------------------------------------------------------

  //              Dimer HF             //
    Molecular point group: c1
  Charge       = 0
  Multiplicity = 1
  Basis Set: AUG-CC-PVTZ
    Blend: AUG-CC-PVTZ
  Basis Set: (AUG-CC-PVTZ AUX)
    Blend: AUG-CC-PVTZ-JKFIT + DEF2-UNIVERSAL-JKFIT
  @DF-RHF Final Energy: -1058.76866785110428
    Total Energy =                      -1058.7686678511042828
 Dipole X            :        -88.7072416           84.6035715           -4.1036701
 Dipole Y            :          0.0000000            0.0000000            0.0000000
 Dipole Z            :          0.0000000            0.0000000            0.0000000
 Magnitude           :                                                    4.1036701
  //            Monomer A HF           //
    Molecular point group: c1
  Multiplicity = 1
  Basis Set: AUG-CC-PVTZ
    Blend: AUG-CC-PVTZ
  Basis Set: (AUG-CC-PVTZ AUX)
    Blend: AUG-CC-PVTZ-JKFIT + DEF2-UNIVERSAL-JKFIT
  @DF-RHF Final Energy:  -599.01750788769937
    Total Energy =                       -599.0175078876993666
  //            Monomer B HF           //
    Molecular point group: c1

    Geometry (in Angstrom), charge = -1, multiplicity = 1:

       Center              X                  Y                   Z               Mass
    ------------   -----------------  -----------------  -----------------  -----------------
      Gh(K)           0.000000000000     0.000000000000     0.000000000000    38.963706486400
         CL           2.633546000000     0.000000000000     0.000000000000    34.968852682000

  Charge       = -1
  Multiplicity = 1
  Basis Set: AUG-CC-PVTZ
    Blend: AUG-CC-PVTZ
  Basis Set: (AUG-CC-PVTZ AUX)
    Blend: AUG-CC-PVTZ-JKFIT + DEF2-UNIVERSAL-JKFIT

    Orbital Energies [Eh]
    ---------------------

    Doubly Occupied:

       1A   -104.506270     2A    -10.229822     3A     -7.695866
       4A     -7.695866     5A     -7.695854     6A     -0.733507
       7A     -0.150336     8A     -0.150332     9A     -0.150332

  @DF-RHF Final Energy:  -459.57349773473811

   => Energetics <=

    Nuclear Repulsion Energy =              0.0000000000000000
    One-Electron Energy =                -641.1306239993592726
    Two-Electron Energy =                 181.5571262646211323
    Total Energy =                       -459.5734977347381118
 Dipole X            :        -89.5812340           84.6035715           -4.9776625
 Dipole Y            :          0.0000000            0.0000000            0.0000000
 Dipole Z            :         -0.0000000            0.0000000           -0.0000000
 Magnitude           :                                                    4.9776625

    SAPT Results
  --------------------------------------------------------------------------------------------------------
    Electrostatics               -221.90443091 [mEh]    -139.24713267 [kcal/mol]    -582.61000308 [kJ/mol]
      Elst10,r                   -219.93353509 [mEh]    -138.01037687 [kcal/mol]    -577.43541682 [kJ/mol]
      Elst12,r                     -1.97089582 [mEh]      -1.23675580 [kcal/mol]      -5.17458625 [kJ/mol]

    Exchange                       66.29114210 [mEh]      41.59831970 [kcal/mol]     174.04736961 [kJ/mol]
      Exch10                       63.86330015 [mEh]      40.07482587 [kcal/mol]     167.67307144 [kJ/mol]
      Exch10(S^2)                  62.22113618 [mEh]      39.04435242 [kcal/mol]     163.36157052 [kJ/mol]
      Exch11(S^2)                  -0.53749106 [mEh]      -0.33728073 [kcal/mol]      -1.41118258 [kJ/mol]
      Exch12(S^2)                   2.96533301 [mEh]       1.86077456 [kcal/mol]       7.78548074 [kJ/mol]

    Induction                     -24.05387927 [mEh]     -15.09403712 [kcal/mol]     -63.15345132 [kJ/mol]
      Ind20,r                    -146.44100642 [mEh]     -91.89311888 [kcal/mol]    -384.48080939 [kJ/mol]
      Ind22                       -15.26901078 [mEh]      -9.58144892 [kcal/mol]     -40.08878228 [kJ/mol]
      Exch-Ind20,r                122.82971937 [mEh]      77.07681256 [kcal/mol]     322.48938376 [kJ/mol]
      Exch-Ind22                   12.80712524 [mEh]       8.03659242 [kcal/mol]      33.62510268 [kJ/mol]
      delta HF,r (2)                2.01929333 [mEh]       1.26712569 [kcal/mol]       5.30165391 [kJ/mol]

    Dispersion                     -5.56050876 [mEh]      -3.48927192 [kcal/mol]     -14.59911373 [kJ/mol]
      Disp20                       -8.59360485 [mEh]      -5.39256846 [kcal/mol]     -22.56250643 [kJ/mol]
      Disp21                        1.41853429 [mEh]       0.89014371 [kcal/mol]       3.72436127 [kJ/mol]
      Disp22 (SDQ)                  0.05626575 [mEh]       0.03530729 [kcal/mol]       0.14772570 [kJ/mol]
      Disp22 (T)                   -0.80424651 [mEh]      -0.50467230 [kcal/mol]      -2.11154891 [kJ/mol]
      Est. Disp22 (T)              -0.86739236 [mEh]      -0.54429692 [kcal/mol]      -2.27733832 [kJ/mol]
      Exch-Disp20                   2.42568841 [mEh]       1.52214246 [kcal/mol]       6.36864405 [kJ/mol]

  Total HF                       -177.66222867 [mEh]    -111.48473162 [kcal/mol]    -466.45211710 [kJ/mol]
  Total SAPT0                    -183.83014511 [mEh]    -115.35515762 [kcal/mol]    -482.64597948 [kJ/mol]
  Total SAPT2                    -185.83508451 [mEh]    -116.61327609 [kcal/mol]    -487.90994717 [kJ/mol]
  Total SAPT2+                   -185.22767683 [mEh]    -116.23212202 [kcal/mol]    -486.31519851 [kJ/mol]

  Special recipe for scaled SAPT0 (see Manual):
    Electrostatics sSAPT0        -219.93353509 [mEh]    -138.01037687 [kcal/mol]    -577.43541682 [kJ/mol]
    Exchange sSAPT0                63.86330015 [mEh]      40.07482587 [kcal/mol]     167.67307144 [kJ/mol]
    Induction sSAPT0              -11.60775515 [mEh]      -7.28397633 [kcal/mol]     -30.47615695 [kJ/mol]
    Dispersion sSAPT0              -5.97074387 [mEh]      -3.74669834 [kcal/mol]     -15.67618586 [kJ/mol]
  Total sSAPT0                   -173.64873396 [mEh]    -108.96622567 [kcal/mol]    -455.91468819 [kJ/mol]
  --------------------------------------------------------------------------------------------------------

*** Psi4 exiting successfully. Buy a developer a beer!
