                               Psi4 1.9 release

  ==> Input File <==

--------------------------------------------------------------------------
MEMORY 60 GB

molecule dimer {
1 1
K      0.000000     0.000000     0.000000
--
-1 1
Cl     2.765223     0.000000     0.000000

units ang
no_reorient
no_com
symmetry c1
}

set {
basis        aug-cc-pVTZ
scf_type     df
}

energy("sapt2+")
--------------------------------------------------------------------------

  //              Dimer HF             //
    Molecular point group: c1
  Charge       = 0
  Multiplicity = 1
  Basis Set: AUG-CC-PVTZ
    Blend: AUG-CC-PVTZ
  Basis Set: (AUG-CC-PVTZ AUX)
    Blend: AUG-CC-PVTZ-JKFIT + DEF2-UNIVERSAL-JKFIT
  @DF-RHF Final Energy: -1058.76990680034555
    Total Energy =                      -1058.7699068003455523
 Dipole X            :        -93.2012385           88.8337405           -4.3674980
 Dipole Y            :         -0.0000000            0.0000000           -0.0000000
 Dipole Z            :          0.0000000            0.0000000            0.0000000
 Magnitude           :                                                    4.3674980
  //            Monomer A HF           //
    Molecular point group: c1
  Multiplicity = 1
  Basis Set: AUG-CC-PVTZ
    Blend: AUG-CC-PVTZ
  Basis Set: (AUG-CC-PVTZ AUX)
    Blend: AUG-CC-PVTZ-JKFIT + DEF2-UNIVERSAL-JKFIT
  @DF-RHF Final Energy:  -599.01750763681889
    Total Energy =                       -599.0175076368188911
  //            Monomer B HF           //
    Molecular point group: c1

    Geometry (in Angstrom), charge = -1, multiplicity = 1:

       Center              X                  Y                   Z               Mass
    ------------   -----------------  -----------------  -----------------  -----------------
      Gh(K)           0.000000000000     0.000000000000     0.000000000000    38.963706486400
         CL           2.765223000000     0.000000000000     0.000000000000    34.968852682000

  Charge       = -1
  Multiplicity = 1
  Basis Set: AUG-CC-PVTZ
    Blend: AUG-CC-PVTZ
  Basis Set: (AUG-CC-PVTZ AUX)
    Blend: AUG-CC-PVTZ-JKFIT + DEF2-UNIVERSAL-JKFIT

    Orbital Energies [Eh]
    ---------------------

    Doubly Occupied:

       1A   -104.506278     2A    -10.229825     3A     -7.695870
       4A     -7.695870     5A     -7.695854     6A     -0.733508
       7A     -0.150336     8A     -0.150333     9A     -0.150333

  @DF-RHF Final Energy:  -459.57349781900399

   => Energetics <=

    Nuclear Repulsion Energy =              0.0000000000000000
    One-Electron Energy =                -641.1305807552637361
    Two-Electron Energy =                 181.5570829362597181
    Total Energy =                       -459.5734978190040465
 Dipole X            :        -94.0601146           88.8337405           -5.2263741
 Dipole Y            :          0.0000000            0.0000000            0.0000000
 Dipole Z            :         -0.0000000            0.0000000           -0.0000000
 Magnitude           :                                                    5.2263741

    SAPT Results
  --------------------------------------------------------------------------------------------------------
    Electrostatics               -205.73965243 [mEh]    -129.10358103 [kcal/mol]    -540.16938303 [kJ/mol]
      Elst10,r                   -204.09120390 [mEh]    -128.06916396 [kcal/mol]    -535.84138202 [kJ/mol]
      Elst12,r                     -1.64844853 [mEh]      -1.03441707 [kcal/mol]      -4.32800101 [kJ/mol]

    Exchange                       45.76679129 [mEh]      28.71909512 [kcal/mol]     120.16069399 [kJ/mol]
      Exch10                       43.54694005 [mEh]      27.32611743 [kcal/mol]     114.33247534 [kJ/mol]
      Exch10(S^2)                  42.75084376 [mEh]      26.82655947 [kcal/mol]     112.24232482 [kJ/mol]
      Exch11(S^2)                  -0.26437533 [mEh]      -0.16589803 [kcal/mol]      -0.69411734 [kJ/mol]
      Exch12(S^2)                   2.48422658 [mEh]       1.55887571 [kcal/mol]       6.52233599 [kJ/mol]

    Induction                     -20.48816722 [mEh]     -12.85651903 [kcal/mol]     -53.79167563 [kJ/mol]
      Ind20,r                    -106.06186329 [mEh]     -66.55482402 [kcal/mol]    -278.46538369 [kJ/mol]
      Ind22                       -11.87363294 [mEh]      -7.45081716 [kcal/mol]     -31.17421898 [kJ/mol]
      Exch-Ind20,r                 87.02581832 [mEh]      54.60952546 [kcal/mol]     228.48625453 [kJ/mol]
      Exch-Ind22                    9.74254639 [mEh]       6.11354016 [kcal/mol]      25.57905201 [kJ/mol]
      delta HF,r (2)                0.67896429 [mEh]       0.42605653 [kcal/mol]       1.78262050 [kJ/mol]

    Dispersion                     -4.33891292 [mEh]      -2.72270896 [kcal/mol]     -11.39181430 [kJ/mol]
      Disp20                       -6.50313092 [mEh]      -4.08077626 [kcal/mol]     -17.07396787 [kJ/mol]
      Disp21                        1.07308522 [mEh]       0.67337114 [kcal/mol]       2.81738486 [kJ/mol]
      Disp22 (SDQ)                  0.03272372 [mEh]       0.02053445 [kcal/mol]       0.08591612 [kJ/mol]
      Disp22 (T)                   -0.62200923 [mEh]      -0.39031669 [kcal/mol]      -1.63308501 [kJ/mol]
      Est. Disp22 (T)              -0.67049749 [mEh]      -0.42074352 [kcal/mol]      -1.76039091 [kJ/mol]
      Exch-Disp20                   1.72890654 [mEh]       1.08490523 [kcal/mol]       4.53924349 [kJ/mol]

  Total HF                       -178.90134452 [mEh]    -112.26228856 [kcal/mol]    -469.70541533 [kJ/mol]
  Total SAPT0                    -183.67556890 [mEh]    -115.25815959 [kcal/mol]    -482.24013971 [kJ/mol]
  Total SAPT2                    -185.23525273 [mEh]    -116.23687597 [kcal/mol]    -486.33508905 [kJ/mol]
  Total SAPT2+                   -184.79994127 [mEh]    -115.96371390 [kcal/mol]    -485.19217897 [kJ/mol]

  Special recipe for scaled SAPT0 (see Manual):
    Electrostatics sSAPT0        -204.09120390 [mEh]    -128.06916396 [kcal/mol]    -535.84138202 [kJ/mol]
    Exchange sSAPT0                43.54694005 [mEh]      27.32611743 [kcal/mol]     114.33247534 [kJ/mol]
    Induction sSAPT0              -13.40426103 [mEh]      -8.41130079 [kcal/mol]     -35.19288248 [kJ/mol]
    Dispersion sSAPT0              -4.67582873 [mEh]      -2.93412682 [kcal/mol]     -12.27638663 [kJ/mol]
  Total sSAPT0                   -178.62435361 [mEh]    -112.08847414 [kcal/mol]    -468.97817579 [kJ/mol]
  --------------------------------------------------------------------------------------------------------

*** Psi4 exiting successfully. Buy a developer a beer!
