                               Psi4 1.9 release

  ==> Input File <==

--------------------------------------------------------------------------
MEMORY 60 GB

molecule dimer {
1 1
K      0.000000     0.000000     0.000000
--
-1 1
Cl     3.160255     0.000000     0.000000

units ang
no_reorient
no_com
symmetry c1
}

set {
basis        aug-cc-pVTZ
scf_type     df
}

energy("sapt2+")
--------------------------------------------------------------------------

  //              Dimer HF             //
    Molecular point group: c1
  Charge       = 0
  Multiplicity = 1
  Basis Set: AUG-CC-PVTZ
    Blend: AUG-CC-PVTZ
  Basis Set: (AUG-CC-PVTZ AUX)
    Blend: AUG-CC-PVTZ-JKFIT + DEF2-UNIVERSAL-JKFIT
  @DF-RHF Final Energy: -1058.76050889596354
    Total Energy =                      -1058.7605088959635395
 Dipole X            :       -106.6888347          101.5242794           -5.1645552
 Dipole Y            :          0.0000000            0.0000000            0.0000000
 Dipole Z            :          0.0000000            0.0000000            0.0000000
 Magnitude           :                                                    5.1645552
  //            Monomer A HF           //
    Molecular point group: c1
  Multiplicity = 1
  Basis Set: AUG-CC-PVTZ
    Blend: AUG-CC-PVTZ
  Basis Set: (AUG-CC-PVTZ AUX)
    Blend: AUG-CC-PVTZ-JKFIT + DEF2-UNIVERSAL-JKFIT
  @DF-RHF Final Energy:  -599.01750704165272
    Total Energy =                       -599.0175070416527205
  //            Monomer B HF           //
    Molecular point group: c1

    Geometry (in Angstrom), charge = -1, multiplicity = 1:

       Center              X                  Y                   Z               Mass
    ------------   -----------------  -----------------  -----------------  -----------------
      Gh(K)           0.000000000000     0.000000000000     0.000000000000    38.963706486400
         CL           3.160255000000     0.000000000000     0.000000000000    34.968852682000

  Charge       = -1
  Multiplicity = 1
  Basis Set: AUG-CC-PVTZ
    Blend: AUG-CC-PVTZ
  Basis Set: (AUG-CC-PVTZ AUX)
    Blend: AUG-CC-PVTZ-JKFIT + DEF2-UNIVERSAL-JKFIT

    Orbital Energies [Eh]
    ---------------------

    Doubly Occupied:

       1A   -104.506259     2A    -10.229822     3A     -7.695867
       4A     -7.695867     5A     -7.695846     6A     -0.733509
       7A     -0.150338     8A     -0.150333     9A     -0.150333

  @DF-RHF Final Energy:  -459.57349704178148

   => Energetics <=

    Nuclear Repulsion Energy =              0.0000000000000000
    One-Electron Energy =                -641.1306445196639743
    Two-Electron Energy =                 181.5571474778824950
    Total Energy =                       -459.5734970417814793
 Dipole X            :       -107.4968815          101.5242794           -5.9726021
 Dipole Y            :         -0.0000000            0.0000000           -0.0000000
 Dipole Z            :          0.0000000            0.0000000            0.0000000
 Magnitude           :                                                    5.9726021

    SAPT Results
  --------------------------------------------------------------------------------------------------------
    Electrostatics               -172.30900968 [mEh]    -108.12553599 [kcal/mol]    -452.39724260 [kJ/mol]
      Elst10,r                   -171.39175421 [mEh]    -107.54994950 [kcal/mol]    -449.98898869 [kJ/mol]
      Elst12,r                     -0.91725547 [mEh]      -0.57558650 [kcal/mol]      -2.40825391 [kJ/mol]

    Exchange                       15.43605148 [mEh]       9.68626854 [kcal/mol]      40.52734759 [kJ/mol]
      Exch10                       14.13530730 [mEh]       8.87003924 [kcal/mol]      37.11224420 [kJ/mol]
      Exch10(S^2)                  14.04291302 [mEh]       8.81206096 [kcal/mol]      36.86966304 [kJ/mol]
      Exch11(S^2)                  -0.01245109 [mEh]      -0.00781318 [kcal/mol]      -0.03269034 [kJ/mol]
      Exch12(S^2)                   1.31319528 [mEh]       0.82404248 [kcal/mol]       3.44779373 [kJ/mol]

    Induction                     -13.85211582 [mEh]      -8.69233391 [kcal/mol]     -36.36872508 [kJ/mol]
      Ind20,r                     -43.51003237 [mEh]     -27.30295752 [kcal/mol]    -114.23557425 [kJ/mol]
      Ind22                        -5.70307441 [mEh]      -3.57873322 [kcal/mol]     -14.97341981 [kJ/mol]
      Exch-Ind20,r                 31.27466274 [mEh]      19.62514716 [kcal/mol]      82.11161572 [kJ/mol]
      Exch-Ind22                    4.09932420 [mEh]       2.57236477 [kcal/mol]      10.76277422 [kJ/mol]
      delta HF,r (2)               -0.01299599 [mEh]      -0.00815510 [kcal/mol]      -0.03412096 [kJ/mol]

    Dispersion                     -2.15620001 [mEh]      -1.35303593 [kcal/mol]      -5.66110234 [kJ/mol]
      Disp20                       -2.94661669 [mEh]      -1.84902989 [kcal/mol]      -7.73634104 [kJ/mol]
      Disp21                        0.49331112 [mEh]       0.30955740 [kcal/mol]       1.29518816 [kJ/mol]
      Disp22 (SDQ)                 -0.00376336 [mEh]      -0.00236154 [kcal/mol]      -0.00988070 [kJ/mol]
      Disp22 (T)                   -0.29228168 [mEh]      -0.18340952 [kcal/mol]      -0.76738544 [kJ/mol]
      Est. Disp22 (T)              -0.32118520 [mEh]      -0.20154675 [kcal/mol]      -0.84327162 [kJ/mol]
      Exch-Disp20                   0.62205412 [mEh]       0.39034485 [kcal/mol]       1.63320285 [kJ/mol]

  Total HF                       -169.50481253 [mEh]    -106.36587571 [kcal/mol]    -445.03482398 [kJ/mol]
  Total SAPT0                    -171.82937510 [mEh]    -107.82456075 [kcal/mol]    -451.13796217 [kJ/mol]
  Total SAPT2                    -173.04963659 [mEh]    -108.59028640 [kcal/mol]    -454.34175828 [kJ/mol]
  Total SAPT2+                   -172.88127403 [mEh]    -108.48463729 [kcal/mol]    -453.89972243 [kJ/mol]

  Special recipe for scaled SAPT0 (see Manual):
    Electrostatics sSAPT0        -171.39175421 [mEh]    -107.54994950 [kcal/mol]    -449.98898869 [kJ/mol]
    Exchange sSAPT0                14.13530730 [mEh]       8.87003924 [kcal/mol]      37.11224420 [kJ/mol]
    Induction sSAPT0              -11.62698735 [mEh]      -7.29604472 [kcal/mol]     -30.52665109 [kJ/mol]
    Dispersion sSAPT0              -2.31220334 [mEh]      -1.45092950 [kcal/mol]      -6.07068902 [kJ/mol]
  Total sSAPT0                   -171.19563761 [mEh]    -107.42688447 [kcal/mol]    -449.47408461 [kJ/mol]
  --------------------------------------------------------------------------------------------------------

*** Psi4 exiting successfully. Buy a developer a beer!
