                               Psi4 1.9 release

  ==> Input File <==

--------------------------------------------------------------------------
MEMORY 60 GB

molecule dimer {
1 1
K      0.000000     0.000000     0.000000
--
-1 1
Cl     2.896901     0.000000     0.000000

units ang
no_reorient
no_com
symmetry c1
}

set {
basis        aug-cc-pVTZ
scf_type     df
}

energy("sapt2+")
--------------------------------------------------------------------------

  //              Dimer HF             //
    Molecular point group: c1
  Charge       = 0
  Multiplicity = 1
  Basis Set: AUG-CC-PVTZ
    Blend: AUG-CC-PVTZ
  Basis Set: (AUG-CC-PVTZ AUX)
    Blend: AUG-CC-PVTZ-JKFIT + DEF2-UNIVERSAL-JKFIT
  @DF-RHF Final Energy: -1058.76828183626162
    Total Energy =                      -1058.7682818362616217
 Dipole X            :        -97.6962658           93.0639415           -4.6323243
 Dipole Y            :          0.0000000            0.0000000            0.0000000
 Dipole Z            :         -0.0000000            0.0000000           -0.0000000
 Magnitude           :                                                    4.6323243
  //            Monomer A HF           //
    Molecular point group: c1
  Multiplicity = 1
  Basis Set: AUG-CC-PVTZ
    Blend: AUG-CC-PVTZ
  Basis Set: (AUG-CC-PVTZ AUX)
    Blend: AUG-CC-PVTZ-JKFIT + DEF2-UNIVERSAL-JKFIT
  @DF-RHF Final Energy:  -599.01750739972204
    Total Energy =                       -599.0175073997220352
  //            Monomer B HF           //
    Molecular point group: c1

    Geometry (in Angstrom), charge = -1, multiplicity = 1:

       Center              X                  Y                   Z               Mass
    ------------   -----------------  -----------------  -----------------  -----------------
      Gh(K)           0.000000000000     0.000000000000     0.000000000000    38.963706486400
         CL           2.896901000000     0.000000000000     0.000000000000    34.968852682000

  Charge       = -1
  Multiplicity = 1
  Basis Set: AUG-CC-PVTZ
    Blend: AUG-CC-PVTZ
  Basis Set: (AUG-CC-PVTZ AUX)
    Blend: AUG-CC-PVTZ-JKFIT + DEF2-UNIVERSAL-JKFIT

    Orbital Energies [Eh]
    ---------------------

    Doubly Occupied:

       1A   -104.506283     2A    -10.229827     3A     -7.695873
       4A     -7.695873     5A     -7.695853     6A     -0.733508
       7A     -0.150337     8A     -0.150333     9A     -0.150333

  @DF-RHF Final Energy:  -459.57349800880337

   => Energetics <=

    Nuclear Repulsion Energy =              0.0000000000000000
    One-Electron Energy =                -641.1305538612463124
    Two-Electron Energy =                 181.5570558524429146
    Total Energy =                       -459.5734980088034263
 Dipole X            :        -98.5390436           93.0639415           -5.4751021
 Dipole Y            :         -0.0000000            0.0000000           -0.0000000
 Dipole Z            :         -0.0000000            0.0000000           -0.0000000
 Magnitude           :                                                    5.4751021

    SAPT Results
  --------------------------------------------------------------------------------------------------------
    Electrostatics               -192.60300006 [mEh]    -120.86020721 [kcal/mol]    -505.67910698 [kJ/mol]
      Elst10,r                   -191.23637106 [mEh]    -120.00263457 [kcal/mol]    -502.09102305 [kJ/mol]
      Elst12,r                     -1.36662899 [mEh]      -0.85757264 [kcal/mol]      -3.58808393 [kJ/mol]

    Exchange                       31.72691894 [mEh]      19.90894221 [kcal/mol]      83.29901421 [kJ/mol]
      Exch10                       29.81112332 [mEh]      18.70676231 [kcal/mol]      78.26909350 [kJ/mol]
      Exch10(S^2)                  29.42408130 [mEh]      18.46388977 [kcal/mol]      77.25291481 [kJ/mol]
      Exch11(S^2)                  -0.12113302 [mEh]      -0.07601212 [kcal/mol]      -0.31803470 [kJ/mol]
      Exch12(S^2)                   2.03692864 [mEh]       1.27819202 [kcal/mol]       5.34795540 [kJ/mol]

    Induction                     -17.76243328 [mEh]     -11.14609516 [kcal/mol]     -46.63526214 [kJ/mol]
      Ind20,r                     -77.75820339 [mEh]     -48.79400929 [kcal/mol]    -204.15413488 [kJ/mol]
      Ind22                        -9.26041602 [mEh]      -5.81099878 [kcal/mol]     -24.31321892 [kJ/mol]
      Exch-Ind20,r                 61.70972123 [mEh]      38.72343469 [kcal/mol]     162.01885076 [kJ/mol]
      Exch-Ind22                    7.34916274 [mEh]       4.61166924 [kcal/mol]      19.29522412 [kJ/mol]
      delta HF,r (2)                0.19730217 [mEh]       0.12380898 [kcal/mol]       0.51801677 [kJ/mol]

    Dispersion                     -3.40867752 [mEh]      -2.13897744 [kcal/mol]      -8.94948159 [kJ/mol]
      Disp20                       -4.95409976 [mEh]      -3.10874454 [kcal/mol]     -13.00698714 [kJ/mol]
      Disp21                        0.82042788 [mEh]       0.51482627 [kcal/mol]       2.15403311 [kJ/mol]
      Disp22 (SDQ)                  0.01607342 [mEh]       0.01008622 [kcal/mol]       0.04220076 [kJ/mol]
      Disp22 (T)                   -0.48332401 [mEh]      -0.30329040 [kcal/mol]      -1.26896701 [kJ/mol]
      Est. Disp22 (T)              -0.52114762 [mEh]      -0.32702507 [kcal/mol]      -1.36827288 [kJ/mol]
      Exch-Disp20                   1.23006856 [mEh]       0.77187968 [kcal/mol]       3.22954457 [kJ/mol]

  Total HF                       -177.27642774 [mEh]    -111.24263788 [kcal/mol]    -465.43919690 [kJ/mol]
  Total SAPT0                    -181.00045894 [mEh]    -113.57950274 [kcal/mol]    -475.21663947 [kJ/mol]
  Total SAPT2                    -182.36254559 [mEh]    -114.43422502 [kcal/mol]    -478.79279749 [kJ/mol]
  Total SAPT2+                   -182.04719191 [mEh]    -114.23633760 [kcal/mol]    -477.96483651 [kJ/mol]

  Special recipe for scaled SAPT0 (see Manual):
    Electrostatics sSAPT0        -191.23637106 [mEh]    -120.00263457 [kcal/mol]    -502.09102305 [kJ/mol]
    Exchange sSAPT0                29.81112332 [mEh]      18.70676231 [kcal/mol]      78.26909350 [kJ/mol]
    Induction sSAPT0              -13.38383318 [mEh]      -8.39848212 [kcal/mol]     -35.13924918 [kJ/mol]
    Dispersion sSAPT0              -3.67484923 [mEh]      -2.30600271 [kcal/mol]      -9.64831532 [kJ/mol]
  Total sSAPT0                   -178.48393015 [mEh]    -112.00035709 [kcal/mol]    -468.60949406 [kJ/mol]
  --------------------------------------------------------------------------------------------------------

*** Psi4 exiting successfully. Buy a developer a beer!
