                               Psi4 1.9 release

  ==> Input File <==

--------------------------------------------------------------------------
MEMORY 60 GB

molecule dimer {
1 1
K      0.000000     0.000000     0.000000
--
-1 1
Cl     3.686964     0.000000     0.000000

units ang
no_reorient
no_com
symmetry c1
}

set {
basis        aug-cc-pVTZ
scf_type     df
}

energy("sapt2+")
--------------------------------------------------------------------------

  //              Dimer HF             //
    Molecular point group: c1
  Charge       = 0
  Multiplicity = 1
  Basis Set: AUG-CC-PVTZ
    Blend: AUG-CC-PVTZ
  Basis Set: (AUG-CC-PVTZ AUX)
    Blend: AUG-CC-PVTZ-JKFIT + DEF2-UNIVERSAL-JKFIT
  @DF-RHF Final Energy: -1058.73997859713154
    Total Energy =                      -1058.7399785971315396
 Dipole X            :       -124.6924735          118.4449873           -6.2474862
 Dipole Y            :          0.0000000            0.0000000            0.0000000
 Dipole Z            :         -0.0000000            0.0000000           -0.0000000
 Magnitude           :                                                    6.2474862
  //            Monomer A HF           //
    Molecular point group: c1
  Multiplicity = 1
  Basis Set: AUG-CC-PVTZ
    Blend: AUG-CC-PVTZ
  Basis Set: (AUG-CC-PVTZ AUX)
    Blend: AUG-CC-PVTZ-JKFIT + DEF2-UNIVERSAL-JKFIT
  @DF-RHF Final Energy:  -599.01750680092687
    Total Energy =                       -599.0175068009268671
  //            Monomer B HF           //
    Molecular point group: c1

    Geometry (in Angstrom), charge = -1, multiplicity = 1:

       Center              X                  Y                   Z               Mass
    ------------   -----------------  -----------------  -----------------  -----------------
      Gh(K)           0.000000000000     0.000000000000     0.000000000000    38.963706486400
         CL           3.686964000000     0.000000000000     0.000000000000    34.968852682000

  Charge       = -1
  Multiplicity = 1
  Basis Set: AUG-CC-PVTZ
    Blend: AUG-CC-PVTZ
  Basis Set: (AUG-CC-PVTZ AUX)
    Blend: AUG-CC-PVTZ-JKFIT + DEF2-UNIVERSAL-JKFIT

    Orbital Energies [Eh]
    ---------------------

    Doubly Occupied:

       1A   -104.506155     2A    -10.229794     3A     -7.695835
       4A     -7.695835     5A     -7.695824     6A     -0.733511
       7A     -0.150339     8A     -0.150335     9A     -0.150335

  @DF-RHF Final Energy:  -459.57349191722665

   => Energetics <=

    Nuclear Repulsion Energy =              0.0000000000000000
    One-Electron Energy =                -641.1310565485387087
    Two-Electron Energy =                 181.5575646313120899
    Total Energy =                       -459.5734919172266473
 Dipole X            :       -125.4127231          118.4449873           -6.9677358
 Dipole Y            :         -0.0000000            0.0000000           -0.0000000
 Dipole Z            :         -0.0000000            0.0000000           -0.0000000
 Magnitude           :                                                    6.9677358

    SAPT Results
  --------------------------------------------------------------------------------------------------------
    Electrostatics               -144.82657753 [mEh]     -90.88004945 [kcal/mol]    -380.24212691 [kJ/mol]
      Elst10,r                   -144.41319638 [mEh]     -90.62064887 [kcal/mol]    -379.15679486 [kJ/mol]
      Elst12,r                     -0.41338115 [mEh]      -0.25940059 [kcal/mol]      -1.08533205 [kJ/mol]

    Exchange                        3.81506492 [mEh]       2.39398938 [kcal/mol]      10.01645157 [kJ/mol]
      Exch10                        3.31939734 [mEh]       2.08295328 [kcal/mol]       8.71507651 [kJ/mol]
      Exch10(S^2)                   3.31390565 [mEh]       2.07950719 [kcal/mol]       8.70065808 [kJ/mol]
      Exch11(S^2)                   0.00833600 [mEh]       0.00523092 [kcal/mol]       0.02188617 [kJ/mol]
      Exch12(S^2)                   0.48733158 [mEh]       0.30580518 [kcal/mol]       1.27948889 [kJ/mol]

    Induction                      -8.98062820 [mEh]      -5.63542927 [kcal/mol]     -23.57863608 [kJ/mol]
      Ind20,r                     -15.91311235 [mEh]      -9.98562876 [kcal/mol]     -41.77987073 [kJ/mol]
      Ind22                        -2.27081052 [mEh]      -1.42495511 [kcal/mol]      -5.96201220 [kJ/mol]
      Exch-Ind20,r                  8.24286891 [mEh]       5.17247833 [kcal/mol]      21.64164935 [kJ/mol]
      Exch-Ind22                    1.17626226 [mEh]       0.73811571 [kcal/mol]       3.08827613 [kJ/mol]
      delta HF,r (2)               -0.21583649 [mEh]      -0.13543944 [kcal/mol]      -0.56667863 [kJ/mol]

    Dispersion                     -0.94188753 [mEh]      -0.59104335 [kcal/mol]      -2.47292537 [kJ/mol]
      Disp20                       -1.15191828 [mEh]      -0.72283964 [kcal/mol]      -3.02436104 [kJ/mol]
      Disp21                        0.19480900 [mEh]       0.12224449 [kcal/mol]       0.51147096 [kJ/mol]
      Disp22 (SDQ)                 -0.01304218 [mEh]      -0.00818409 [kcal/mol]      -0.03424225 [kJ/mol]
      Disp22 (T)                   -0.12121222 [mEh]      -0.07606181 [kcal/mol]      -0.31824263 [kJ/mol]
      Est. Disp22 (T)              -0.13379185 [mEh]      -0.08395565 [kcal/mol]      -0.35127045 [kJ/mol]
      Exch-Disp20                   0.16205579 [mEh]       0.10169154 [kcal/mol]       0.42547741 [kJ/mol]

  Total HF                       -148.97987898 [mEh]     -93.48628546 [kcal/mol]    -391.14661837 [kJ/mol]
  Total SAPT0                    -149.96974148 [mEh]     -94.10743356 [kcal/mol]    -393.74550200 [kJ/mol]
  Total SAPT2                    -150.98200330 [mEh]     -94.74263744 [kcal/mol]    -396.40319506 [kJ/mol]
  Total SAPT2+                   -150.93402833 [mEh]     -94.71253270 [kcal/mol]    -396.27723680 [kJ/mol]

  Special recipe for scaled SAPT0 (see Manual):
    Electrostatics sSAPT0        -144.41319638 [mEh]     -90.62064887 [kcal/mol]    -379.15679486 [kJ/mol]
    Exchange sSAPT0                 3.31939734 [mEh]       2.08295328 [kcal/mol]       8.71507651 [kJ/mol]
    Induction sSAPT0               -7.84503260 [mEh]      -4.92283228 [kcal/mol]     -20.59713025 [kJ/mol]
    Dispersion sSAPT0              -0.98905550 [mEh]      -0.62064170 [kcal/mol]      -2.59676486 [kJ/mol]
  Total sSAPT0                   -149.92788714 [mEh]     -94.08116957 [kcal/mol]    -393.63561347 [kJ/mol]
  --------------------------------------------------------------------------------------------------------

*** Psi4 exiting successfully. Buy a developer a beer!
