                               Psi4 1.9 release

  ==> Input File <==

--------------------------------------------------------------------------
MEMORY 60 GB

molecule dimer {
1 1
K      0.000000     0.000000     0.000000
--
-1 1
Cl     2.370191     0.000000     0.000000

units ang
no_reorient
no_com
symmetry c1
}

set {
basis        aug-cc-pVTZ
scf_type     df
}

energy("sapt2+")
--------------------------------------------------------------------------

  //              Dimer HF             //
    Molecular point group: c1
  Charge       = 0
  Multiplicity = 1
  Basis Set: AUG-CC-PVTZ
    Blend: AUG-CC-PVTZ
  Basis Set: (AUG-CC-PVTZ AUX)
    Blend: AUG-CC-PVTZ-JKFIT + DEF2-UNIVERSAL-JKFIT
  @DF-RHF Final Energy: -1058.75008726838996
    Total Energy =                      -1058.7500872683899615
 Dipole X            :        -79.7197599           76.1432015           -3.5765583
 Dipole Y            :          0.0000000            0.0000000            0.0000000
 Dipole Z            :          0.0000000            0.0000000            0.0000000
 Magnitude           :                                                    3.5765583
  //            Monomer A HF           //
    Molecular point group: c1
  Multiplicity = 1
  Basis Set: AUG-CC-PVTZ
    Blend: AUG-CC-PVTZ
  Basis Set: (AUG-CC-PVTZ AUX)
    Blend: AUG-CC-PVTZ-JKFIT + DEF2-UNIVERSAL-JKFIT
  @DF-RHF Final Energy:  -599.01750853106762
    Total Energy =                       -599.0175085310676195
  //            Monomer B HF           //
    Molecular point group: c1

    Geometry (in Angstrom), charge = -1, multiplicity = 1:

       Center              X                  Y                   Z               Mass
    ------------   -----------------  -----------------  -----------------  -----------------
      Gh(K)           0.000000000000     0.000000000000     0.000000000000    38.963706486400
         CL           2.370191000000     0.000000000000     0.000000000000    34.968852682000

  Charge       = -1
  Multiplicity = 1
  Basis Set: AUG-CC-PVTZ
    Blend: AUG-CC-PVTZ
  Basis Set: (AUG-CC-PVTZ AUX)
    Blend: AUG-CC-PVTZ-JKFIT + DEF2-UNIVERSAL-JKFIT

    Orbital Energies [Eh]
    ---------------------

    Doubly Occupied:

       1A   -104.506273     2A    -10.229821     3A     -7.695864
       4A     -7.695864     5A     -7.695856     6A     -0.733504
       7A     -0.150335     8A     -0.150330     9A     -0.150330

  @DF-RHF Final Energy:  -459.57349954933801

   => Energetics <=

    Nuclear Repulsion Energy =              0.0000000000000000
    One-Electron Energy =                -641.1306390806046238
    Two-Electron Energy =                 181.5571395312666141
    Total Energy =                       -459.5734995493380097
 Dipole X            :        -80.6233352           76.1432015           -4.4801337
 Dipole Y            :          0.0000000            0.0000000            0.0000000
 Dipole Z            :          0.0000000            0.0000000            0.0000000
 Magnitude           :                                                    4.4801337

    SAPT Results
  --------------------------------------------------------------------------------------------------------
    Electrostatics               -268.94311470 [mEh]    -168.76435238 [kcal/mol]    -706.11005035 [kJ/mol]
      Elst10,r                   -266.26846142 [mEh]    -167.08598211 [kcal/mol]    -699.08774915 [kJ/mol]
      Elst12,r                     -2.67465327 [mEh]      -1.67837027 [kcal/mol]      -7.02230120 [kJ/mol]

    Exchange                      140.68859002 [mEh]      88.28342309 [kcal/mol]     369.37784222 [kJ/mol]
      Exch10                      138.90452669 [mEh]      87.16390645 [kcal/mol]     364.69378459 [kJ/mol]
      Exch10(S^2)                 131.88434987 [mEh]      82.75867899 [kcal/mol]     346.26231288 [kJ/mol]
      Exch11(S^2)                  -1.99650929 [mEh]      -1.25282850 [kcal/mol]      -5.24183443 [kJ/mol]
      Exch12(S^2)                   3.78057262 [mEh]       2.37234514 [kcal/mol]       9.92589206 [kJ/mol]

    Induction                     -35.69665196 [mEh]     -22.39998728 [kcal/mol]     -93.72154680 [kJ/mol]
      Ind20,r                    -287.97443040 [mEh]    -180.70668328 [kcal/mol]    -756.07676286 [kJ/mol]
      Ind22                       -25.20786195 [mEh]     -15.81817219 [kcal/mol]     -66.18323243 [kJ/mol]
      Exch-Ind20,r                242.49096080 [mEh]     152.16537521 [kcal/mol]     636.65992987 [kJ/mol]
      Exch-Ind22                   21.22646325 [mEh]      13.31980678 [kcal/mol]      55.73007159 [kJ/mol]
      delta HF,r (2)               13.76821634 [mEh]       8.63968619 [kcal/mol]      36.14844703 [kJ/mol]

    Dispersion                     -9.30100960 [mEh]      -5.83647164 [kcal/mol]     -24.41979735 [kJ/mol]
      Disp20                      -15.27405225 [mEh]      -9.58461249 [kcal/mol]     -40.10201866 [kJ/mol]
      Disp21                        2.56796578 [mEh]       1.61142286 [kcal/mol]       6.74219323 [kJ/mol]
      Disp22 (SDQ)                  0.13652370 [mEh]       0.08566991 [kcal/mol]       0.35844291 [kJ/mol]
      Disp22 (T)                   -1.37589123 [mEh]      -0.86338478 [kcal/mol]      -3.61240192 [kJ/mol]
      Est. Disp22 (T)              -1.46599964 [mEh]      -0.91992867 [kcal/mol]      -3.84898153 [kJ/mol]
      Exch-Disp20                   4.73455282 [mEh]       2.97097675 [kcal/mol]      12.43056671 [kJ/mol]

  Total HF                       -159.07918798 [mEh]     -99.82369754 [kcal/mol]    -417.66235051 [kJ/mol]
  Total SAPT0                    -169.61868742 [mEh]    -106.43733329 [kcal/mol]    -445.33380247 [kJ/mol]
  Total SAPT2                    -174.49067606 [mEh]    -109.49455231 [kcal/mol]    -458.12520689 [kJ/mol]
  Total SAPT2+                   -173.25218623 [mEh]    -108.71738821 [kcal/mol]    -454.87355228 [kJ/mol]

  Special recipe for scaled SAPT0 (see Manual):
    Electrostatics sSAPT0        -266.26846142 [mEh]    -167.08598211 [kcal/mol]    -699.08774915 [kJ/mol]
    Exchange sSAPT0               138.90452669 [mEh]      87.16390645 [kcal/mol]     364.69378459 [kJ/mol]
    Induction sSAPT0                9.10578128 [mEh]       5.71396402 [kcal/mol]      23.90722547 [kJ/mol]
    Dispersion sSAPT0              -9.74248274 [mEh]      -6.11350022 [kcal/mol]     -25.57888491 [kJ/mol]
  Total sSAPT0                   -128.00063619 [mEh]     -80.32161186 [kcal/mol]    -336.06562400 [kJ/mol]
  --------------------------------------------------------------------------------------------------------

*** Psi4 exiting successfully. Buy a developer a beer!
