                               Psi4 1.9 release

  ==> Input File <==

--------------------------------------------------------------------------
MEMORY 60 GB

molecule dimer {
1 1
K      0.000000     0.000000     0.000000
--
-1 1
Cl     2.501869     0.000000     0.000000

units ang
no_reorient
no_com
symmetry c1
}

set {
basis        aug-cc-pVTZ
scf_type     df
}

energy("sapt2+")
--------------------------------------------------------------------------

  //              Dimer HF             //
    Molecular point group: c1
  Charge       = 0
  Multiplicity = 1
  Basis Set: AUG-CC-PVTZ
    Blend: AUG-CC-PVTZ
  Basis Set: (AUG-CC-PVTZ AUX)
    Blend: AUG-CC-PVTZ-JKFIT + DEF2-UNIVERSAL-JKFIT
  @DF-RHF Final Energy: -1058.76289553796096
    Total Energy =                      -1058.7628955379609579
 Dipole X            :        -84.2139530           80.3734026           -3.8405504
 Dipole Y            :         -0.0000000            0.0000000           -0.0000000
 Dipole Z            :          0.0000000            0.0000000            0.0000000
 Magnitude           :                                                    3.8405504
  //            Monomer A HF           //
    Molecular point group: c1
  Multiplicity = 1
  Basis Set: AUG-CC-PVTZ
    Blend: AUG-CC-PVTZ
  Basis Set: (AUG-CC-PVTZ AUX)
    Blend: AUG-CC-PVTZ-JKFIT + DEF2-UNIVERSAL-JKFIT
  @DF-RHF Final Energy:  -599.01750816995343
    Total Energy =                       -599.0175081699534303
  //            Monomer B HF           //
    Molecular point group: c1

    Geometry (in Angstrom), charge = -1, multiplicity = 1:

       Center              X                  Y                   Z               Mass
    ------------   -----------------  -----------------  -----------------  -----------------
      Gh(K)           0.000000000000     0.000000000000     0.000000000000    38.963706486400
         CL           2.501869000000     0.000000000000     0.000000000000    34.968852682000

  Charge       = -1
  Multiplicity = 1
  Basis Set: AUG-CC-PVTZ
    Blend: AUG-CC-PVTZ
  Basis Set: (AUG-CC-PVTZ AUX)
    Blend: AUG-CC-PVTZ-JKFIT + DEF2-UNIVERSAL-JKFIT

    Orbital Energies [Eh]
    ---------------------

    Doubly Occupied:

       1A   -104.506267     2A    -10.229820     3A     -7.695863
       4A     -7.695863     5A     -7.695854     6A     -0.733506
       7A     -0.150335     8A     -0.150331     9A     -0.150331

  @DF-RHF Final Energy:  -459.57349826953742

   => Energetics <=

    Nuclear Repulsion Energy =              0.0000000000000000
    One-Electron Energy =                -641.1306504785486595
    Two-Electron Energy =                 181.5571522090111785
    Total Energy =                       -459.5734982695374811
 Dipole X            :        -85.1023384           80.3734026           -4.7289358
 Dipole Y            :         -0.0000000            0.0000000           -0.0000000
 Dipole Z            :          0.0000000            0.0000000            0.0000000
 Magnitude           :                                                    4.7289358

    SAPT Results
  --------------------------------------------------------------------------------------------------------
    Electrostatics               -242.35045566 [mEh]    -152.07720690 [kcal/mol]    -636.29103368 [kJ/mol]
      Elst10,r                   -240.02682259 [mEh]    -150.61910514 [kcal/mol]    -630.19033590 [kJ/mol]
      Elst12,r                     -2.32363307 [mEh]      -1.45810176 [kcal/mol]      -6.10069778 [kJ/mol]

    Exchange                       96.39708684 [mEh]      60.49008523 [kcal/mol]     253.09051662 [kJ/mol]
      Exch10                       94.01882431 [mEh]      58.99770297 [kcal/mol]     246.84638921 [kJ/mol]
      Exch10(S^2)                  90.62444489 [mEh]      56.86769772 [kcal/mol]     237.93444728 [kJ/mol]
      Exch11(S^2)                  -1.04952248 [mEh]      -0.65858530 [kcal/mol]      -2.75552090 [kJ/mol]
      Exch12(S^2)                   3.42778501 [mEh]       2.15096757 [kcal/mol]       8.99964831 [kJ/mol]

    Induction                     -28.89348070 [mEh]     -18.13093287 [kcal/mol]     -75.85982312 [kJ/mol]
      Ind20,r                    -204.36632039 [mEh]    -128.24180217 [kcal/mol]    -536.56370026 [kJ/mol]
      Ind22                       -19.64332098 [mEh]     -12.32637001 [kcal/mol]     -51.57353212 [kJ/mol]
      Exch-Ind20,r                173.02594155 [mEh]     108.57541753 [kcal/mol]     454.27954696 [kJ/mol]
      Exch-Ind22                   16.63094046 [mEh]      10.43607270 [kcal/mol]      43.66452817 [kJ/mol]
      delta HF,r (2)                5.45927866 [mEh]       3.42574908 [kcal/mol]      14.33333414 [kJ/mol]

    Dispersion                     -7.17027065 [mEh]      -4.49941276 [kcal/mol]     -18.82554301 [kJ/mol]
      Disp20                      -11.42449127 [mEh]      -7.16897650 [kcal/mol]     -29.99499768 [kJ/mol]
      Disp21                        1.89689364 [mEh]       1.19031873 [kcal/mol]       4.98029356 [kJ/mol]
      Disp22 (SDQ)                  0.08976261 [mEh]       0.05632689 [kcal/mol]       0.23567170 [kJ/mol]
      Disp22 (T)                   -1.04627827 [mEh]      -0.65654953 [kcal/mol]      -2.74700321 [kJ/mol]
      Est. Disp22 (T)              -1.12716397 [mEh]      -0.70730607 [kcal/mol]      -2.95936861 [kJ/mol]
      Exch-Disp20                   3.39472834 [mEh]       2.13022419 [kcal/mol]       8.91285803 [kJ/mol]

  Total HF                       -171.88909847 [mEh]    -107.86203773 [kcal/mol]    -451.29476586 [kJ/mol]
  Total SAPT0                    -179.91886140 [mEh]    -112.90079004 [kcal/mol]    -472.37690551 [kJ/mol]
  Total SAPT2                    -182.87661245 [mEh]    -114.75680684 [kcal/mol]    -480.14247983 [kJ/mol]
  Total SAPT2+                   -182.01712018 [mEh]    -114.21746730 [kcal/mol]    -477.88588318 [kJ/mol]

  Special recipe for scaled SAPT0 (see Manual):
    Electrostatics sSAPT0        -240.02682259 [mEh]    -150.61910514 [kcal/mol]    -630.19033590 [kJ/mol]
    Exchange sSAPT0                94.01882431 [mEh]      58.99770297 [kcal/mol]     246.84638921 [kJ/mol]
    Induction sSAPT0               -5.70149456 [mEh]      -3.57774185 [kcal/mol]     -14.96927191 [kJ/mol]
    Dispersion sSAPT0              -7.63384380 [mEh]      -4.79030931 [kcal/mol]     -20.04265414 [kJ/mol]
  Total sSAPT0                   -159.34333665 [mEh]     -99.98945333 [kcal/mol]    -418.35587274 [kJ/mol]
  --------------------------------------------------------------------------------------------------------

*** Psi4 exiting successfully. Buy a developer a beer!
