                               Psi4 1.9 release

  ==> Input File <==

--------------------------------------------------------------------------
MEMORY 60 GB

molecule dimer {
1 1
K      0.000000     0.000000     0.000000
--
-1 1
Cl     2.106837     0.000000     0.000000

units ang
no_reorient
no_com
symmetry c1
}

set {
basis        aug-cc-pVTZ
scf_type     df
}

energy("sapt2+")
--------------------------------------------------------------------------

  //              Dimer HF             //
    Molecular point group: c1
  Charge       = 0
  Multiplicity = 1
  Basis Set: AUG-CC-PVTZ
    Blend: AUG-CC-PVTZ
  Basis Set: (AUG-CC-PVTZ AUX)
    Blend: AUG-CC-PVTZ-JKFIT + DEF2-UNIVERSAL-JKFIT
  @DF-RHF Final Energy: -1058.68670480128685
    Total Energy =                      -1058.6867048012868509
 Dipole X            :        -70.7151255           67.6828637           -3.0322619
 Dipole Y            :          0.0000000            0.0000000            0.0000000
 Dipole Z            :          0.0000000            0.0000000            0.0000000
 Magnitude           :                                                    3.0322619
  //            Monomer A HF           //
    Molecular point group: c1
  Multiplicity = 1
  Basis Set: AUG-CC-PVTZ
    Blend: AUG-CC-PVTZ
  Basis Set: (AUG-CC-PVTZ AUX)
    Blend: AUG-CC-PVTZ-JKFIT + DEF2-UNIVERSAL-JKFIT
  @DF-RHF Final Energy:  -599.01750958772959
    Total Energy =                       -599.0175095877294780
  //            Monomer B HF           //
    Molecular point group: c1

    Geometry (in Angstrom), charge = -1, multiplicity = 1:

       Center              X                  Y                   Z               Mass
    ------------   -----------------  -----------------  -----------------  -----------------
      Gh(K)           0.000000000000     0.000000000000     0.000000000000    38.963706486400
         CL           2.106837000000     0.000000000000     0.000000000000    34.968852682000

  Charge       = -1
  Multiplicity = 1
  Basis Set: AUG-CC-PVTZ
    Blend: AUG-CC-PVTZ
  Basis Set: (AUG-CC-PVTZ AUX)
    Blend: AUG-CC-PVTZ-JKFIT + DEF2-UNIVERSAL-JKFIT

    Orbital Energies [Eh]
    ---------------------

    Doubly Occupied:

       1A   -104.506321     2A    -10.229835     3A     -7.695881
       4A     -7.695881     5A     -7.695867     6A     -0.733504
       7A     -0.150333     8A     -0.150331     9A     -0.150331

  @DF-RHF Final Energy:  -459.57350232326507

   => Energetics <=

    Nuclear Repulsion Energy =              0.0000000000000000
    One-Electron Energy =                -641.1304369903774614
    Two-Electron Energy =                 181.5569346671123867
    Total Energy =                       -459.5735023232650747
 Dipole X            :        -71.6650281           67.6828637           -3.9821645
 Dipole Y            :         -0.0000000            0.0000000           -0.0000000
 Dipole Z            :         -0.0000000            0.0000000           -0.0000000
 Magnitude           :                                                    3.9821645

    SAPT Results
  --------------------------------------------------------------------------------------------------------
    Electrostatics               -353.10447026 [mEh]    -221.57640032 [kcal/mol]    -927.07565894 [kJ/mol]
      Elst10,r                   -349.98920483 [mEh]    -219.62154175 [kcal/mol]    -918.89653070 [kJ/mol]
      Elst12,r                     -3.11526542 [mEh]      -1.95485857 [kcal/mol]      -8.17912824 [kJ/mol]

    Exchange                      302.49262216 [mEh]     189.81698615 [kcal/mol]     794.19427007 [kJ/mol]
      Exch10                      305.68276988 [mEh]     191.81883407 [kcal/mol]     802.57000175 [kJ/mol]
      Exch10(S^2)                 275.91564613 [mEh]     173.13968191 [kcal/mol]     724.41642910 [kJ/mol]
      Exch11(S^2)                  -6.84770765 [mEh]      -4.29700142 [kcal/mol]     -17.97865395 [kJ/mol]
      Exch12(S^2)                   3.65755993 [mEh]       2.29515351 [kcal/mol]       9.60292228 [kJ/mol]

    Induction                     -60.14302603 [mEh]     -37.74031861 [kcal/mol]    -157.90549308 [kJ/mol]
      Ind20,r                    -588.75070944 [mEh]    -369.44664787 [kcal/mol]   -1545.76477468 [kJ/mol]
      Ind22                       -40.94000740 [mEh]     -25.69024250 [kcal/mol]    -107.48797463 [kJ/mol]
      Exch-Ind20,r                462.82407841 [mEh]     290.42649390 [kcal/mol]    1215.14445046 [kJ/mol]
      Exch-Ind22                   32.18343671 [mEh]      20.19541144 [kcal/mol]      84.49760145 [kJ/mol]
      delta HF,r (2)               74.54017569 [mEh]      46.77466643 [kcal/mol]     195.70520432 [kJ/mol]

    Dispersion                    -15.99269403 [mEh]     -10.03556702 [kcal/mol]     -41.98881240 [kJ/mol]
      Disp20                      -27.69298467 [mEh]     -17.37761024 [kcal/mol]     -72.70792124 [kJ/mol]
      Disp21                        4.87508777 [mEh]       3.05916376 [kcal/mol]      12.79954117 [kJ/mol]
      Disp22 (SDQ)                  0.28264785 [mEh]       0.17736420 [kcal/mol]       0.74209182 [kJ/mol]
      Disp22 (T)                   -2.41490609 [mEh]      -1.51537645 [kcal/mol]      -6.34033507 [kJ/mol]
      Est. Disp22 (T)              -2.51874310 [mEh]      -1.58053516 [kcal/mol]      -6.61295911 [kJ/mol]
      Exch-Disp20                   9.06129813 [mEh]       5.68605042 [kcal/mol]      23.79043496 [kJ/mol]

  Total HF                        -95.69289029 [mEh]     -60.04819523 [kcal/mol]    -251.24164885 [kJ/mol]
  Total SAPT0                    -114.32457684 [mEh]     -71.73975505 [kcal/mol]    -300.15913513 [kJ/mol]
  Total SAPT2                    -129.38656067 [mEh]     -81.19129260 [kcal/mol]    -339.70436823 [kJ/mol]
  Total SAPT2+                   -126.74756816 [mEh]     -79.53529980 [kcal/mol]    -332.77569435 [kJ/mol]

  Special recipe for scaled SAPT0 (see Manual):
    Electrostatics sSAPT0        -349.98920483 [mEh]    -219.62154175 [kcal/mol]    -918.89653070 [kJ/mol]
    Exchange sSAPT0               305.68276988 [mEh]     191.81883407 [kcal/mol]     802.57000175 [kJ/mol]
    Induction sSAPT0              115.15048453 [mEh]      72.25801995 [kcal/mol]     302.32755547 [kJ/mol]
    Dispersion sSAPT0             -15.37118016 [mEh]      -9.64556117 [kcal/mol]     -40.35702796 [kJ/mol]
  Total sSAPT0                     55.47286941 [mEh]      34.80975109 [kcal/mol]     145.64399857 [kJ/mol]
  --------------------------------------------------------------------------------------------------------

*** Psi4 exiting successfully. Buy a developer a beer!
