                               Psi4 1.9 release

  ==> Input File <==

--------------------------------------------------------------------------
MEMORY 60 GB

molecule dimer {
1 1
K      0.000000     0.000000     0.000000
--
-1 1
Br     3.346440     0.000000     0.000000

units ang
no_reorient
no_com
symmetry c1
}

set {
basis        aug-cc-pVTZ
scf_type     df
}

energy("sapt2+")
--------------------------------------------------------------------------

  //              Dimer HF             //
    Molecular point group: c1
  Charge       = 0
  Multiplicity = 1
  Basis Set: AUG-CC-PVTZ
    Blend: AUG-CC-PVTZ
  Basis Set: (AUG-CC-PVTZ AUX)
    Blend: AUG-CC-PVTZ-JKFIT + DEF2-UNIVERSAL-JKFIT
  @DF-RHF Final Energy: -3171.71262476356924
    Total Energy =                      -3171.7126247635696927
 Dipole X            :       -226.7029815          221.3349283           -5.3680532
 Dipole Y            :         -0.0000000            0.0000000           -0.0000000
 Dipole Z            :          0.0000000            0.0000000            0.0000000
 Magnitude           :                                                    5.3680532
  //            Monomer A HF           //
    Molecular point group: c1
  Multiplicity = 1
  Basis Set: AUG-CC-PVTZ
    Blend: AUG-CC-PVTZ
  Basis Set: (AUG-CC-PVTZ AUX)
    Blend: AUG-CC-PVTZ-JKFIT + DEF2-UNIVERSAL-JKFIT
  @DF-RHF Final Energy:  -599.01750706820212
    Total Energy =                       -599.0175070682021214
  //            Monomer B HF           //
    Molecular point group: c1

    Geometry (in Angstrom), charge = -1, multiplicity = 1:

       Center              X                  Y                   Z               Mass
    ------------   -----------------  -----------------  -----------------  -----------------
      Gh(K)           0.000000000000     0.000000000000     0.000000000000    38.963706486400
         BR           3.346440000000     0.000000000000     0.000000000000    78.918337600000

  Charge       = -1
  Multiplicity = 1
  Basis Set: AUG-CC-PVTZ
    Blend: AUG-CC-PVTZ
  Basis Set: (AUG-CC-PVTZ AUX)
    Blend: AUG-CC-PVTZ-JKFIT + DEF2-UNIVERSAL-JKFIT

    Orbital Energies [Eh]
    ---------------------

    Doubly Occupied:

       1A   -489.720707     2A    -64.860691     3A    -58.215175
       4A    -58.215175     5A    -58.215174     6A     -9.532927
       7A     -7.140272     8A     -7.140272     9A     -7.140261
      10A     -2.881944    11A     -2.881944    12A     -2.881943
      13A     -2.881943    14A     -2.881942    15A     -0.686002
      16A     -0.139342    17A     -0.139340    18A     -0.139340

  @DF-RHF Final Energy: -2572.53367749996460

   => Energetics <=

    Nuclear Repulsion Energy =              0.0000000000000000
    One-Electron Energy =               -3593.6785654951881952
    Two-Electron Energy =                1021.1448879952237121
    Total Energy =                      -2572.5336774999645968
 Dipole X            :       -227.6592192          221.3349283           -6.3242908
 Dipole Y            :          0.0000000            0.0000000            0.0000000
 Dipole Z            :         -0.0000000            0.0000000           -0.0000000
 Magnitude           :                                                    6.3242908

    SAPT Results
  --------------------------------------------------------------------------------------------------------
    Electrostatics               -162.46185660 [mEh]    -101.94635414 [kcal/mol]    -426.54354573 [kJ/mol]
      Elst10,r                   -161.75957452 [mEh]    -101.50566548 [kcal/mol]    -424.69970439 [kJ/mol]
      Elst12,r                     -0.70228208 [mEh]      -0.44068866 [kcal/mol]      -1.84384134 [kJ/mol]

    Exchange                       14.14357648 [mEh]       8.87522823 [kcal/mol]      37.13395493 [kJ/mol]
      Exch10                       13.15364987 [mEh]       8.25403991 [kcal/mol]      34.53490297 [kJ/mol]
      Exch10(S^2)                  13.07356122 [mEh]       8.20378352 [kcal/mol]      34.32463025 [kJ/mol]
      Exch11(S^2)                  -0.02594505 [mEh]      -0.01628077 [kcal/mol]      -0.06811872 [kJ/mol]
      Exch12(S^2)                   1.01587166 [mEh]       0.63746909 [kcal/mol]       2.66717068 [kJ/mol]

    Induction                     -14.27212352 [mEh]      -8.95589272 [kcal/mol]     -37.47145513 [kJ/mol]
      Ind20,r                     -44.91406062 [mEh]     -28.18399854 [kcal/mol]    -117.92184991 [kJ/mol]
      Ind22                        -4.92404975 [mEh]      -3.08988787 [kcal/mol]     -12.92809083 [kJ/mol]
      Exch-Ind20,r                 31.79887910 [mEh]      19.95409789 [kcal/mol]      83.48794556 [kJ/mol]
      Exch-Ind22                    3.48619698 [mEh]       2.18762163 [kcal/mol]       9.15300891 [kJ/mol]
      delta HF,r (2)                0.28091077 [mEh]       0.17627417 [kcal/mol]       0.73753113 [kJ/mol]

    Dispersion                     -2.04055717 [mEh]      -1.28046896 [kcal/mol]      -5.35748211 [kJ/mol]
      Disp20                       -2.83817258 [mEh]      -1.78098018 [kcal/mol]      -7.45162107 [kJ/mol]
      Disp21                        0.50666304 [mEh]       0.31793585 [kcal/mol]       1.33024362 [kJ/mol]
      Disp22 (SDQ)                 -0.01192524 [mEh]      -0.00748320 [kcal/mol]      -0.03130971 [kJ/mol]
      Disp22 (T)                   -0.26430100 [mEh]      -0.16585138 [kcal/mol]      -0.69392219 [kJ/mol]
      Est. Disp22 (T)              -0.29366762 [mEh]      -0.18427921 [kcal/mol]      -0.77102423 [kJ/mol]
      Exch-Disp20                   0.59654523 [mEh]       0.37433778 [kcal/mol]       1.56622929 [kJ/mol]

  Total HF                       -161.44019540 [mEh]    -101.30525206 [kcal/mol]    -423.86117463 [kJ/mol]
  Total SAPT0                    -163.68182275 [mEh]    -102.71189446 [kcal/mol]    -429.74656642 [kJ/mol]
  Total SAPT2                    -164.83203098 [mEh]    -103.43366102 [kcal/mol]    -432.76643772 [kJ/mol]
  Total SAPT2+                   -164.63096080 [mEh]    -103.30748758 [kcal/mol]    -432.23852804 [kJ/mol]

  Special recipe for scaled SAPT0 (see Manual):
    Electrostatics sSAPT0        -161.75957452 [mEh]    -101.50566548 [kcal/mol]    -424.69970439 [kJ/mol]
    Exchange sSAPT0                13.15364987 [mEh]       8.25403991 [kcal/mol]      34.53490297 [kJ/mol]
    Induction sSAPT0              -12.24628351 [mEh]      -7.68465892 [kcal/mol]     -32.15261292 [kJ/mol]
    Dispersion sSAPT0              -2.23059674 [mEh]      -1.39972059 [kcal/mol]      -5.85643093 [kJ/mol]
  Total sSAPT0                   -163.08280490 [mEh]    -102.33600508 [kcal/mol]    -428.17384526 [kJ/mol]
  --------------------------------------------------------------------------------------------------------

*** Psi4 exiting successfully. Buy a developer a beer!
