                               Psi4 1.9 release

  ==> Input File <==

--------------------------------------------------------------------------
MEMORY 60 GB

molecule dimer {
1 1
K      0.000000     0.000000     0.000000
--
-1 1
Br     4.183050     0.000000     0.000000

units ang
no_reorient
no_com
symmetry c1
}

set {
basis        aug-cc-pVTZ
scf_type     df
}

energy("sapt2+")
--------------------------------------------------------------------------

  //              Dimer HF             //
    Molecular point group: c1
  Charge       = 0
  Multiplicity = 1
  Basis Set: AUG-CC-PVTZ
    Blend: AUG-CC-PVTZ
  Basis Set: (AUG-CC-PVTZ AUX)
    Blend: AUG-CC-PVTZ-JKFIT + DEF2-UNIVERSAL-JKFIT
  @DF-RHF Final Energy: -3171.68343689288622
    Total Energy =                      -3171.6834368928857657
 Dipole X            :       -283.7744458          276.6686604           -7.1057854
 Dipole Y            :          0.0000000            0.0000000            0.0000000
 Dipole Z            :         -0.0000000            0.0000000           -0.0000000
 Magnitude           :                                                    7.1057854
  //            Monomer A HF           //
    Molecular point group: c1
  Multiplicity = 1
  Basis Set: AUG-CC-PVTZ
    Blend: AUG-CC-PVTZ
  Basis Set: (AUG-CC-PVTZ AUX)
    Blend: AUG-CC-PVTZ-JKFIT + DEF2-UNIVERSAL-JKFIT
  @DF-RHF Final Energy:  -599.01750677340408
    Total Energy =                       -599.0175067734041932
  //            Monomer B HF           //
    Molecular point group: c1

    Geometry (in Angstrom), charge = -1, multiplicity = 1:

       Center              X                  Y                   Z               Mass
    ------------   -----------------  -----------------  -----------------  -----------------
      Gh(K)           0.000000000000     0.000000000000     0.000000000000    38.963706486400
         BR           4.183050000000     0.000000000000     0.000000000000    78.918337600000

  Charge       = -1
  Multiplicity = 1
  Basis Set: AUG-CC-PVTZ
    Blend: AUG-CC-PVTZ
  Basis Set: (AUG-CC-PVTZ AUX)
    Blend: AUG-CC-PVTZ-JKFIT + DEF2-UNIVERSAL-JKFIT

    Orbital Energies [Eh]
    ---------------------

    Doubly Occupied:

       1A   -489.720540     2A    -64.860578     3A    -58.215055
       4A    -58.215055     5A    -58.215055     6A     -9.532893
       7A     -7.140237     8A     -7.140237     9A     -7.140234
      10A     -2.881907    11A     -2.881907    12A     -2.881906
      13A     -2.881906    14A     -2.881902    15A     -0.686003
      16A     -0.139342    17A     -0.139340    18A     -0.139340

  @DF-RHF Final Energy: -2572.53367346941604

   => Energetics <=

    Nuclear Repulsion Energy =              0.0000000000000000
    One-Electron Energy =               -3593.6804684150797584
    Two-Electron Energy =                1021.1467949456633733
    Total Energy =                      -2572.5336734694164988
 Dipole X            :       -284.5737810          276.6686604           -7.9051206
 Dipole Y            :         -0.0000000            0.0000000           -0.0000000
 Dipole Z            :         -0.0000000            0.0000000           -0.0000000
 Magnitude           :                                                    7.9051206

    SAPT Results
  --------------------------------------------------------------------------------------------------------
    Electrostatics               -127.13414843 [mEh]     -79.77788258 [kcal/mol]    -333.79066072 [kJ/mol]
      Elst10,r                   -126.89037911 [mEh]     -79.62491502 [kcal/mol]    -333.15064446 [kJ/mol]
      Elst12,r                     -0.24376932 [mEh]      -0.15296756 [kcal/mol]      -0.64001626 [kJ/mol]

    Exchange                        1.70712388 [mEh]       1.07123641 [kcal/mol]       4.48205312 [kJ/mol]
      Exch10                        1.49742257 [mEh]       0.93964685 [kcal/mol]       3.93148241 [kJ/mol]
      Exch10(S^2)                   1.49629542 [mEh]       0.93893955 [kcal/mol]       3.92852308 [kJ/mol]
      Exch11(S^2)                   0.00271254 [mEh]       0.00170214 [kcal/mol]       0.00712177 [kJ/mol]
      Exch12(S^2)                   0.20698877 [mEh]       0.12988742 [kcal/mol]       0.54344895 [kJ/mol]

    Induction                      -7.63204423 [mEh]      -4.78918006 [kcal/mol]     -20.03792937 [kJ/mol]
      Ind20,r                     -10.71110140 [mEh]      -6.72131760 [kcal/mol]     -28.12199285 [kJ/mol]
      Ind22                        -1.26959137 [mEh]      -0.79668062 [kcal/mol]      -3.33331169 [kJ/mol]
      Exch-Ind20,r                  4.22879337 [mEh]       2.65360790 [kcal/mol]      11.10269546 [kJ/mol]
      Exch-Ind22                    0.50124066 [mEh]       0.31453327 [kcal/mol]       1.31600718 [kJ/mol]
      delta HF,r (2)               -0.38138549 [mEh]      -0.23932301 [kcal/mol]      -1.00132747 [kJ/mol]

    Dispersion                     -0.59463177 [mEh]      -0.37313707 [kcal/mol]      -1.56120549 [kJ/mol]
      Disp20                       -0.71235382 [mEh]      -0.44700877 [kcal/mol]      -1.87028471 [kJ/mol]
      Disp21                        0.13108010 [mEh]       0.08225400 [kcal/mol]       0.34415075 [kJ/mol]
      Disp22 (SDQ)                 -0.01166508 [mEh]      -0.00731995 [kcal/mol]      -0.03062667 [kJ/mol]
      Disp22 (T)                   -0.07293094 [mEh]      -0.04576486 [kcal/mol]      -0.19148016 [kJ/mol]
      Est. Disp22 (T)              -0.08002922 [mEh]      -0.05021910 [kcal/mol]      -0.21011670 [kJ/mol]
      Exch-Disp20                   0.07833626 [mEh]       0.04915675 [kcal/mol]       0.20567183 [kJ/mol]

  Total HF                       -132.25665007 [mEh]     -82.99230089 [kcal/mol]    -347.23978691 [kJ/mol]
  Total SAPT0                    -132.89066763 [mEh]     -83.39015291 [kcal/mol]    -348.90439979 [kJ/mol]
  Total SAPT2                    -133.69308635 [mEh]     -83.89367826 [kcal/mol]    -351.01114984 [kJ/mol]
  Total SAPT2+                   -133.65370055 [mEh]     -83.86896330 [kcal/mol]    -350.90774246 [kJ/mol]

  Special recipe for scaled SAPT0 (see Manual):
    Electrostatics sSAPT0        -126.89037911 [mEh]     -79.62491502 [kcal/mol]    -333.15064446 [kJ/mol]
    Exchange sSAPT0                 1.49742257 [mEh]       0.93964685 [kcal/mol]       3.93148241 [kJ/mol]
    Induction sSAPT0               -6.85412977 [mEh]      -4.30103137 [kcal/mol]     -17.99551524 [kJ/mol]
    Dispersion sSAPT0              -0.63384040 [mEh]      -0.39774085 [kcal/mol]      -1.66414774 [kJ/mol]
  Total sSAPT0                   -132.88092672 [mEh]     -83.38404040 [kcal/mol]    -348.87882503 [kJ/mol]
  --------------------------------------------------------------------------------------------------------

*** Psi4 exiting successfully. Buy a developer a beer!
