                               Psi4 1.9 release

  ==> Input File <==

--------------------------------------------------------------------------
MEMORY 60 GB

molecule dimer {
1 1
K      0.000000     0.000000     0.000000
--
-1 1
Br     3.904180     0.000000     0.000000

units ang
no_reorient
no_com
symmetry c1
}

set {
basis        aug-cc-pVTZ
scf_type     df
}

energy("sapt2+")
--------------------------------------------------------------------------

  //              Dimer HF             //
    Molecular point group: c1
  Charge       = 0
  Multiplicity = 1
  Basis Set: AUG-CC-PVTZ
    Blend: AUG-CC-PVTZ
  Basis Set: (AUG-CC-PVTZ AUX)
    Blend: AUG-CC-PVTZ-JKFIT + DEF2-UNIVERSAL-JKFIT
  @DF-RHF Final Energy: -3171.69291829873328
    Total Energy =                      -3171.6929182987332752
 Dipole X            :       -264.7412549          258.2240831           -6.5171718
 Dipole Y            :          0.0000000            0.0000000            0.0000000
 Dipole Z            :         -0.0000000            0.0000000           -0.0000000
 Magnitude           :                                                    6.5171718
  //            Monomer A HF           //
    Molecular point group: c1
  Multiplicity = 1
  Basis Set: AUG-CC-PVTZ
    Blend: AUG-CC-PVTZ
  Basis Set: (AUG-CC-PVTZ AUX)
    Blend: AUG-CC-PVTZ-JKFIT + DEF2-UNIVERSAL-JKFIT
  @DF-RHF Final Energy:  -599.01750690514893
    Total Energy =                       -599.0175069051488208
  //            Monomer B HF           //
    Molecular point group: c1

    Geometry (in Angstrom), charge = -1, multiplicity = 1:

       Center              X                  Y                   Z               Mass
    ------------   -----------------  -----------------  -----------------  -----------------
      Gh(K)           0.000000000000     0.000000000000     0.000000000000    38.963706486400
         BR           3.904180000000     0.000000000000     0.000000000000    78.918337600000

  Charge       = -1
  Multiplicity = 1
  Basis Set: AUG-CC-PVTZ
    Blend: AUG-CC-PVTZ
  Basis Set: (AUG-CC-PVTZ AUX)
    Blend: AUG-CC-PVTZ-JKFIT + DEF2-UNIVERSAL-JKFIT

    Orbital Energies [Eh]
    ---------------------

    Doubly Occupied:

       1A   -489.720585     2A    -64.860610     3A    -58.215088
       4A    -58.215088     5A    -58.215087     6A     -9.532903
       7A     -7.140247     8A     -7.140247     9A     -7.140242
      10A     -2.881917    11A     -2.881917    12A     -2.881916
      13A     -2.881916    14A     -2.881912    15A     -0.686002
      16A     -0.139342    17A     -0.139340    18A     -0.139340

  @DF-RHF Final Energy: -2572.53367471996808

   => Energetics <=

    Nuclear Repulsion Energy =              0.0000000000000000
    One-Electron Energy =               -3593.6799464438927316
    Two-Electron Energy =                1021.1462717239247695
    Total Energy =                      -2572.5336747199680758
 Dipole X            :       -265.6022078          258.2240831           -7.3781247
 Dipole Y            :          0.0000000            0.0000000            0.0000000
 Dipole Z            :         -0.0000000            0.0000000           -0.0000000
 Magnitude           :                                                    7.3781247

    SAPT Results
  --------------------------------------------------------------------------------------------------------
    Electrostatics               -136.67819634 [mEh]     -85.76686306 [kcal/mol]    -358.84855506 [kJ/mol]
      Elst10,r                   -136.34866158 [mEh]     -85.56007688 [kcal/mol]    -357.98336165 [kJ/mol]
      Elst12,r                     -0.32953477 [mEh]      -0.20678619 [kcal/mol]      -0.86519341 [kJ/mol]

    Exchange                        3.41688359 [mEh]       2.14412682 [kcal/mol]       8.97102664 [kJ/mol]
      Exch10                        3.05318333 [mEh]       1.91590146 [kcal/mol]       8.01613173 [kJ/mol]
      Exch10(S^2)                   3.04857703 [mEh]       1.91301097 [kcal/mol]       8.00403790 [kJ/mol]
      Exch11(S^2)                   0.00403604 [mEh]       0.00253265 [kcal/mol]       0.01059662 [kJ/mol]
      Exch12(S^2)                   0.35966422 [mEh]       0.22569271 [kcal/mol]       0.94429829 [kJ/mol]

    Induction                      -9.41490284 [mEh]      -5.90794073 [kcal/mol]     -24.71882401 [kJ/mol]
      Ind20,r                     -16.45725651 [mEh]     -10.32708438 [kcal/mol]     -43.20852103 [kJ/mol]
      Ind22                        -1.95042102 [mEh]      -1.22390767 [kcal/mol]      -5.12082968 [kJ/mol]
      Exch-Ind20,r                  8.24131057 [mEh]       5.17150046 [kcal/mol]      21.63755792 [kJ/mol]
      Exch-Ind22                    0.97671354 [mEh]       0.61289700 [kcal/mol]       2.56436106 [kJ/mol]
      delta HF,r (2)               -0.22524942 [mEh]      -0.14134615 [kcal/mol]      -0.59139228 [kJ/mol]

    Dispersion                     -0.88960783 [mEh]      -0.55823734 [kcal/mol]      -2.33566502 [kJ/mol]
      Disp20                       -1.10727298 [mEh]      -0.69482429 [kcal/mol]      -2.90714482 [kJ/mol]
      Disp21                        0.19990504 [mEh]       0.12544231 [kcal/mol]       0.52485061 [kJ/mol]
      Disp22 (SDQ)                 -0.01436532 [mEh]      -0.00901437 [kcal/mol]      -0.03771613 [kJ/mol]
      Disp22 (T)                   -0.10973461 [mEh]      -0.06885951 [kcal/mol]      -0.28810819 [kJ/mol]
      Est. Disp22 (T)              -0.12176371 [mEh]      -0.07640788 [kcal/mol]      -0.31969058 [kJ/mol]
      Exch-Disp20                   0.15388914 [mEh]       0.09656689 [kcal/mol]       0.40403589 [kJ/mol]

  Total HF                       -141.73667362 [mEh]     -88.94110548 [kcal/mol]    -372.12958531 [kJ/mol]
  Total SAPT0                    -142.69005746 [mEh]     -89.53936287 [kcal/mol]    -374.63269424 [kJ/mol]
  Total SAPT2                    -143.62959943 [mEh]     -90.12893436 [kcal/mol]    -377.09946136 [kJ/mol]
  Total SAPT2+                   -143.56582342 [mEh]     -90.08891431 [kcal/mol]    -376.93201745 [kJ/mol]

  Special recipe for scaled SAPT0 (see Manual):
    Electrostatics sSAPT0        -136.34866158 [mEh]     -85.56007688 [kcal/mol]    -357.98336165 [kJ/mol]
    Exchange sSAPT0                 3.05318333 [mEh]       1.91590146 [kcal/mol]       8.01613173 [kJ/mol]
    Induction sSAPT0               -8.40378187 [mEh]      -5.27345274 [kcal/mol]     -22.06412625 [kJ/mol]
    Dispersion sSAPT0              -0.95268522 [mEh]      -0.59781900 [kcal/mol]      -2.50127470 [kJ/mol]
  Total sSAPT0                   -142.65194533 [mEh]     -89.51544715 [kcal/mol]    -374.53263087 [kJ/mol]
  --------------------------------------------------------------------------------------------------------

*** Psi4 exiting successfully. Buy a developer a beer!
