                               Psi4 1.9 release

  ==> Input File <==

--------------------------------------------------------------------------
MEMORY 60 GB

molecule dimer {
1 1
K      0.000000     0.000000     0.000000
--
-1 1
Br     5.577400     0.000000     0.000000

units ang
no_reorient
no_com
symmetry c1
}

set {
basis        aug-cc-pVTZ
scf_type     df
}

energy("sapt2+")
--------------------------------------------------------------------------

  //              Dimer HF             //
    Molecular point group: c1
  Charge       = 0
  Multiplicity = 1
  Basis Set: AUG-CC-PVTZ
    Blend: AUG-CC-PVTZ
  Basis Set: (AUG-CC-PVTZ AUX)
    Blend: AUG-CC-PVTZ-JKFIT + DEF2-UNIVERSAL-JKFIT
  @DF-RHF Final Energy: -3171.64836642293585
    Total Energy =                      -3171.6483664229358510
 Dipole X            :       -378.9427127          368.8915472          -10.0511655
 Dipole Y            :          0.0000000            0.0000000            0.0000000
 Dipole Z            :         -0.0000000            0.0000000           -0.0000000
 Magnitude           :                                                   10.0511655
  //            Monomer A HF           //
    Molecular point group: c1
  Multiplicity = 1
  Basis Set: AUG-CC-PVTZ
    Blend: AUG-CC-PVTZ
  Basis Set: (AUG-CC-PVTZ AUX)
    Blend: AUG-CC-PVTZ-JKFIT + DEF2-UNIVERSAL-JKFIT
  @DF-RHF Final Energy:  -599.01750597839589
    Total Energy =                       -599.0175059783958886
  //            Monomer B HF           //
    Molecular point group: c1

    Geometry (in Angstrom), charge = -1, multiplicity = 1:

       Center              X                  Y                   Z               Mass
    ------------   -----------------  -----------------  -----------------  -----------------
      Gh(K)           0.000000000000     0.000000000000     0.000000000000    38.963706486400
         BR           5.577400000000     0.000000000000     0.000000000000    78.918337600000

  Charge       = -1
  Multiplicity = 1
  Basis Set: AUG-CC-PVTZ
    Blend: AUG-CC-PVTZ
  Basis Set: (AUG-CC-PVTZ AUX)
    Blend: AUG-CC-PVTZ-JKFIT + DEF2-UNIVERSAL-JKFIT

    Orbital Energies [Eh]
    ---------------------

    Doubly Occupied:

       1A   -489.720418     2A    -64.860489     3A    -58.214962
       4A    -58.214962     5A    -58.214960     6A     -9.532865
       7A     -7.140209     8A     -7.140209     9A     -7.140207
      10A     -2.881877    11A     -2.881877    12A     -2.881875
      13A     -2.881875    14A     -2.881873    15A     -0.686004
      16A     -0.139342    17A     -0.139342    18A     -0.139342

  @DF-RHF Final Energy: -2572.53366946727010

   => Energetics <=

    Nuclear Repulsion Energy =              0.0000000000000000
    One-Electron Energy =               -3593.6819612757249160
    Two-Electron Energy =                1021.1482918084547009
    Total Energy =                      -2572.5336694672701014
 Dipole X            :       -379.4314759          368.8915472          -10.5399287
 Dipole Y            :         -0.0000000            0.0000000           -0.0000000
 Dipole Z            :         -0.0000000            0.0000000           -0.0000000
 Magnitude           :                                                   10.5399287

    SAPT Results
  --------------------------------------------------------------------------------------------------------
    Electrostatics                -94.95783282 [mEh]     -59.58693970 [kcal/mol]    -249.31175571 [kJ/mol]
      Elst10,r                    -94.89706975 [mEh]     -59.54881030 [kcal/mol]    -249.15222230 [kJ/mol]
      Elst12,r                     -0.06076307 [mEh]      -0.03812940 [kcal/mol]      -0.15953342 [kJ/mol]

    Exchange                        0.06140686 [mEh]       0.03853339 [kcal/mol]       0.16122368 [kJ/mol]
      Exch10                        0.04965825 [mEh]       0.03116102 [kcal/mol]       0.13037773 [kJ/mol]
      Exch10(S^2)                   0.04965697 [mEh]       0.03116022 [kcal/mol]       0.13037436 [kJ/mol]
      Exch11(S^2)                   0.00002917 [mEh]       0.00001830 [kcal/mol]       0.00007659 [kJ/mol]
      Exch12(S^2)                   0.01171943 [mEh]       0.00735406 [kcal/mol]       0.03076937 [kJ/mol]

    Induction                      -2.54846767 [mEh]      -1.59918761 [kcal/mol]      -6.69100096 [kJ/mol]
      Ind20,r                      -2.23655589 [mEh]      -1.40346001 [kcal/mol]      -5.87207668 [kJ/mol]
      Ind22                        -0.22149047 [mEh]      -0.13898737 [kcal/mol]      -0.58152314 [kJ/mol]
      Exch-Ind20,r                  0.16750725 [mEh]       0.10511239 [kcal/mol]       0.43979023 [kJ/mol]
      Exch-Ind22                    0.01658857 [mEh]       0.01040948 [kcal/mol]       0.04355328 [kJ/mol]
      delta HF,r (2)               -0.27451714 [mEh]      -0.17226211 [kcal/mol]      -0.72074465 [kJ/mol]

    Dispersion                     -0.09173766 [mEh]      -0.05756625 [kcal/mol]      -0.24085719 [kJ/mol]
      Disp20                       -0.10311575 [mEh]      -0.06470611 [kcal/mol]      -0.27073035 [kJ/mol]
      Disp21                        0.02284119 [mEh]       0.01433306 [kcal/mol]       0.05996954 [kJ/mol]
      Disp22 (SDQ)                 -0.00243149 [mEh]      -0.00152578 [kcal/mol]      -0.00638387 [kJ/mol]
      Disp22 (T)                   -0.01112900 [mEh]      -0.00698355 [kcal/mol]      -0.02921918 [kJ/mol]
      Est. Disp22 (T)              -0.01186793 [mEh]      -0.00744724 [kcal/mol]      -0.03115926 [kJ/mol]
      Exch-Disp20                   0.00283632 [mEh]       0.00177982 [kcal/mol]       0.00744675 [kJ/mol]

  Total HF                        -97.19097727 [mEh]     -60.98825900 [kcal/mol]    -255.17487567 [kJ/mol]
  Total SAPT0                     -97.29125670 [mEh]     -61.05118529 [kcal/mol]    -255.43815927 [kJ/mol]
  Total SAPT2                     -97.54517306 [mEh]     -61.21052022 [kcal/mol]    -256.10481659 [kJ/mol]
  Total SAPT2+                    -97.53663129 [mEh]     -61.20516018 [kcal/mol]    -256.08239018 [kJ/mol]

  Special recipe for scaled SAPT0 (see Manual):
    Electrostatics sSAPT0         -94.89706975 [mEh]     -59.54881030 [kcal/mol]    -249.15222230 [kJ/mol]
    Exchange sSAPT0                 0.04965825 [mEh]       0.03116102 [kcal/mol]       0.13037773 [kJ/mol]
    Induction sSAPT0               -2.34355279 [mEh]      -1.47060158 [kcal/mol]      -6.15299700 [kJ/mol]
    Dispersion sSAPT0              -0.10027921 [mEh]      -0.06292615 [kcal/mol]      -0.26328303 [kJ/mol]
  Total sSAPT0                    -97.29124349 [mEh]     -61.05117701 [kcal/mol]    -255.43812460 [kJ/mol]
  --------------------------------------------------------------------------------------------------------

*** Psi4 exiting successfully. Buy a developer a beer!
