                               Psi4 1.9 release

  ==> Input File <==

--------------------------------------------------------------------------
MEMORY 60 GB

molecule dimer {
1 1
K      0.000000     0.000000     0.000000
--
-1 1
Br     2.230960     0.000000     0.000000

units ang
no_reorient
no_com
symmetry c1
}

set {
basis        aug-cc-pVTZ
scf_type     df
}

energy("sapt2+")
--------------------------------------------------------------------------

  //              Dimer HF             //
    Molecular point group: c1
  Charge       = 0
  Multiplicity = 1
  Basis Set: AUG-CC-PVTZ
    Blend: AUG-CC-PVTZ
  Basis Set: (AUG-CC-PVTZ AUX)
    Blend: AUG-CC-PVTZ-JKFIT + DEF2-UNIVERSAL-JKFIT
  @DF-RHF Final Energy: -3171.63885748453640
    Total Energy =                      -3171.6388574845364019
 Dipole X            :       -150.7884294          147.5566189           -3.2318105
 Dipole Y            :          0.0000000            0.0000000            0.0000000
 Dipole Z            :          0.0000000            0.0000000            0.0000000
 Magnitude           :                                                    3.2318105
  //            Monomer A HF           //
    Molecular point group: c1
  Multiplicity = 1
  Basis Set: AUG-CC-PVTZ
    Blend: AUG-CC-PVTZ
  Basis Set: (AUG-CC-PVTZ AUX)
    Blend: AUG-CC-PVTZ-JKFIT + DEF2-UNIVERSAL-JKFIT
  @DF-RHF Final Energy:  -599.01750922339261
    Total Energy =                       -599.0175092233927217
  //            Monomer B HF           //
    Molecular point group: c1

    Geometry (in Angstrom), charge = -1, multiplicity = 1:

       Center              X                  Y                   Z               Mass
    ------------   -----------------  -----------------  -----------------  -----------------
      Gh(K)           0.000000000000     0.000000000000     0.000000000000    38.963706486400
         BR           2.230960000000     0.000000000000     0.000000000000    78.918337600000

  Charge       = -1
  Multiplicity = 1
  Basis Set: AUG-CC-PVTZ
    Blend: AUG-CC-PVTZ
  Basis Set: (AUG-CC-PVTZ AUX)
    Blend: AUG-CC-PVTZ-JKFIT + DEF2-UNIVERSAL-JKFIT

    Orbital Energies [Eh]
    ---------------------

    Doubly Occupied:

       1A   -489.720905     2A    -64.860840     3A    -58.215331
       4A    -58.215331     5A    -58.215329     6A     -9.532978
       7A     -7.140322     8A     -7.140322     9A     -7.140314
      10A     -2.882002    11A     -2.882002    12A     -2.881994
      13A     -2.881994    14A     -2.881991    15A     -0.686001
      16A     -0.139343    17A     -0.139343    18A     -0.139337

  @DF-RHF Final Energy: -2572.53368401940725

   => Energetics <=

    Nuclear Repulsion Energy =              0.0000000000000000
    One-Electron Energy =               -3593.6760096630873704
    Two-Electron Energy =                1021.1423256436802376
    Total Energy =                      -2572.5336840194072465
 Dipole X            :       -151.7730048          147.5566189           -4.2163859
 Dipole Y            :          0.0000000            0.0000000            0.0000000
 Dipole Z            :         -0.0000000            0.0000000           -0.0000000
 Magnitude           :                                                    4.2163859

    SAPT Results
  --------------------------------------------------------------------------------------------------------
    Electrostatics               -332.34724260 [mEh]    -208.55104331 [kcal/mol]    -872.57756522 [kJ/mol]
      Elst10,r                   -329.84741009 [mEh]    -206.98237473 [kcal/mol]    -866.01425589 [kJ/mol]
      Elst12,r                     -2.49983250 [mEh]      -1.56866858 [kcal/mol]      -6.56330933 [kJ/mol]

    Exchange                      285.31689369 [mEh]     179.03905382 [kcal/mol]     749.09940119 [kJ/mol]
      Exch10                      289.04553509 [mEh]     181.37881162 [kcal/mol]     758.88894783 [kJ/mol]
      Exch10(S^2)                 261.81518315 [mEh]     164.29150780 [kcal/mol]     687.39566865 [kJ/mol]
      Exch11(S^2)                  -7.54476269 [mEh]      -4.73441007 [kcal/mol]     -19.80877172 [kJ/mol]
      Exch12(S^2)                   3.81612130 [mEh]       2.39465227 [kcal/mol]      10.01922509 [kJ/mol]

    Induction                     -54.92403558 [mEh]     -34.46535266 [kcal/mol]    -144.20303555 [kJ/mol]
      Ind20,r                    -612.86339426 [mEh]    -384.57758603 [kcal/mol]   -1609.07261994 [kJ/mol]
      Ind22                       -39.77514810 [mEh]     -24.95928225 [kcal/mol]    -104.42963694 [kJ/mol]
      Exch-Ind20,r                488.64759696 [mEh]     306.63099643 [kcal/mol]    1282.94408906 [kJ/mol]
      Exch-Ind22                   31.71347925 [mEh]      19.90050867 [kcal/mol]      83.26372829 [kJ/mol]
      delta HF,r (2)               77.35343057 [mEh]      48.54001051 [kcal/mol]     203.09140398 [kJ/mol]

    Dispersion                    -14.72964612 [mEh]      -9.24299249 [kcal/mol]     -38.67268057 [kJ/mol]
      Disp20                      -26.28574887 [mEh]     -16.49455644 [kcal/mol]     -69.01322414 [kJ/mol]
      Disp21                        4.74482218 [mEh]       2.97742087 [kcal/mol]      12.45752893 [kJ/mol]
      Disp22 (SDQ)                  0.19642263 [mEh]       0.12325706 [kcal/mol]       0.51570755 [kJ/mol]
      Disp22 (T)                   -2.18467183 [mEh]      -1.37090227 [kcal/mol]      -5.73585509 [kJ/mol]
      Est. Disp22 (T)              -2.27956714 [mEh]      -1.43044997 [kcal/mol]      -5.98500269 [kJ/mol]
      Exch-Disp20                   8.89442506 [mEh]       5.58133599 [kcal/mol]      23.35230979 [kJ/mol]

  Total HF                        -87.66424174 [mEh]     -55.01014220 [kcal/mol]    -230.16243497 [kJ/mol]
  Total SAPT0                    -105.05556554 [mEh]     -65.92336265 [kcal/mol]    -275.82334932 [kJ/mol]
  Total SAPT2                    -119.34570829 [mEh]     -74.89056260 [kcal/mol]    -313.34211394 [kJ/mol]
  Total SAPT2+                   -116.68403061 [mEh]     -73.22033464 [kcal/mol]    -306.35388015 [kJ/mol]

  Special recipe for scaled SAPT0 (see Manual):
    Electrostatics sSAPT0        -329.84741009 [mEh]    -206.98237473 [kcal/mol]    -866.01425589 [kJ/mol]
    Exchange sSAPT0               289.04553509 [mEh]     181.37881162 [kcal/mol]     758.88894783 [kJ/mol]
    Induction sSAPT0              122.01171687 [mEh]      76.56350825 [kcal/mol]     320.34171850 [kJ/mol]
    Dispersion sSAPT0             -14.31745648 [mEh]      -8.98433958 [kcal/mol]     -37.59047680 [kJ/mol]
  Total sSAPT0                     66.89238538 [mEh]      41.97560555 [kcal/mol]     175.62593363 [kJ/mol]
  --------------------------------------------------------------------------------------------------------

*** Psi4 exiting successfully. Buy a developer a beer!
