                               Psi4 1.9 release

  ==> Input File <==

--------------------------------------------------------------------------
MEMORY 60 GB

molecule dimer {
1 1
K      0.000000     0.000000     0.000000
--
-1 1
Br     3.625310     0.000000     0.000000

units ang
no_reorient
no_com
symmetry c1
}

set {
basis        aug-cc-pVTZ
scf_type     df
}

energy("sapt2+")
--------------------------------------------------------------------------

  //              Dimer HF             //
    Molecular point group: c1
  Charge       = 0
  Multiplicity = 1
  Basis Set: AUG-CC-PVTZ
    Blend: AUG-CC-PVTZ
  Basis Set: (AUG-CC-PVTZ AUX)
    Blend: AUG-CC-PVTZ-JKFIT + DEF2-UNIVERSAL-JKFIT
  @DF-RHF Final Energy: -3171.70292355959964
    Total Energy =                      -3171.7029235595991850
 Dipole X            :       -245.7161390          239.7795057           -5.9366333
 Dipole Y            :         -0.0000000            0.0000000           -0.0000000
 Dipole Z            :          0.0000000            0.0000000            0.0000000
 Magnitude           :                                                    5.9366333
  //            Monomer A HF           //
    Molecular point group: c1
  Multiplicity = 1
  Basis Set: AUG-CC-PVTZ
    Blend: AUG-CC-PVTZ
  Basis Set: (AUG-CC-PVTZ AUX)
    Blend: AUG-CC-PVTZ-JKFIT + DEF2-UNIVERSAL-JKFIT
  @DF-RHF Final Energy:  -599.01750696243539
    Total Energy =                       -599.0175069624353910
  //            Monomer B HF           //
    Molecular point group: c1

    Geometry (in Angstrom), charge = -1, multiplicity = 1:

       Center              X                  Y                   Z               Mass
    ------------   -----------------  -----------------  -----------------  -----------------
      Gh(K)           0.000000000000     0.000000000000     0.000000000000    38.963706486400
         BR           3.625310000000     0.000000000000     0.000000000000    78.918337600000

  Charge       = -1
  Multiplicity = 1
  Basis Set: AUG-CC-PVTZ
    Blend: AUG-CC-PVTZ
  Basis Set: (AUG-CC-PVTZ AUX)
    Blend: AUG-CC-PVTZ-JKFIT + DEF2-UNIVERSAL-JKFIT

    Orbital Energies [Eh]
    ---------------------

    Doubly Occupied:

       1A   -489.720643     2A    -64.860649     3A    -58.215130
       4A    -58.215130     5A    -58.215129     6A     -9.532915
       7A     -7.140259     8A     -7.140259     9A     -7.140251
      10A     -2.881930    11A     -2.881930    12A     -2.881929
      13A     -2.881929    14A     -2.881927    15A     -0.686002
      16A     -0.139342    17A     -0.139340    18A     -0.139340

  @DF-RHF Final Energy: -2572.53367610550549

   => Energetics <=

    Nuclear Repulsion Energy =              0.0000000000000000
    One-Electron Energy =               -3593.6792781600920534
    Two-Electron Energy =                1021.1456020545865613
    Total Energy =                      -2572.5336761055054922
 Dipole X            :       -246.6306737          239.7795057           -6.8511680
 Dipole Y            :          0.0000000            0.0000000            0.0000000
 Dipole Z            :         -0.0000000            0.0000000           -0.0000000
 Magnitude           :                                                    6.8511680

    SAPT Results
  --------------------------------------------------------------------------------------------------------
    Electrostatics               -148.13625920 [mEh]     -92.95690606 [kcal/mol]    -388.93169496 [kJ/mol]
      Elst10,r                   -147.66662228 [mEh]     -92.66220444 [kcal/mol]    -387.69866338 [kJ/mol]
      Elst12,r                     -0.46963693 [mEh]      -0.29470162 [kcal/mol]      -1.23303158 [kJ/mol]

    Exchange                        6.91190678 [mEh]       4.33728699 [kcal/mol]      18.14720875 [kJ/mol]
      Exch10                        6.29747651 [mEh]       3.95172617 [kcal/mol]      16.53402230 [kJ/mol]
      Exch10(S^2)                   6.27839373 [mEh]       3.93975154 [kcal/mol]      16.48392046 [kJ/mol]
      Exch11(S^2)                   0.00110769 [mEh]       0.00069508 [kcal/mol]       0.00290823 [kJ/mol]
      Exch12(S^2)                   0.61332258 [mEh]       0.38486573 [kcal/mol]       1.61027823 [kJ/mol]

    Induction                     -11.57109456 [mEh]      -7.26097146 [kcal/mol]     -30.37990457 [kJ/mol]
      Ind20,r                     -26.52469535 [mEh]     -16.64449762 [kcal/mol]     -69.64057805 [kJ/mol]
      Ind22                        -3.06625350 [mEh]      -1.92410312 [kcal/mol]      -8.05044745 [kJ/mol]
      Exch-Ind20,r                 16.14624232 [mEh]      10.13192002 [kcal/mol]      42.39195337 [kJ/mol]
      Exch-Ind22                    1.86650483 [mEh]       1.17124946 [kcal/mol]       4.90050776 [kJ/mol]
      delta HF,r (2)                0.00710714 [mEh]       0.00445980 [kcal/mol]       0.01865980 [kJ/mol]

    Dispersion                     -1.33815057 [mEh]      -0.83970216 [kcal/mol]      -3.51331383 [kJ/mol]
      Disp20                       -1.75166002 [mEh]      -1.09918325 [kcal/mol]      -4.59898274 [kJ/mol]
      Disp21                        0.31399380 [mEh]       0.19703408 [kcal/mol]       0.82439061 [kJ/mol]
      Disp22 (SDQ)                 -0.01546300 [mEh]      -0.00970318 [kcal/mol]      -0.04059809 [kJ/mol]
      Disp22 (T)                   -0.16885527 [mEh]      -0.10595828 [kcal/mol]      -0.44332944 [kJ/mol]
      Est. Disp22 (T)              -0.18753657 [mEh]      -0.11768098 [kcal/mol]      -0.49237720 [kJ/mol]
      Exch-Disp20                   0.30251522 [mEh]       0.18983117 [kcal/mol]       0.79425359 [kJ/mol]

  Total HF                       -151.74049166 [mEh]     -95.21859607 [kcal/mol]    -398.39460596 [kJ/mol]
  Total SAPT0                    -153.18963646 [mEh]     -96.12794816 [kcal/mol]    -402.19933511 [kJ/mol]
  Total SAPT2                    -154.24459178 [mEh]     -96.78994262 [kcal/mol]    -404.96911992 [kJ/mol]
  Total SAPT2+                   -154.13359755 [mEh]     -96.72029269 [kcal/mol]    -404.67770461 [kJ/mol]

  Special recipe for scaled SAPT0 (see Manual):
    Electrostatics sSAPT0        -147.66662228 [mEh]     -92.66220444 [kcal/mol]    -387.69866338 [kJ/mol]
    Exchange sSAPT0                 6.29747651 [mEh]       3.95172617 [kcal/mol]      16.53402230 [kJ/mol]
    Induction sSAPT0              -10.22367148 [mEh]      -6.41545071 [kcal/mol]     -26.84224577 [kJ/mol]
    Dispersion sSAPT0              -1.44637798 [mEh]      -0.90761588 [kcal/mol]      -3.79746486 [kJ/mol]
  Total sSAPT0                   -153.03919523 [mEh]     -96.03354486 [kcal/mol]    -401.80435171 [kJ/mol]
  --------------------------------------------------------------------------------------------------------

*** Psi4 exiting successfully. Buy a developer a beer!
