                               Psi4 1.9 release

  ==> Input File <==

--------------------------------------------------------------------------
MEMORY 60 GB

molecule dimer {
1 1
K      0.000000     0.000000     0.000000
--
-1 1
Br     2.509830     0.000000     0.000000

units ang
no_reorient
no_com
symmetry c1
}

set {
basis        aug-cc-pVTZ
scf_type     df
}

energy("sapt2+")
--------------------------------------------------------------------------

  //              Dimer HF             //
    Molecular point group: c1
  Charge       = 0
  Multiplicity = 1
  Basis Set: AUG-CC-PVTZ
    Blend: AUG-CC-PVTZ
  Basis Set: (AUG-CC-PVTZ AUX)
    Blend: AUG-CC-PVTZ-JKFIT + DEF2-UNIVERSAL-JKFIT
  @DF-RHF Final Energy: -3171.70162792470910
    Total Energy =                      -3171.7016279247091006
 Dipole X            :       -169.7467947          166.0011963           -3.7455985
 Dipole Y            :         -0.0000000            0.0000000           -0.0000000
 Dipole Z            :         -0.0000000            0.0000000           -0.0000000
 Magnitude           :                                                    3.7455985
  //            Monomer A HF           //
    Molecular point group: c1
  Multiplicity = 1
  Basis Set: AUG-CC-PVTZ
    Blend: AUG-CC-PVTZ
  Basis Set: (AUG-CC-PVTZ AUX)
    Blend: AUG-CC-PVTZ-JKFIT + DEF2-UNIVERSAL-JKFIT
  @DF-RHF Final Energy:  -599.01750836995097
    Total Energy =                       -599.0175083699509742
  //            Monomer B HF           //
    Molecular point group: c1

    Geometry (in Angstrom), charge = -1, multiplicity = 1:

       Center              X                  Y                   Z               Mass
    ------------   -----------------  -----------------  -----------------  -----------------
      Gh(K)           0.000000000000     0.000000000000     0.000000000000    38.963706486400
         BR           2.509830000000     0.000000000000     0.000000000000    78.918337600000

  Charge       = -1
  Multiplicity = 1
  Basis Set: AUG-CC-PVTZ
    Blend: AUG-CC-PVTZ
  Basis Set: (AUG-CC-PVTZ AUX)
    Blend: AUG-CC-PVTZ-JKFIT + DEF2-UNIVERSAL-JKFIT

    Orbital Energies [Eh]
    ---------------------

    Doubly Occupied:

       1A   -489.720804     2A    -64.860766     3A    -58.215254
       4A    -58.215254     5A    -58.215252     6A     -9.532951
       7A     -7.140295     8A     -7.140295     9A     -7.140289
      10A     -2.881974    11A     -2.881974    12A     -2.881966
      13A     -2.881965    14A     -2.881965    15A     -0.686000
      16A     -0.139340    17A     -0.139340    18A     -0.139339

  @DF-RHF Final Energy: -2572.53368190132232

   => Energetics <=

    Nuclear Repulsion Energy =              0.0000000000000000
    One-Electron Energy =               -3593.6773155218384090
    Two-Electron Energy =                1021.1436336205158568
    Total Energy =                      -2572.5336819013227796
 Dipole X            :       -170.7449333          166.0011963           -4.7437371
 Dipole Y            :          0.0000000            0.0000000            0.0000000
 Dipole Z            :          0.0000000            0.0000000            0.0000000
 Magnitude           :                                                    4.7437371

    SAPT Results
  --------------------------------------------------------------------------------------------------------
    Electrostatics               -253.08679075 [mEh]    -158.81435888 [kcal/mol]    -664.47927757 [kJ/mol]
      Elst10,r                   -251.00995009 [mEh]    -157.51112170 [kcal/mol]    -659.02653317 [kJ/mol]
      Elst12,r                     -2.07684066 [mEh]      -1.30323719 [kcal/mol]      -5.45274440 [kJ/mol]

    Exchange                      132.02653566 [mEh]      82.84790192 [kcal/mol]     346.63562163 [kJ/mol]
      Exch10                      130.90313126 [mEh]      82.14295501 [kcal/mol]     343.68612378 [kJ/mol]
      Exch10(S^2)                 124.54053989 [mEh]      78.15036865 [kcal/mol]     326.98114243 [kJ/mol]
      Exch11(S^2)                  -2.23606857 [mEh]      -1.40315421 [kcal/mol]      -5.87079722 [kJ/mol]
      Exch12(S^2)                   3.35947297 [mEh]       2.10810112 [kcal/mol]       8.82029507 [kJ/mol]

    Induction                     -33.89076654 [mEh]     -21.26677708 [kcal/mol]     -88.98019529 [kJ/mol]
      Ind20,r                    -297.94369939 [mEh]    -186.96249402 [kcal/mol]    -782.25107498 [kJ/mol]
      Ind22                       -23.30537605 [mEh]     -14.62434426 [kcal/mol]     -61.18825638 [kJ/mol]
      Exch-Ind20,r                252.43234233 [mEh]     158.40368630 [kcal/mol]     662.76102349 [kJ/mol]
      Exch-Ind22                   19.74544411 [mEh]      12.39045324 [kcal/mol]      51.84165637 [kJ/mol]
      delta HF,r (2)               15.18052245 [mEh]       9.52592166 [kcal/mol]      39.85645621 [kJ/mol]

    Dispersion                     -8.68569910 [mEh]      -5.45035847 [kcal/mol]     -22.80429985 [kJ/mol]
      Disp20                      -14.58238006 [mEh]      -9.15058164 [kcal/mol]     -38.28603357 [kJ/mol]
      Disp21                        2.54982305 [mEh]       1.60003812 [kcal/mol]       6.69455950 [kJ/mol]
      Disp22 (SDQ)                  0.08328701 [mEh]       0.05226339 [kcal/mol]       0.21867003 [kJ/mol]
      Disp22 (T)                   -1.24390161 [mEh]      -0.78056005 [kcal/mol]      -3.26586323 [kJ/mol]
      Est. Disp22 (T)              -1.33527704 [mEh]      -0.83789899 [kcal/mol]      -3.50576939 [kJ/mol]
      Exch-Disp20                   4.59884793 [mEh]       2.88582065 [kcal/mol]      12.07427358 [kJ/mol]

  Total HF                       -150.43765344 [mEh]     -94.40105274 [kcal/mol]    -394.97400468 [kJ/mol]
  Total SAPT0                    -160.42118556 [mEh]    -100.66581374 [kcal/mol]    -421.18576467 [kJ/mol]
  Total SAPT2                    -164.93455376 [mEh]    -103.49799504 [kcal/mol]    -433.03561123 [kJ/mol]
  Total SAPT2+                   -163.63672073 [mEh]    -102.68359252 [kcal/mol]    -429.62815109 [kJ/mol]

  Special recipe for scaled SAPT0 (see Manual):
    Electrostatics sSAPT0        -251.00995009 [mEh]    -157.51112170 [kcal/mol]    -659.02653317 [kJ/mol]
    Exchange sSAPT0               130.90313126 [mEh]      82.14295501 [kcal/mol]     343.68612378 [kJ/mol]
    Induction sSAPT0               10.36857965 [mEh]       6.50638196 [kcal/mol]      27.22270212 [kJ/mol]
    Dispersion sSAPT0              -9.24206447 [mEh]      -5.79948301 [kcal/mol]     -24.26503693 [kJ/mol]
  Total sSAPT0                   -118.98030365 [mEh]     -74.66126773 [kcal/mol]    -312.38274420 [kJ/mol]
  --------------------------------------------------------------------------------------------------------

*** Psi4 exiting successfully. Buy a developer a beer!
