                               Psi4 1.9 release

  ==> Input File <==

--------------------------------------------------------------------------
MEMORY 60 GB

molecule dimer {
1 1
K      0.000000     0.000000     0.000000
--
-1 1
Br     2.788700     0.000000     0.000000

units ang
no_reorient
no_com
symmetry c1
}

set {
basis        aug-cc-pVTZ
scf_type     df
}

energy("sapt2+")
--------------------------------------------------------------------------

  //              Dimer HF             //
    Molecular point group: c1
  Charge       = 0
  Multiplicity = 1
  Basis Set: AUG-CC-PVTZ
    Blend: AUG-CC-PVTZ
  Basis Set: (AUG-CC-PVTZ AUX)
    Blend: AUG-CC-PVTZ-JKFIT + DEF2-UNIVERSAL-JKFIT
  @DF-RHF Final Energy: -3171.72013124055047
    Total Energy =                      -3171.7201312405504723
 Dipole X            :       -188.7160001          184.4457736           -4.2702264
 Dipole Y            :         -0.0000000            0.0000000           -0.0000000
 Dipole Z            :         -0.0000000            0.0000000           -0.0000000
 Magnitude           :                                                    4.2702264
  //            Monomer A HF           //
    Molecular point group: c1
  Multiplicity = 1
  Basis Set: AUG-CC-PVTZ
    Blend: AUG-CC-PVTZ
  Basis Set: (AUG-CC-PVTZ AUX)
    Blend: AUG-CC-PVTZ-JKFIT + DEF2-UNIVERSAL-JKFIT
  @DF-RHF Final Energy:  -599.01750786680657
    Total Energy =                       -599.0175078668065680
  //            Monomer B HF           //
    Molecular point group: c1

    Geometry (in Angstrom), charge = -1, multiplicity = 1:

       Center              X                  Y                   Z               Mass
    ------------   -----------------  -----------------  -----------------  -----------------
      Gh(K)           0.000000000000     0.000000000000     0.000000000000    38.963706486400
         BR           2.788700000000     0.000000000000     0.000000000000    78.918337600000

  Charge       = -1
  Multiplicity = 1
  Basis Set: AUG-CC-PVTZ
    Blend: AUG-CC-PVTZ
  Basis Set: (AUG-CC-PVTZ AUX)
    Blend: AUG-CC-PVTZ-JKFIT + DEF2-UNIVERSAL-JKFIT

    Orbital Energies [Eh]
    ---------------------

    Doubly Occupied:

       1A   -489.720753     2A    -64.860726     3A    -58.215212
       4A    -58.215212     5A    -58.215210     6A     -9.532937
       7A     -7.140281     8A     -7.140281     9A     -7.140275
      10A     -2.881958    11A     -2.881958    12A     -2.881954
      13A     -2.881951    14A     -2.881951    15A     -0.686001
      16A     -0.139341    17A     -0.139339    18A     -0.139339

  @DF-RHF Final Energy: -2572.53367985384648

   => Energetics <=

    Nuclear Repulsion Energy =              0.0000000000000000
    One-Electron Energy =               -3593.6780021787340047
    Two-Electron Energy =                1021.1443223248871845
    Total Energy =                      -2572.5336798538469338
 Dipole X            :       -189.7165506          184.4457736           -5.2707770
 Dipole Y            :          0.0000000            0.0000000            0.0000000
 Dipole Z            :          0.0000000            0.0000000            0.0000000
 Magnitude           :                                                    5.2707770

    SAPT Results
  --------------------------------------------------------------------------------------------------------
    Electrostatics               -208.96209417 [mEh]    -131.12569375 [kcal/mol]    -548.62990266 [kJ/mol]
      Elst10,r                   -207.44528443 [mEh]    -130.17388127 [kcal/mol]    -544.64751925 [kJ/mol]
      Elst12,r                     -1.51680974 [mEh]      -0.95181248 [kcal/mol]      -3.98238341 [kJ/mol]

    Exchange                       61.81495562 [mEh]      38.78947028 [kcal/mol]     162.29514363 [kJ/mol]
      Exch10                       59.95798728 [mEh]      37.62420505 [kcal/mol]     157.41967392 [kJ/mol]
      Exch10(S^2)                  58.48934495 [mEh]      36.70261807 [kcal/mol]     153.56375402 [kJ/mol]
      Exch11(S^2)                  -0.61918609 [mEh]      -0.38854514 [kcal/mol]      -1.62567285 [kJ/mol]
      Exch12(S^2)                   2.47615443 [mEh]       1.55381036 [kcal/mol]       6.50114256 [kJ/mol]

    Induction                     -23.66508290 [mEh]     -14.85006372 [kcal/mol]     -62.13266660 [kJ/mol]
      Ind20,r                    -151.26532527 [mEh]     -94.92042466 [kcal/mol]    -397.14705679 [kJ/mol]
      Ind22                       -13.68333871 [mEh]      -8.58642467 [kcal/mol]     -35.92560084 [kJ/mol]
      Exch-Ind20,r                126.84701940 [mEh]      79.59770639 [kcal/mol]     333.03680355 [kJ/mol]
      Exch-Ind22                   11.47447855 [mEh]       7.20034400 [kcal/mol]      30.12623930 [kJ/mol]
      delta HF,r (2)                2.96208313 [mEh]       1.85873523 [kcal/mol]       7.77694819 [kJ/mol]

    Dispersion                     -5.23329431 [mEh]      -3.28394176 [kcal/mol]     -13.74001233 [kJ/mol]
      Disp20                       -8.24737119 [mEh]      -5.17530356 [kcal/mol]     -21.65347009 [kJ/mol]
      Disp21                        1.43303605 [mEh]       0.89924370 [kcal/mol]       3.76243562 [kJ/mol]
      Disp22 (SDQ)                  0.02512554 [mEh]       0.01576651 [kcal/mol]       0.06596709 [kJ/mol]
      Disp22 (T)                   -0.73476109 [mEh]      -0.46106955 [kcal/mol]      -1.92911498 [kJ/mol]
      Est. Disp22 (T)              -0.79087857 [mEh]      -0.49628380 [kcal/mol]      -2.07645141 [kJ/mol]
      Exch-Disp20                   2.34679387 [mEh]       1.47263539 [kcal/mol]       6.16150645 [kJ/mol]

  Total HF                       -168.94351990 [mEh]    -106.01365927 [kcal/mol]    -443.56115038 [kJ/mol]
  Total SAPT0                    -174.84409722 [mEh]    -109.71632744 [kcal/mol]    -459.05311402 [kJ/mol]
  Total SAPT2                    -176.71279877 [mEh]    -110.88895537 [kcal/mol]    -463.95938926 [kJ/mol]
  Total SAPT2+                   -176.04551576 [mEh]    -110.47022896 [kcal/mol]    -462.20743796 [kJ/mol]

  Special recipe for scaled SAPT0 (see Manual):
    Electrostatics sSAPT0        -207.44528443 [mEh]    -130.17388127 [kcal/mol]    -544.64751925 [kJ/mol]
    Exchange sSAPT0                59.95798728 [mEh]      37.62420505 [kcal/mol]     157.41967392 [kJ/mol]
    Induction sSAPT0              -11.65906453 [mEh]      -7.31617344 [kcal/mol]     -30.61086969 [kJ/mol]
    Dispersion sSAPT0              -5.71932032 [mEh]      -3.58892769 [kcal/mol]     -15.01607343 [kJ/mol]
  Total sSAPT0                   -164.86568200 [mEh]    -103.45477735 [kcal/mol]    -432.85478845 [kJ/mol]
  --------------------------------------------------------------------------------------------------------

*** Psi4 exiting successfully. Buy a developer a beer!
