                               Psi4 1.9 release

  ==> Input File <==

--------------------------------------------------------------------------
MEMORY 60 GB

molecule dimer {
1 1
K      0.000000     0.000000     0.000000
--
-1 1
Br     2.649265     0.000000     0.000000

units ang
no_reorient
no_com
symmetry c1
}

set {
basis        aug-cc-pVTZ
scf_type     df
}

energy("sapt2+")
--------------------------------------------------------------------------

  //              Dimer HF             //
    Molecular point group: c1
  Charge       = 0
  Multiplicity = 1
  Basis Set: AUG-CC-PVTZ
    Blend: AUG-CC-PVTZ
  Basis Set: (AUG-CC-PVTZ AUX)
    Blend: AUG-CC-PVTZ-JKFIT + DEF2-UNIVERSAL-JKFIT
  @DF-RHF Final Energy: -3171.71434192323977
    Total Energy =                      -3171.7143419232397719
 Dipole X            :       -179.2293226          175.2234849           -4.0058377
 Dipole Y            :         -0.0000000            0.0000000           -0.0000000
 Dipole Z            :          0.0000000            0.0000000            0.0000000
 Magnitude           :                                                    4.0058377
  //            Monomer A HF           //
    Molecular point group: c1
  Multiplicity = 1
  Basis Set: AUG-CC-PVTZ
    Blend: AUG-CC-PVTZ
  Basis Set: (AUG-CC-PVTZ AUX)
    Blend: AUG-CC-PVTZ-JKFIT + DEF2-UNIVERSAL-JKFIT
  @DF-RHF Final Energy:  -599.01750810048509
    Total Energy =                       -599.0175081004850881
  //            Monomer B HF           //
    Molecular point group: c1

    Geometry (in Angstrom), charge = -1, multiplicity = 1:

       Center              X                  Y                   Z               Mass
    ------------   -----------------  -----------------  -----------------  -----------------
      Gh(K)           0.000000000000     0.000000000000     0.000000000000    38.963706486400
         BR           2.649265000000     0.000000000000     0.000000000000    78.918337600000

  Charge       = -1
  Multiplicity = 1
  Basis Set: AUG-CC-PVTZ
    Blend: AUG-CC-PVTZ
  Basis Set: (AUG-CC-PVTZ AUX)
    Blend: AUG-CC-PVTZ-JKFIT + DEF2-UNIVERSAL-JKFIT

    Orbital Energies [Eh]
    ---------------------

    Doubly Occupied:

       1A   -489.720772     2A    -64.860741     3A    -58.215228
       4A    -58.215228     5A    -58.215226     6A     -9.532942
       7A     -7.140287     8A     -7.140287     9A     -7.140281
      10A     -2.881964    11A     -2.881964    12A     -2.881958
      13A     -2.881956    14A     -2.881956    15A     -0.686000
      16A     -0.139340    17A     -0.139340    18A     -0.139340

  @DF-RHF Final Energy: -2572.53368084447720

   => Energetics <=

    Nuclear Repulsion Energy =              0.0000000000000000
    One-Electron Energy =               -3593.6777450949944068
    Two-Electron Energy =                1021.1440642505174310
    Total Energy =                      -2572.5336808444772032
 Dipole X            :       -180.2307930          175.2234849           -5.0073081
 Dipole Y            :         -0.0000000            0.0000000           -0.0000000
 Dipole Z            :          0.0000000            0.0000000            0.0000000
 Magnitude           :                                                    5.0073081

    SAPT Results
  --------------------------------------------------------------------------------------------------------
    Electrostatics               -228.13973847 [mEh]    -143.15984723 [kcal/mol]    -598.98080082 [kJ/mol]
      Elst10,r                   -226.34524881 [mEh]    -142.03378797 [kcal/mol]    -594.26936888 [kJ/mol]
      Elst12,r                     -1.79448966 [mEh]      -1.12605926 [kcal/mol]      -4.71143194 [kJ/mol]

    Exchange                       90.19562454 [mEh]      56.59860889 [kcal/mol]     236.80857960 [kJ/mol]
      Exch10                       88.44407161 [mEh]      55.49949283 [kcal/mol]     232.20987801 [kJ/mol]
      Exch10(S^2)                  85.38663665 [mEh]      53.58092343 [kcal/mol]     224.18258365 [kJ/mol]
      Exch11(S^2)                  -1.18882623 [mEh]      -0.74599972 [kcal/mol]      -3.12126283 [kJ/mol]
      Exch12(S^2)                   2.94037916 [mEh]       1.84511578 [kcal/mol]       7.71996441 [kJ/mol]

    Induction                     -27.94565173 [mEh]     -17.53616121 [kcal/mol]     -73.37129851 [kJ/mol]
      Ind20,r                    -211.22967092 [mEh]    -132.54861964 [kcal/mol]    -554.58342459 [kJ/mol]
      Ind22                       -17.85875585 [mEh]     -11.20653849 [kcal/mol]     -46.88815702 [kJ/mol]
      Exch-Ind20,r                179.36736244 [mEh]     112.55471922 [kcal/mol]     470.92894521 [kJ/mol]
      Exch-Ind22                   15.16490519 [mEh]       9.51612168 [kcal/mol]      39.81545310 [kJ/mol]
      delta HF,r (2)                6.61050741 [mEh]       4.14815602 [kcal/mol]      17.35588480 [kJ/mol]

    Dispersion                     -6.72582712 [mEh]      -4.22052023 [kcal/mol]     -17.65865666 [kJ/mol]
      Disp20                      -10.93894237 [mEh]      -6.86428997 [kcal/mol]     -28.72018923 [kJ/mol]
      Disp21                        1.90076707 [mEh]       1.19274935 [kcal/mol]       4.99046327 [kJ/mol]
      Disp22 (SDQ)                  0.04849822 [mEh]       0.03043310 [kcal/mol]       0.12733207 [kJ/mol]
      Disp22 (T)                   -0.95246756 [mEh]      -0.59768241 [kcal/mol]      -2.50070322 [kJ/mol]
      Est. Disp22 (T)              -1.02607909 [mEh]      -0.64387435 [kcal/mol]      -2.69397027 [kJ/mol]
      Exch-Disp20                   3.28992904 [mEh]       2.06446164 [kcal/mol]       8.63770750 [kJ/mol]

  Total HF                       -163.15297828 [mEh]    -102.38003954 [kcal/mol]    -428.35808545 [kJ/mol]
  Total SAPT0                    -170.80199161 [mEh]    -107.17986787 [kcal/mol]    -448.44056718 [kJ/mol]
  Total SAPT2                    -173.53877899 [mEh]    -108.89722788 [kcal/mol]    -455.62600147 [kJ/mol]
  Total SAPT2+                   -172.61559278 [mEh]    -108.31791979 [kcal/mol]    -453.20217640 [kJ/mol]

  Special recipe for scaled SAPT0 (see Manual):
    Electrostatics sSAPT0        -226.34524881 [mEh]    -142.03378797 [kcal/mol]    -594.26936888 [kJ/mol]
    Exchange sSAPT0                88.44407161 [mEh]      55.49949283 [kcal/mol]     232.20987801 [kJ/mol]
    Induction sSAPT0               -5.28585144 [mEh]      -3.31692186 [kcal/mol]     -13.87800105 [kJ/mol]
    Dispersion sSAPT0              -7.28280090 [mEh]      -4.57002656 [kcal/mol]     -19.12099113 [kJ/mol]
  Total sSAPT0                   -150.46982955 [mEh]     -94.42124356 [kcal/mol]    -395.05848304 [kJ/mol]
  --------------------------------------------------------------------------------------------------------

*** Psi4 exiting successfully. Buy a developer a beer!
