                               Psi4 1.9 release

  ==> Input File <==

--------------------------------------------------------------------------
MEMORY 60 GB

molecule dimer {
1 1
K      0.000000     0.000000     0.000000
--
-1 1
Br     3.067570     0.000000     0.000000

units ang
no_reorient
no_com
symmetry c1
}

set {
basis        aug-cc-pVTZ
scf_type     df
}

energy("sapt2+")
--------------------------------------------------------------------------

  //              Dimer HF             //
    Molecular point group: c1
  Charge       = 0
  Multiplicity = 1
  Basis Set: AUG-CC-PVTZ
    Blend: AUG-CC-PVTZ
  Basis Set: (AUG-CC-PVTZ AUX)
    Blend: AUG-CC-PVTZ-JKFIT + DEF2-UNIVERSAL-JKFIT
  @DF-RHF Final Energy: -3171.71999679029659
    Total Energy =                      -3171.7199967902970457
 Dipole X            :       -207.7026043          202.8903510           -4.8122533
 Dipole Y            :         -0.0000000            0.0000000           -0.0000000
 Dipole Z            :         -0.0000000            0.0000000           -0.0000000
 Magnitude           :                                                    4.8122533
  //            Monomer A HF           //
    Molecular point group: c1
  Multiplicity = 1
  Basis Set: AUG-CC-PVTZ
    Blend: AUG-CC-PVTZ
  Basis Set: (AUG-CC-PVTZ AUX)
    Blend: AUG-CC-PVTZ-JKFIT + DEF2-UNIVERSAL-JKFIT
  @DF-RHF Final Energy:  -599.01750739088504
    Total Energy =                       -599.0175073908851573
  //            Monomer B HF           //
    Molecular point group: c1

    Geometry (in Angstrom), charge = -1, multiplicity = 1:

       Center              X                  Y                   Z               Mass
    ------------   -----------------  -----------------  -----------------  -----------------
      Gh(K)           0.000000000000     0.000000000000     0.000000000000    38.963706486400
         BR           3.067570000000     0.000000000000     0.000000000000    78.918337600000

  Charge       = -1
  Multiplicity = 1
  Basis Set: AUG-CC-PVTZ
    Blend: AUG-CC-PVTZ
  Basis Set: (AUG-CC-PVTZ AUX)
    Blend: AUG-CC-PVTZ-JKFIT + DEF2-UNIVERSAL-JKFIT

    Orbital Energies [Eh]
    ---------------------

    Doubly Occupied:

       1A   -489.720742     2A    -64.860715     3A    -58.215200
       4A    -58.215200     5A    -58.215198     6A     -9.532933
       7A     -7.140278     8A     -7.140278     9A     -7.140267
      10A     -2.881952    11A     -2.881952    12A     -2.881952
      13A     -2.881949    14A     -2.881949    15A     -0.686001
      16A     -0.139342    17A     -0.139340    18A     -0.139340

  @DF-RHF Final Energy: -2572.53367854866838

   => Energetics <=

    Nuclear Repulsion Energy =              0.0000000000000000
    One-Electron Energy =               -3593.6781791115745364
    Two-Electron Energy =                1021.1445005629062734
    Total Energy =                      -2572.5336785486683766
 Dipole X            :       -208.6878814          202.8903510           -5.7975304
 Dipole Y            :         -0.0000000            0.0000000           -0.0000000
 Dipole Z            :         -0.0000000            0.0000000           -0.0000000
 Magnitude           :                                                    5.7975304

    SAPT Results
  --------------------------------------------------------------------------------------------------------
    Electrostatics               -181.48178685 [mEh]    -113.88154057 [kcal/mol]    -476.48036573 [kJ/mol]
      Elst10,r                   -180.43293816 [mEh]    -113.22337808 [kcal/mol]    -473.72661388 [kJ/mol]
      Elst12,r                     -1.04884869 [mEh]      -0.65816249 [kcal/mol]      -2.75375185 [kJ/mol]

    Exchange                       29.34081654 [mEh]      18.41164035 [kcal/mol]      77.03430321 [kJ/mol]
      Exch10                       27.86757110 [mEh]      17.48716488 [kcal/mol]      73.16629784 [kJ/mol]
      Exch10(S^2)                  27.52680405 [mEh]      17.27333033 [kcal/mol]      72.27161409 [kJ/mol]
      Exch11(S^2)                  -0.15113064 [mEh]      -0.09483591 [kcal/mol]      -0.39679345 [kJ/mol]
      Exch12(S^2)                   1.62437608 [mEh]       1.01931138 [kcal/mol]       4.26479881 [kJ/mol]

    Induction                     -17.96389060 [mEh]     -11.27251154 [kcal/mol]     -47.16418828 [kJ/mol]
      Ind20,r                     -80.22927376 [mEh]     -50.34462936 [kcal/mol]    -210.64192924 [kJ/mol]
      Ind22                        -8.10088542 [mEh]      -5.08338235 [kcal/mol]     -21.26887174 [kJ/mol]
      Exch-Ind20,r                 63.21057367 [mEh]      39.66523382 [kcal/mol]     165.95933829 [kJ/mol]
      Exch-Ind22                    6.38247850 [mEh]       4.00506572 [kcal/mol]      16.75719498 [kJ/mol]
      delta HF,r (2)                0.77321642 [mEh]       0.48520063 [kcal/mol]       2.03007942 [kJ/mol]

    Dispersion                     -3.21515348 [mEh]      -2.01753927 [kcal/mol]      -8.44138431 [kJ/mol]
      Disp20                       -4.76341951 [mEh]      -2.98909087 [kcal/mol]     -12.50635621 [kJ/mol]
      Disp21                        0.83876345 [mEh]       0.52633201 [kcal/mol]       2.20217313 [kJ/mol]
      Disp22 (SDQ)                 -0.00017655 [mEh]      -0.00011079 [kcal/mol]      -0.00046352 [kJ/mol]
      Disp22 (T)                   -0.43259778 [mEh]      -0.27145920 [kcal/mol]      -1.13578531 [kJ/mol]
      Est. Disp22 (T)              -0.47481143 [mEh]      -0.29794867 [kcal/mol]      -1.24661723 [kJ/mol]
      Exch-Disp20                   1.18449055 [mEh]       0.74327904 [kcal/mol]       3.10987952 [kJ/mol]

  Total HF                       -168.81085074 [mEh]    -105.93040812 [kcal/mol]    -443.21282757 [kJ/mol]
  Total SAPT0                    -172.38977970 [mEh]    -108.17621995 [kcal/mol]    -452.60930426 [kJ/mol]
  Total SAPT2                    -173.68378988 [mEh]    -108.98822359 [kcal/mol]    -456.00672750 [kJ/mol]
  Total SAPT2+                   -173.32001440 [mEh]    -108.75995103 [kcal/mol]    -455.05163512 [kJ/mol]

  Special recipe for scaled SAPT0 (see Manual):
    Electrostatics sSAPT0        -180.43293816 [mEh]    -113.22337808 [kcal/mol]    -473.72661388 [kJ/mol]
    Exchange sSAPT0                27.86757110 [mEh]      17.48716488 [kcal/mol]      73.16629784 [kJ/mol]
    Induction sSAPT0              -13.86876366 [mEh]      -8.70278058 [kcal/mol]     -36.41243396 [kJ/mol]
    Dispersion sSAPT0              -3.53439207 [mEh]      -2.21786451 [kcal/mol]      -9.27954510 [kJ/mol]
  Total sSAPT0                   -169.96852279 [mEh]    -106.65685829 [kcal/mol]    -446.25229510 [kJ/mol]
  --------------------------------------------------------------------------------------------------------

*** Psi4 exiting successfully. Buy a developer a beer!
