                               Psi4 1.9 release

  ==> Input File <==

--------------------------------------------------------------------------
MEMORY 60 GB

molecule dimer {
1 1
K      0.000000     0.000000     0.000000
--
-1 1
Br     2.928135     0.000000     0.000000

units ang
no_reorient
no_com
symmetry c1
}

set {
basis        aug-cc-pVTZ
scf_type     df
}

energy("sapt2+")
--------------------------------------------------------------------------

  //              Dimer HF             //
    Molecular point group: c1
  Charge       = 0
  Multiplicity = 1
  Basis Set: AUG-CC-PVTZ
    Blend: AUG-CC-PVTZ
  Basis Set: (AUG-CC-PVTZ AUX)
    Blend: AUG-CC-PVTZ-JKFIT + DEF2-UNIVERSAL-JKFIT
  @DF-RHF Final Energy: -3171.72146793281217
    Total Energy =                      -3171.7214679328126294
 Dipole X            :       -198.2072566          193.6680623           -4.5391943
 Dipole Y            :         -0.0000000            0.0000000           -0.0000000
 Dipole Z            :         -0.0000000            0.0000000           -0.0000000
 Magnitude           :                                                    4.5391943
  //            Monomer A HF           //
    Molecular point group: c1
  Multiplicity = 1
  Basis Set: AUG-CC-PVTZ
    Blend: AUG-CC-PVTZ
  Basis Set: (AUG-CC-PVTZ AUX)
    Blend: AUG-CC-PVTZ-JKFIT + DEF2-UNIVERSAL-JKFIT
  @DF-RHF Final Energy:  -599.01750762838924
    Total Energy =                       -599.0175076283892395
  //            Monomer B HF           //
    Molecular point group: c1

    Geometry (in Angstrom), charge = -1, multiplicity = 1:

       Center              X                  Y                   Z               Mass
    ------------   -----------------  -----------------  -----------------  -----------------
      Gh(K)           0.000000000000     0.000000000000     0.000000000000    38.963706486400
         BR           2.928135000000     0.000000000000     0.000000000000    78.918337600000

  Charge       = -1
  Multiplicity = 1
  Basis Set: AUG-CC-PVTZ
    Blend: AUG-CC-PVTZ
  Basis Set: (AUG-CC-PVTZ AUX)
    Blend: AUG-CC-PVTZ-JKFIT + DEF2-UNIVERSAL-JKFIT

    Orbital Energies [Eh]
    ---------------------

    Doubly Occupied:

       1A   -489.720746     2A    -64.860719     3A    -58.215204
       4A    -58.215204     5A    -58.215202     6A     -9.532934
       7A     -7.140279     8A     -7.140279     9A     -7.140270
      10A     -2.881954    11A     -2.881954    12A     -2.881953
      13A     -2.881949    14A     -2.881949    15A     -0.686001
      16A     -0.139342    17A     -0.139340    18A     -0.139340

  @DF-RHF Final Energy: -2572.53367908764358

   => Energetics <=

    Nuclear Repulsion Energy =              0.0000000000000000
    One-Electron Energy =               -3593.6781167809640465
    Two-Electron Energy =                1021.1444376933203557
    Total Energy =                      -2572.5336790876435771
 Dipole X            :       -199.2022323          193.6680623           -5.5341700
 Dipole Y            :          0.0000000            0.0000000            0.0000000
 Dipole Z            :          0.0000000            0.0000000            0.0000000
 Magnitude           :                                                    5.5341700

    SAPT Results
  --------------------------------------------------------------------------------------------------------
    Electrostatics               -193.79995973 [mEh]    -121.61131075 [kcal/mol]    -508.82172416 [kJ/mol]
      Elst10,r                   -192.53366499 [mEh]    -120.81669880 [kcal/mol]    -505.49706779 [kJ/mol]
      Elst12,r                     -1.26629474 [mEh]      -0.79461194 [kcal/mol]      -3.32465638 [kJ/mol]

    Exchange                       42.50841071 [mEh]      26.67443043 [kcal/mol]     111.60581694 [kJ/mol]
      Exch10                       40.79732218 [mEh]      25.60070617 [kcal/mol]     107.11335462 [kJ/mol]
      Exch10(S^2)                  40.09083103 [mEh]      25.15737629 [kcal/mol]     105.25846238 [kJ/mol]
      Exch11(S^2)                  -0.31316616 [mEh]      -0.19651473 [kcal/mol]      -0.82221764 [kJ/mol]
      Exch12(S^2)                   2.02425469 [mEh]       1.27023900 [kcal/mol]       5.31467996 [kJ/mol]

    Induction                     -20.46097141 [mEh]     -12.83945340 [kcal/mol]     -53.72027303 [kJ/mol]
      Ind20,r                    -109.48618556 [mEh]     -68.70361869 [kcal/mol]    -287.45594058 [kJ/mol]
      Ind22                       -10.50195363 [mEh]      -6.59007540 [kcal/mol]     -27.57287547 [kJ/mol]
      Exch-Ind20,r                 89.51026419 [mEh]      56.16853878 [kcal/mol]     235.00916626 [kJ/mol]
      Exch-Ind22                    8.58585619 [mEh]       5.38770610 [kcal/mol]      22.54216233 [kJ/mol]
      delta HF,r (2)                1.43104740 [mEh]       0.89799580 [kcal/mol]       3.75721443 [kJ/mol]

    Dispersion                     -4.09063679 [mEh]      -2.56691334 [kcal/mol]     -10.73996543 [kJ/mol]
      Disp20                       -6.24948629 [mEh]      -3.92161185 [kcal/mol]     -16.40802399 [kJ/mol]
      Disp21                        1.09144397 [mEh]       0.68489143 [kcal/mol]       2.86558576 [kJ/mol]
      Disp22 (SDQ)                  0.00990459 [mEh]       0.00621522 [kcal/mol]       0.02600450 [kJ/mol]
      Disp22 (T)                   -0.56805399 [mEh]      -0.35645926 [kcal/mol]      -1.49142554 [kJ/mol]
      Est. Disp22 (T)              -0.61171885 [mEh]      -0.38385937 [kcal/mol]      -1.60606762 [kJ/mol]
      Exch-Disp20                   1.66921978 [mEh]       1.04745123 [kcal/mol]       4.38253593 [kJ/mol]

  Total HF                       -170.28121678 [mEh]    -106.85307674 [kcal/mol]    -447.07327306 [kJ/mol]
  Total SAPT0                    -174.86148329 [mEh]    -109.72723736 [kcal/mol]    -459.09876113 [kJ/mol]
  Total SAPT2                    -176.33278694 [mEh]    -110.65049434 [kcal/mol]    -462.96166832 [kJ/mol]
  Total SAPT2+                   -175.84315722 [mEh]    -110.34324706 [kcal/mol]    -461.67614568 [kJ/mol]

  Special recipe for scaled SAPT0 (see Manual):
    Electrostatics sSAPT0        -192.53366499 [mEh]    -120.81669880 [kcal/mol]    -505.49706779 [kJ/mol]
    Exchange sSAPT0                40.79732218 [mEh]      25.60070617 [kcal/mol]     107.11335462 [kJ/mol]
    Induction sSAPT0              -13.72887338 [mEh]      -8.61499811 [kcal/mol]     -36.04515210 [kJ/mol]
    Dispersion sSAPT0              -4.49045599 [mEh]      -2.81780367 [kcal/mol]     -11.78969057 [kJ/mol]
  Total sSAPT0                   -169.95567219 [mEh]    -106.64879442 [kcal/mol]    -446.21855585 [kJ/mol]
  --------------------------------------------------------------------------------------------------------

*** Psi4 exiting successfully. Buy a developer a beer!
