                               Psi4 1.9 release

  ==> Input File <==

--------------------------------------------------------------------------
MEMORY 60 GB

molecule dimer {
0 1
O      0.000000     0.000000     0.000000
H     -0.585743     0.764276     0.000000
H     -0.585743    -0.764276     0.000000
--
1 1
Li     1.920322     0.000000     0.000000

units ang
no_reorient
no_com
symmetry c1
}

set {
basis        aug-cc-pVTZ
scf_type     df
}

energy("sapt2+")
--------------------------------------------------------------------------

  //              Dimer HF             //
    Molecular point group: c1
  Charge       = 1
  Multiplicity = 1
  Basis Set: AUG-CC-PVTZ
    Blend: AUG-CC-PVTZ
  Basis Set: (AUG-CC-PVTZ AUX)
    Blend: AUG-CC-PVTZ-JKFIT + DEF2-UNIVERSAL-JKFIT
  @DF-RHF Final Energy:   -83.35247163273506
    Total Energy =                        -83.3524716327350603
 Dipole X            :         -6.2780425            8.6728603            2.3948177
 Dipole Y            :          0.0000000            0.0000000            0.0000000
 Dipole Z            :         -0.0000000            0.0000000           -0.0000000
 Magnitude           :                                                    2.3948177
  //            Monomer A HF           //
    Molecular point group: c1
  Multiplicity = 1
  Basis Set: AUG-CC-PVTZ
    Blend: AUG-CC-PVTZ
  Basis Set: (AUG-CC-PVTZ AUX)
    Blend: AUG-CC-PVTZ-JKFIT + DEF2-UNIVERSAL-JKFIT
  @DF-RHF Final Energy:   -76.06025839951410
    Total Energy =                        -76.0602583995140975
  //            Monomer B HF           //
    Molecular point group: c1

    Geometry (in Angstrom), charge = 1, multiplicity = 1:

       Center              X                  Y                   Z               Mass
    ------------   -----------------  -----------------  -----------------  -----------------
      Gh(O)           0.000000000000     0.000000000000     0.000000000000    15.994914619570
      Gh(H)          -0.585743000000     0.764276000000     0.000000000000     1.007825032230
      Gh(H)          -0.585743000000    -0.764276000000     0.000000000000     1.007825032230
         LI           1.920322000000     0.000000000000     0.000000000000     7.016003436600

  Charge       = 1
  Multiplicity = 1
  Basis Set: AUG-CC-PVTZ
    Blend: AUG-CC-PVTZ
  Basis Set: (AUG-CC-PVTZ AUX)
    Blend: AUG-CC-PVTZ-JKFIT + DEF2-UNIVERSAL-JKFIT

    Orbital Energies [Eh]
    ---------------------

    Doubly Occupied:

       1A     -2.792370

  @DF-RHF Final Energy:    -7.23638349936112

   => Energetics <=

    Nuclear Repulsion Energy =              0.0000000000000000
    One-Electron Energy =                  -8.8880266918437254
    Two-Electron Energy =                   1.6516431924826058
    Total Energy =                         -7.2363834993611196
 Dipole X            :         -7.2577887           10.8866480            3.6288593
 Dipole Y            :         -0.0000000            0.0000000           -0.0000000
 Dipole Z            :          0.0000000            0.0000000            0.0000000
 Magnitude           :                                                    3.6288593

    SAPT Results
  --------------------------------------------------------------------------------------------------------
    Electrostatics                -47.94942360 [mEh]     -30.08871757 [kcal/mol]    -125.89119431 [kJ/mol]
      Elst10,r                    -51.55272569 [mEh]     -32.34982377 [kcal/mol]    -135.35166266 [kJ/mol]
      Elst12,r                      3.60330209 [mEh]       2.26110620 [kcal/mol]       9.46046834 [kJ/mol]

    Exchange                       14.57059152 [mEh]       9.14318422 [kcal/mol]      38.25508276 [kJ/mol]
      Exch10                       13.60122916 [mEh]       8.53490015 [kcal/mol]      35.71002225 [kJ/mol]
      Exch10(S^2)                  13.55244595 [mEh]       8.50428823 [kcal/mol]      35.58194194 [kJ/mol]
      Exch11(S^2)                  -0.01740319 [mEh]      -0.01092066 [kcal/mol]      -0.04569206 [kJ/mol]
      Exch12(S^2)                   0.98676554 [mEh]       0.61920473 [kcal/mol]       2.59075258 [kJ/mol]

    Induction                     -19.31282565 [mEh]     -12.11898106 [kcal/mol]     -50.70581677 [kJ/mol]
      Ind20,r                     -27.24208347 [mEh]     -17.09466546 [kcal/mol]     -71.52408030 [kJ/mol]
      Ind22                        -2.30906698 [mEh]      -1.44896140 [kcal/mol]      -6.06245451 [kJ/mol]
      Exch-Ind20,r                 10.31698982 [mEh]       6.47400886 [kcal/mol]      27.08725305 [kJ/mol]
      Exch-Ind22                    0.87447865 [mEh]       0.54874364 [kcal/mol]       2.29594339 [kJ/mol]
      delta HF,r (2)               -0.95314368 [mEh]      -0.59810669 [kcal/mol]      -2.50247840 [kJ/mol]

    Dispersion                     -0.70268960 [mEh]      -0.44094438 [kcal/mol]      -1.84491128 [kJ/mol]
      Disp20                       -0.68686483 [mEh]      -0.43101419 [kcal/mol]      -1.80336337 [kJ/mol]
      Disp21                       -0.03510727 [mEh]      -0.02203014 [kcal/mol]      -0.09217412 [kJ/mol]
      Disp22 (SDQ)                 -0.01013013 [mEh]      -0.00635675 [kcal/mol]      -0.02659665 [kJ/mol]
      Disp22 (T)                   -0.03497670 [mEh]      -0.02194821 [kcal/mol]      -0.09183130 [kJ/mol]
      Est. Disp22 (T)              -0.04533191 [mEh]      -0.02844620 [kcal/mol]      -0.11901891 [kJ/mol]
      Exch-Disp20                   0.07474454 [mEh]       0.04690291 [kcal/mol]       0.19624177 [kJ/mol]

  Total HF                        -55.82973386 [mEh]     -35.03368692 [kcal/mol]    -146.58094605 [kJ/mol]
  Total SAPT0                     -56.44185415 [mEh]     -35.41779820 [kcal/mol]    -148.18806766 [kJ/mol]
  Total SAPT2                     -53.30377802 [mEh]     -33.44862570 [kcal/mol]    -139.94904992 [kJ/mol]
  Total SAPT2+                    -53.39434733 [mEh]     -33.50545879 [kcal/mol]    -140.18683960 [kJ/mol]

  Special recipe for scaled SAPT0 (see Manual):
    Electrostatics sSAPT0         -51.55272569 [mEh]     -32.34982377 [kcal/mol]    -135.35166266 [kJ/mol]
    Exchange sSAPT0                13.60122916 [mEh]       8.53490015 [kcal/mol]      35.71002225 [kJ/mol]
    Induction sSAPT0              -17.76642510 [mEh]     -11.14860006 [kcal/mol]     -46.64574267 [kJ/mol]
    Dispersion sSAPT0              -0.61131023 [mEh]      -0.38360296 [kcal/mol]      -1.60499480 [kJ/mol]
  Total sSAPT0                    -56.32923186 [mEh]     -35.34712664 [kcal/mol]    -147.89237788 [kJ/mol]
  --------------------------------------------------------------------------------------------------------

*** Psi4 exiting successfully. Buy a developer a beer!
