                               Psi4 1.9 release

  ==> Input File <==

--------------------------------------------------------------------------
MEMORY 60 GB

molecule dimer {
0 1
O      0.000000     0.000000     0.000000
H     -0.585743     0.764276     0.000000
H     -0.585743    -0.764276     0.000000
--
1 1
Li     2.194654     0.000000     0.000000

units ang
no_reorient
no_com
symmetry c1
}

set {
basis        aug-cc-pVTZ
scf_type     df
}

energy("sapt2+")
--------------------------------------------------------------------------

  //              Dimer HF             //
    Molecular point group: c1
  Charge       = 1
  Multiplicity = 1
  Basis Set: AUG-CC-PVTZ
    Blend: AUG-CC-PVTZ
  Basis Set: (AUG-CC-PVTZ AUX)
    Blend: AUG-CC-PVTZ-JKFIT + DEF2-UNIVERSAL-JKFIT
  @DF-RHF Final Energy:   -83.34516561070336
    Total Energy =                        -83.3451656107033614
 Dipole X            :         -7.2721312           10.2280973            2.9559661
 Dipole Y            :         -0.0000000            0.0000000           -0.0000000
 Dipole Z            :         -0.0000000            0.0000000           -0.0000000
 Magnitude           :                                                    2.9559661
  //            Monomer A HF           //
    Molecular point group: c1
  Multiplicity = 1
  Basis Set: AUG-CC-PVTZ
    Blend: AUG-CC-PVTZ
  Basis Set: (AUG-CC-PVTZ AUX)
    Blend: AUG-CC-PVTZ-JKFIT + DEF2-UNIVERSAL-JKFIT
  @DF-RHF Final Energy:   -76.06024912189324
    Total Energy =                        -76.0602491218932499
  //            Monomer B HF           //
    Molecular point group: c1

    Geometry (in Angstrom), charge = 1, multiplicity = 1:

       Center              X                  Y                   Z               Mass
    ------------   -----------------  -----------------  -----------------  -----------------
      Gh(O)           0.000000000000     0.000000000000     0.000000000000    15.994914619570
      Gh(H)          -0.585743000000     0.764276000000     0.000000000000     1.007825032230
      Gh(H)          -0.585743000000    -0.764276000000     0.000000000000     1.007825032230
         LI           2.194654000000     0.000000000000     0.000000000000     7.016003436600

  Charge       = 1
  Multiplicity = 1
  Basis Set: AUG-CC-PVTZ
    Blend: AUG-CC-PVTZ
  Basis Set: (AUG-CC-PVTZ AUX)
    Blend: AUG-CC-PVTZ-JKFIT + DEF2-UNIVERSAL-JKFIT

    Orbital Energies [Eh]
    ---------------------

    Doubly Occupied:

       1A     -2.792373

  @DF-RHF Final Energy:    -7.23638331260893

   => Energetics <=

    Nuclear Repulsion Energy =              0.0000000000000000
    One-Electron Energy =                  -8.8880201949358035
    Two-Electron Energy =                   1.6516368823268699
    Total Energy =                         -7.2363833126089334
 Dipole X            :         -8.2946584           12.4418850            4.1472266
 Dipole Y            :         -0.0000000            0.0000000           -0.0000000
 Dipole Z            :          0.0000000            0.0000000            0.0000000
 Magnitude           :                                                    4.1472266

    SAPT Results
  --------------------------------------------------------------------------------------------------------
    Electrostatics                -37.75427991 [mEh]     -23.69116832 [kcal/mol]     -99.12384824 [kJ/mol]
      Elst10,r                    -40.46047517 [mEh]     -25.38933148 [kcal/mol]    -106.22896293 [kJ/mol]
      Elst12,r                      2.70619526 [mEh]       1.69816317 [kcal/mol]       7.10511469 [kJ/mol]

    Exchange                        4.74403107 [mEh]       2.97692444 [kcal/mol]      12.45545185 [kJ/mol]
      Exch10                        4.27276316 [mEh]       2.68119936 [kcal/mol]      11.21813813 [kJ/mol]
      Exch10(S^2)                   4.26782604 [mEh]       2.67810127 [kcal/mol]      11.20517572 [kJ/mol]
      Exch11(S^2)                  -0.00227590 [mEh]      -0.00142815 [kcal/mol]      -0.00597537 [kJ/mol]
      Exch12(S^2)                   0.47354380 [mEh]       0.29715322 [kcal/mol]       1.24328908 [kJ/mol]

    Induction                     -13.44800452 [mEh]      -8.43875024 [kcal/mol]     -35.30773099 [kJ/mol]
      Ind20,r                     -15.47630527 [mEh]      -9.71152817 [kcal/mol]     -40.63303388 [kJ/mol]
      Ind22                        -1.44653761 [mEh]      -0.90771605 [kcal/mol]      -3.79788397 [kJ/mol]
      Exch-Ind20,r                  3.68037922 [mEh]       2.30947283 [kcal/mol]       9.66283432 [kJ/mol]
      Exch-Ind22                    0.34399728 [mEh]       0.21586155 [kcal/mol]       0.90316474 [kJ/mol]
      delta HF,r (2)               -0.54953814 [mEh]      -0.34484039 [kcal/mol]      -1.44281220 [kJ/mol]

    Dispersion                     -0.30832370 [mEh]      -0.19347604 [kcal/mol]      -0.80950376 [kJ/mol]
      Disp20                       -0.29207498 [mEh]      -0.18327982 [kcal/mol]      -0.76684275 [kJ/mol]
      Disp21                       -0.01738951 [mEh]      -0.01091208 [kcal/mol]      -0.04565614 [kJ/mol]
      Disp22 (SDQ)                 -0.00597279 [mEh]      -0.00374798 [kcal/mol]      -0.01568155 [kJ/mol]
      Disp22 (T)                   -0.01649208 [mEh]      -0.01034893 [kcal/mol]      -0.04329994 [kJ/mol]
      Est. Disp22 (T)              -0.02071870 [mEh]      -0.01300118 [kcal/mol]      -0.05439695 [kJ/mol]
      Exch-Disp20                   0.02783228 [mEh]       0.01746502 [kcal/mol]       0.07307364 [kJ/mol]

  Total HF                        -48.53317620 [mEh]     -30.45502786 [kcal/mol]    -127.42383656 [kJ/mol]
  Total SAPT0                     -48.79741890 [mEh]     -30.62084266 [kcal/mol]    -128.11760568 [kJ/mol]
  Total SAPT2                     -46.72249606 [mEh]     -29.31880892 [kcal/mol]    -122.66989651 [kJ/mol]
  Total SAPT2+                    -46.76657706 [mEh]     -29.34647016 [kcal/mol]    -122.78563115 [kJ/mol]

  Special recipe for scaled SAPT0 (see Manual):
    Electrostatics sSAPT0         -40.46047517 [mEh]     -25.38933148 [kcal/mol]    -106.22896293 [kJ/mol]
    Exchange sSAPT0                 4.27276316 [mEh]       2.68119936 [kcal/mol]      11.21813813 [kJ/mol]
    Induction sSAPT0              -12.33267676 [mEh]      -7.73887150 [kcal/mol]     -32.37943837 [kJ/mol]
    Dispersion sSAPT0              -0.26414600 [mEh]      -0.16575412 [kcal/mol]      -0.69351522 [kJ/mol]
  Total sSAPT0                    -48.78453477 [mEh]     -30.61275774 [kcal/mol]    -128.08377839 [kJ/mol]
  --------------------------------------------------------------------------------------------------------

*** Psi4 exiting successfully. Buy a developer a beer!
