                               Psi4 1.9 release

  ==> Input File <==

--------------------------------------------------------------------------
MEMORY 60 GB

molecule dimer {
0 1
O      0.000000     0.000000     0.000000
H     -0.585743     0.764276     0.000000
H     -0.585743    -0.764276     0.000000
--
1 1
Li     1.737434     0.000000     0.000000

units ang
no_reorient
no_com
symmetry c1
}

set {
basis        aug-cc-pVTZ
scf_type     df
}

energy("sapt2+")
--------------------------------------------------------------------------

  //              Dimer HF             //
    Molecular point group: c1
  Charge       = 1
  Multiplicity = 1
  Basis Set: AUG-CC-PVTZ
    Blend: AUG-CC-PVTZ
  Basis Set: (AUG-CC-PVTZ AUX)
    Blend: AUG-CC-PVTZ-JKFIT + DEF2-UNIVERSAL-JKFIT
  @DF-RHF Final Energy:   -83.35218721435260
    Total Energy =                        -83.3521872143525968
 Dipole X            :         -5.6038086            7.6360356            2.0322270
 Dipole Y            :         -0.0000000            0.0000000           -0.0000000
 Dipole Z            :          0.0000000            0.0000000            0.0000000
 Magnitude           :                                                    2.0322270
  //            Monomer A HF           //
    Molecular point group: c1
  Multiplicity = 1
  Basis Set: AUG-CC-PVTZ
    Blend: AUG-CC-PVTZ
  Basis Set: (AUG-CC-PVTZ AUX)
    Blend: AUG-CC-PVTZ-JKFIT + DEF2-UNIVERSAL-JKFIT
  @DF-RHF Final Energy:   -76.06025921169143
    Total Energy =                        -76.0602592116914309
  //            Monomer B HF           //
    Molecular point group: c1

    Geometry (in Angstrom), charge = 1, multiplicity = 1:

       Center              X                  Y                   Z               Mass
    ------------   -----------------  -----------------  -----------------  -----------------
      Gh(O)           0.000000000000     0.000000000000     0.000000000000    15.994914619570
      Gh(H)          -0.585743000000     0.764276000000     0.000000000000     1.007825032230
      Gh(H)          -0.585743000000    -0.764276000000     0.000000000000     1.007825032230
         LI           1.737434000000     0.000000000000     0.000000000000     7.016003436600

  Charge       = 1
  Multiplicity = 1
  Basis Set: AUG-CC-PVTZ
    Blend: AUG-CC-PVTZ
  Basis Set: (AUG-CC-PVTZ AUX)
    Blend: AUG-CC-PVTZ-JKFIT + DEF2-UNIVERSAL-JKFIT

    Orbital Energies [Eh]
    ---------------------

    Doubly Occupied:

       1A     -2.792365

  @DF-RHF Final Energy:    -7.23638364838689

   => Energetics <=

    Nuclear Repulsion Energy =              0.0000000000000000
    One-Electron Energy =                  -8.8880374404827567
    Two-Electron Energy =                   1.6516537920958636
    Total Energy =                         -7.2363836483868926
 Dipole X            :         -6.5665512            9.8498233            3.2832720
 Dipole Y            :         -0.0000000            0.0000000           -0.0000000
 Dipole Z            :          0.0000000            0.0000000            0.0000000
 Magnitude           :                                                    3.2832720

    SAPT Results
  --------------------------------------------------------------------------------------------------------
    Electrostatics                -57.08801900 [mEh]     -35.82327276 [kcal/mol]    -149.88457324 [kJ/mol]
      Elst10,r                    -61.61860529 [mEh]     -38.66625858 [kcal/mol]    -161.77962589 [kJ/mol]
      Elst12,r                      4.53058629 [mEh]       2.84298582 [kcal/mol]      11.89505265 [kJ/mol]

    Exchange                       30.88815975 [mEh]      19.38261287 [kcal/mol]      81.09685225 [kJ/mol]
      Exch10                       29.50410138 [mEh]      18.51410313 [kcal/mol]      77.46300750 [kJ/mol]
      Exch10(S^2)                  29.28001010 [mEh]      18.37348373 [kcal/mol]      76.87465594 [kJ/mol]
      Exch11(S^2)                  -0.05732356 [mEh]      -0.03597108 [kcal/mol]      -0.15050299 [kJ/mol]
      Exch12(S^2)                   1.44138193 [mEh]       0.90448082 [kcal/mol]       3.78434774 [kJ/mol]

    Induction                     -25.04820352 [mEh]     -15.71798501 [kcal/mol]     -65.76404929 [kJ/mol]
      Ind20,r                     -41.17137528 [mEh]     -25.83542804 [kcal/mol]    -108.09543091 [kJ/mol]
      Ind22                        -3.15718049 [mEh]      -1.98116067 [kcal/mol]      -8.28917625 [kJ/mol]
      Exch-Ind20,r                 20.06715737 [mEh]      12.59233136 [kcal/mol]      52.68631443 [kJ/mol]
      Exch-Ind22                    1.53882734 [mEh]       0.96562873 [kcal/mol]       4.04019062 [kJ/mol]
      delta HF,r (2)               -2.32563246 [mEh]      -1.45935640 [kcal/mol]      -6.10594718 [kJ/mol]

    Dispersion                     -1.27109528 [mEh]      -0.79762433 [kcal/mol]      -3.33726019 [kJ/mol]
      Disp20                       -1.26748334 [mEh]      -0.79535780 [kcal/mol]      -3.32777705 [kJ/mol]
      Disp21                       -0.05278684 [mEh]      -0.03312424 [kcal/mol]      -0.13859182 [kJ/mol]
      Disp22 (SDQ)                 -0.01424503 [mEh]      -0.00893889 [kcal/mol]      -0.03740031 [kJ/mol]
      Disp22 (T)                   -0.06098413 [mEh]      -0.03826812 [kcal/mol]      -0.16011380 [kJ/mol]
      Est. Disp22 (T)              -0.07905592 [mEh]      -0.04960834 [kcal/mol]      -0.20756129 [kJ/mol]
      Exch-Disp20                   0.14247585 [mEh]       0.08940494 [kcal/mol]       0.37407028 [kJ/mol]

  Total HF                        -55.54435427 [mEh]     -34.85460852 [kcal/mol]    -145.83168206 [kJ/mol]
  Total SAPT0                     -56.66936177 [mEh]     -35.56056138 [kcal/mol]    -148.78538882 [kJ/mol]
  Total SAPT2                     -52.37307027 [mEh]     -32.86459776 [kcal/mol]    -137.50547705 [kJ/mol]
  Total SAPT2+                    -52.51915805 [mEh]     -32.95626923 [kcal/mol]    -137.88903047 [kJ/mol]

  Special recipe for scaled SAPT0 (see Manual):
    Electrostatics sSAPT0         -61.61860529 [mEh]     -38.66625858 [kcal/mol]    -161.77962589 [kJ/mol]
    Exchange sSAPT0                29.50410138 [mEh]      18.51410313 [kcal/mol]      77.46300750 [kJ/mol]
    Induction sSAPT0              -22.96556989 [mEh]     -14.41111268 [kcal/mol]     -60.29609544 [kJ/mol]
    Dispersion sSAPT0              -1.12171112 [mEh]      -0.70388436 [kcal/mol]      -2.94505215 [kJ/mol]
  Total sSAPT0                    -56.20178493 [mEh]     -35.26715248 [kcal/mol]    -147.55776599 [kJ/mol]
  --------------------------------------------------------------------------------------------------------

*** Psi4 exiting successfully. Buy a developer a beer!
