                               Psi4 1.9 release

  ==> Input File <==

--------------------------------------------------------------------------
MEMORY 60 GB

molecule dimer {
0 1
O      0.000000     0.000000     0.000000
H     -0.585743     0.764276     0.000000
H     -0.585743    -0.764276     0.000000
--
1 1
Li     2.560429     0.000000     0.000000

units ang
no_reorient
no_com
symmetry c1
}

set {
basis        aug-cc-pVTZ
scf_type     df
}

energy("sapt2+")
--------------------------------------------------------------------------

  //              Dimer HF             //
    Molecular point group: c1
  Charge       = 1
  Multiplicity = 1
  Basis Set: AUG-CC-PVTZ
    Blend: AUG-CC-PVTZ
  Basis Set: (AUG-CC-PVTZ AUX)
    Blend: AUG-CC-PVTZ-JKFIT + DEF2-UNIVERSAL-JKFIT
  @DF-RHF Final Energy:   -83.33371176780489
    Total Energy =                        -83.3337117678048855
 Dipole X            :         -8.5834470           12.3017410            3.7182940
 Dipole Y            :         -0.0000000            0.0000000           -0.0000000
 Dipole Z            :         -0.0000000            0.0000000           -0.0000000
 Magnitude           :                                                    3.7182940
  //            Monomer A HF           //
    Molecular point group: c1
  Multiplicity = 1
  Basis Set: AUG-CC-PVTZ
    Blend: AUG-CC-PVTZ
  Basis Set: (AUG-CC-PVTZ AUX)
    Blend: AUG-CC-PVTZ-JKFIT + DEF2-UNIVERSAL-JKFIT
  @DF-RHF Final Energy:   -76.06022937871734
    Total Energy =                        -76.0602293787173380
  //            Monomer B HF           //
    Molecular point group: c1

    Geometry (in Angstrom), charge = 1, multiplicity = 1:

       Center              X                  Y                   Z               Mass
    ------------   -----------------  -----------------  -----------------  -----------------
      Gh(O)           0.000000000000     0.000000000000     0.000000000000    15.994914619570
      Gh(H)          -0.585743000000     0.764276000000     0.000000000000     1.007825032230
      Gh(H)          -0.585743000000    -0.764276000000     0.000000000000     1.007825032230
         LI           2.560429000000     0.000000000000     0.000000000000     7.016003436600

  Charge       = 1
  Multiplicity = 1
  Basis Set: AUG-CC-PVTZ
    Blend: AUG-CC-PVTZ
  Basis Set: (AUG-CC-PVTZ AUX)
    Blend: AUG-CC-PVTZ-JKFIT + DEF2-UNIVERSAL-JKFIT

    Orbital Energies [Eh]
    ---------------------

    Doubly Occupied:

       1A     -2.792371

  @DF-RHF Final Energy:    -7.23638318342588

   => Energetics <=

    Nuclear Repulsion Energy =              0.0000000000000000
    One-Electron Energy =                  -8.8880237219991294
    Two-Electron Energy =                   1.6516405385732518
    Total Energy =                         -7.2363831834258772
 Dipole X            :         -9.6771286           14.5155287            4.8384001
 Dipole Y            :          0.0000000            0.0000000            0.0000000
 Dipole Z            :         -0.0000000            0.0000000           -0.0000000
 Magnitude           :                                                    4.8384001

    SAPT Results
  --------------------------------------------------------------------------------------------------------
    Electrostatics                -28.45069180 [mEh]     -17.85307864 [kcal/mol]     -74.69728102 [kJ/mol]
      Elst10,r                    -30.43090885 [mEh]     -19.09568360 [kcal/mol]     -79.89634018 [kJ/mol]
      Elst12,r                      1.98021705 [mEh]       1.24260496 [kcal/mol]       5.19905916 [kJ/mol]

    Exchange                        1.06902782 [mEh]       0.67082508 [kcal/mol]       2.80673215 [kJ/mol]
      Exch10                        0.91718650 [mEh]       0.57554322 [kcal/mol]       2.40807282 [kJ/mol]
      Exch10(S^2)                   0.91695447 [mEh]       0.57539762 [kcal/mol]       2.40746364 [kJ/mol]
      Exch11(S^2)                   0.00002883 [mEh]       0.00001809 [kcal/mol]       0.00007570 [kJ/mol]
      Exch12(S^2)                   0.15181249 [mEh]       0.09526377 [kcal/mol]       0.39858363 [kJ/mol]

    Induction                      -8.29559314 [mEh]      -5.20556329 [kcal/mol]     -21.78007679 [kJ/mol]
      Ind20,r                      -8.00815507 [mEh]      -5.02519317 [kcal/mol]     -21.02540824 [kJ/mol]
      Ind22                        -0.79978529 [mEh]      -0.50187285 [kcal/mol]      -2.09983599 [kJ/mol]
      Exch-Ind20,r                  0.89790972 [mEh]       0.56344686 [kcal/mol]       2.35746164 [kJ/mol]
      Exch-Ind22                    0.08967546 [mEh]       0.05627220 [kcal/mol]       0.23544289 [kJ/mol]
      delta HF,r (2)               -0.47523796 [mEh]      -0.29821632 [kcal/mol]      -1.24773709 [kJ/mol]

    Dispersion                     -0.11280098 [mEh]      -0.07078368 [kcal/mol]      -0.29615893 [kJ/mol]
      Disp20                       -0.10323651 [mEh]      -0.06478189 [kcal/mol]      -0.27104743 [kJ/mol]
      Disp21                       -0.00639396 [mEh]      -0.00401227 [kcal/mol]      -0.01678733 [kJ/mol]
      Disp22 (SDQ)                 -0.00280971 [mEh]      -0.00176312 [kcal/mol]      -0.00737689 [kJ/mol]
      Disp22 (T)                   -0.00662479 [mEh]      -0.00415712 [kcal/mol]      -0.01739338 [kJ/mol]
      Est. Disp22 (T)              -0.00788990 [mEh]      -0.00495099 [kcal/mol]      -0.02071493 [kJ/mol]
      Exch-Disp20                   0.00752910 [mEh]       0.00472458 [kcal/mol]       0.01976765 [kJ/mol]

  Total HF                        -37.09920566 [mEh]     -23.28010302 [kcal/mol]     -97.40395105 [kJ/mol]
  Total SAPT0                     -37.19491308 [mEh]     -23.34016033 [kcal/mol]     -97.65523083 [kJ/mol]
  Total SAPT2                     -35.77296453 [mEh]     -22.44787415 [kcal/mol]     -93.92190543 [kJ/mol]
  Total SAPT2+                    -35.79005810 [mEh]     -22.45860052 [kcal/mol]     -93.96678459 [kJ/mol]

  Special recipe for scaled SAPT0 (see Manual):
    Electrostatics sSAPT0         -30.43090885 [mEh]     -19.09568360 [kcal/mol]     -79.89634018 [kJ/mol]
    Exchange sSAPT0                 0.91718650 [mEh]       0.57554322 [kcal/mol]       2.40807282 [kJ/mol]
    Induction sSAPT0               -7.58480152 [mEh]      -4.75953481 [kcal/mol]     -19.91389366 [kJ/mol]
    Dispersion sSAPT0              -0.09570170 [mEh]      -0.06005372 [kcal/mol]      -0.25126477 [kJ/mol]
  Total sSAPT0                    -37.19422557 [mEh]     -23.33972892 [kcal/mol]     -97.65342579 [kJ/mol]
  --------------------------------------------------------------------------------------------------------

*** Psi4 exiting successfully. Buy a developer a beer!
