                               Psi4 1.9 release

  ==> Input File <==

--------------------------------------------------------------------------
MEMORY 60 GB

molecule dimer {
0 1
O      0.000000     0.000000     0.000000
H     -0.585743     0.764276     0.000000
H     -0.585743    -0.764276     0.000000
--
1 1
Li     3.657756     0.000000     0.000000

units ang
no_reorient
no_com
symmetry c1
}

set {
basis        aug-cc-pVTZ
scf_type     df
}

energy("sapt2+")
--------------------------------------------------------------------------

  //              Dimer HF             //
    Molecular point group: c1
  Charge       = 1
  Multiplicity = 1
  Basis Set: AUG-CC-PVTZ
    Blend: AUG-CC-PVTZ
  Basis Set: (AUG-CC-PVTZ AUX)
    Blend: AUG-CC-PVTZ-JKFIT + DEF2-UNIVERSAL-JKFIT
  @DF-RHF Final Energy:   -83.31394032049623
    Total Energy =                        -83.3139403204962292
 Dipole X            :        -12.5643999           18.5226835            5.9582836
 Dipole Y            :         -0.0000000            0.0000000           -0.0000000
 Dipole Z            :          0.0000000            0.0000000            0.0000000
 Magnitude           :                                                    5.9582836
  //            Monomer A HF           //
    Molecular point group: c1
  Multiplicity = 1
  Basis Set: AUG-CC-PVTZ
    Blend: AUG-CC-PVTZ
  Basis Set: (AUG-CC-PVTZ AUX)
    Blend: AUG-CC-PVTZ-JKFIT + DEF2-UNIVERSAL-JKFIT
  @DF-RHF Final Energy:   -76.06020179298342
    Total Energy =                        -76.0602017929834204
  //            Monomer B HF           //
    Molecular point group: c1

    Geometry (in Angstrom), charge = 1, multiplicity = 1:

       Center              X                  Y                   Z               Mass
    ------------   -----------------  -----------------  -----------------  -----------------
      Gh(O)           0.000000000000     0.000000000000     0.000000000000    15.994914619570
      Gh(H)          -0.585743000000     0.764276000000     0.000000000000     1.007825032230
      Gh(H)          -0.585743000000    -0.764276000000     0.000000000000     1.007825032230
         LI           3.657756000000     0.000000000000     0.000000000000     7.016003436600

  Charge       = 1
  Multiplicity = 1
  Basis Set: AUG-CC-PVTZ
    Blend: AUG-CC-PVTZ
  Basis Set: (AUG-CC-PVTZ AUX)
    Blend: AUG-CC-PVTZ-JKFIT + DEF2-UNIVERSAL-JKFIT

    Orbital Energies [Eh]
    ---------------------

    Doubly Occupied:

       1A     -2.792363

  @DF-RHF Final Energy:    -7.23638264655741

   => Energetics <=

    Nuclear Repulsion Energy =              0.0000000000000000
    One-Electron Energy =                  -8.8880385747229766
    Two-Electron Energy =                   1.6516559281655676
    Total Energy =                         -7.2363826465574093
 Dipole X            :        -13.8243813           20.7364712            6.9120899
 Dipole Y            :         -0.0000000            0.0000000           -0.0000000
 Dipole Z            :          0.0000000            0.0000000            0.0000000
 Magnitude           :                                                    6.9120899

    SAPT Results
  --------------------------------------------------------------------------------------------------------
    Electrostatics                -14.49222794 [mEh]      -9.09401033 [kcal/mol]     -38.04933920 [kJ/mol]
      Elst10,r                    -15.48621927 [mEh]      -9.71774931 [kcal/mol]     -40.65906310 [kJ/mol]
      Elst12,r                      0.99399134 [mEh]       0.62373898 [kcal/mol]       2.60972390 [kJ/mol]

    Exchange                        0.01285926 [mEh]       0.00806931 [kcal/mol]       0.03376199 [kJ/mol]
      Exch10                        0.00949152 [mEh]       0.00595602 [kcal/mol]       0.02491997 [kJ/mol]
      Exch10(S^2)                   0.00949149 [mEh]       0.00595600 [kcal/mol]       0.02491990 [kJ/mol]
      Exch11(S^2)                   0.00000569 [mEh]       0.00000357 [kcal/mol]       0.00001493 [kJ/mol]
      Exch12(S^2)                   0.00336206 [mEh]       0.00210973 [kcal/mol]       0.00882709 [kJ/mol]

    Induction                      -2.06313547 [mEh]      -1.29463705 [kcal/mol]      -5.41676144 [kJ/mol]
      Ind20,r                      -1.79480323 [mEh]      -1.12625603 [kcal/mol]      -4.71225523 [kJ/mol]
      Ind22                        -0.18525315 [mEh]      -0.11624811 [kcal/mol]      -0.48638209 [kJ/mol]
      Exch-Ind20,r                  0.01231278 [mEh]       0.00772638 [kcal/mol]       0.03232719 [kJ/mol]
      Exch-Ind22                    0.00127088 [mEh]       0.00079749 [kcal/mol]       0.00333670 [kJ/mol]
      delta HF,r (2)               -0.09666275 [mEh]      -0.06065679 [kcal/mol]      -0.25378800 [kJ/mol]

    Dispersion                     -0.01044247 [mEh]      -0.00655275 [kcal/mol]      -0.02741670 [kJ/mol]
      Disp20                       -0.00914273 [mEh]      -0.00573715 [kcal/mol]      -0.02400422 [kJ/mol]
      Disp21                       -0.00039056 [mEh]      -0.00024508 [kcal/mol]      -0.00102541 [kJ/mol]
      Disp22 (SDQ)                 -0.00027005 [mEh]      -0.00016946 [kcal/mol]      -0.00070901 [kJ/mol]
      Disp22 (T)                   -0.00065699 [mEh]      -0.00041227 [kcal/mol]      -0.00172492 [kJ/mol]
      Est. Disp22 (T)              -0.00074158 [mEh]      -0.00046535 [kcal/mol]      -0.00194702 [kJ/mol]
      Exch-Disp20                   0.00010245 [mEh]       0.00006429 [kcal/mol]       0.00026898 [kJ/mol]

  Total HF                        -17.35588096 [mEh]     -10.89097973 [kcal/mol]     -45.56785917 [kJ/mol]
  Total SAPT0                     -17.36492123 [mEh]     -10.89665258 [kcal/mol]     -45.59159441 [kJ/mol]
  Total SAPT2                     -16.55154442 [mEh]     -10.38625093 [kcal/mol]     -43.45607389 [kJ/mol]
  Total SAPT2+                    -16.55294661 [mEh]     -10.38713082 [kcal/mol]     -43.45975535 [kJ/mol]

  Special recipe for scaled SAPT0 (see Manual):
    Electrostatics sSAPT0         -15.48621927 [mEh]      -9.71774931 [kcal/mol]     -40.65906310 [kJ/mol]
    Exchange sSAPT0                 0.00949152 [mEh]       0.00595602 [kcal/mol]       0.02491997 [kJ/mol]
    Induction sSAPT0               -1.87915320 [mEh]      -1.17918643 [kcal/mol]      -4.93371604 [kJ/mol]
    Dispersion sSAPT0              -0.00904028 [mEh]      -0.00567286 [kcal/mol]      -0.02373524 [kJ/mol]
  Total sSAPT0                    -17.36492123 [mEh]     -10.89665258 [kcal/mol]     -45.59159441 [kJ/mol]
  --------------------------------------------------------------------------------------------------------

*** Psi4 exiting successfully. Buy a developer a beer!
