                               Psi4 1.9 release

  ==> Input File <==

--------------------------------------------------------------------------
MEMORY 60 GB

molecule dimer {
0 1
O      0.000000     0.000000     0.000000
H     -0.585743     0.764276     0.000000
H     -0.585743    -0.764276     0.000000
--
1 1
Li     1.645990     0.000000     0.000000

units ang
no_reorient
no_com
symmetry c1
}

set {
basis        aug-cc-pVTZ
scf_type     df
}

energy("sapt2+")
--------------------------------------------------------------------------

  //              Dimer HF             //
    Molecular point group: c1
  Charge       = 1
  Multiplicity = 1
  Basis Set: AUG-CC-PVTZ
    Blend: AUG-CC-PVTZ
  Basis Set: (AUG-CC-PVTZ AUX)
    Blend: AUG-CC-PVTZ-JKFIT + DEF2-UNIVERSAL-JKFIT
  @DF-RHF Final Energy:   -83.34819812317635
    Total Energy =                        -83.3481981231763456
 Dipole X            :         -5.2622089            7.1176232            1.8554143
 Dipole Y            :         -0.0000000            0.0000000           -0.0000000
 Dipole Z            :         -0.0000000            0.0000000           -0.0000000
 Magnitude           :                                                    1.8554143
  //            Monomer A HF           //
    Molecular point group: c1
  Multiplicity = 1
  Basis Set: AUG-CC-PVTZ
    Blend: AUG-CC-PVTZ
  Basis Set: (AUG-CC-PVTZ AUX)
    Blend: AUG-CC-PVTZ-JKFIT + DEF2-UNIVERSAL-JKFIT
  @DF-RHF Final Energy:   -76.06026018295111
    Total Energy =                        -76.0602601829511116
  //            Monomer B HF           //
    Molecular point group: c1

    Geometry (in Angstrom), charge = 1, multiplicity = 1:

       Center              X                  Y                   Z               Mass
    ------------   -----------------  -----------------  -----------------  -----------------
      Gh(O)           0.000000000000     0.000000000000     0.000000000000    15.994914619570
      Gh(H)          -0.585743000000     0.764276000000     0.000000000000     1.007825032230
      Gh(H)          -0.585743000000    -0.764276000000     0.000000000000     1.007825032230
         LI           1.645990000000     0.000000000000     0.000000000000     7.016003436600

  Charge       = 1
  Multiplicity = 1
  Basis Set: AUG-CC-PVTZ
    Blend: AUG-CC-PVTZ
  Basis Set: (AUG-CC-PVTZ AUX)
    Blend: AUG-CC-PVTZ-JKFIT + DEF2-UNIVERSAL-JKFIT

    Orbital Energies [Eh]
    ---------------------

    Doubly Occupied:

       1A     -2.792362

  @DF-RHF Final Energy:    -7.23638374917862

   => Energetics <=

    Nuclear Repulsion Energy =              0.0000000000000000
    One-Electron Energy =                  -8.8880443930663020
    Two-Electron Energy =                   1.6516606438876804
    Total Energy =                         -7.2363837491786214
 Dipole X            :         -6.2209390            9.3314109            3.1104719
 Dipole Y            :         -0.0000000            0.0000000           -0.0000000
 Dipole Z            :          0.0000000            0.0000000            0.0000000
 Magnitude           :                                                    3.1104719

    SAPT Results
  --------------------------------------------------------------------------------------------------------
    Electrostatics                -62.60255619 [mEh]     -39.28369709 [kcal/mol]    -164.36298864 [kJ/mol]
      Elst10,r                    -67.75954315 [mEh]     -42.51975527 [kcal/mol]    -177.90265604 [kJ/mol]
      Elst12,r                      5.15698696 [mEh]       3.23605817 [kcal/mol]      13.53966739 [kJ/mol]

    Exchange                       45.02164919 [mEh]      28.25151139 [kcal/mol]     118.20432366 [kJ/mol]
      Exch10                       43.48414573 [mEh]      27.28671340 [kcal/mol]     114.16760887 [kJ/mol]
      Exch10(S^2)                  43.00458674 [mEh]      26.98578560 [kcal/mol]     112.90852694 [kJ/mol]
      Exch11(S^2)                  -0.10030142 [mEh]      -0.06294009 [kcal/mol]      -0.26334133 [kJ/mol]
      Exch12(S^2)                   1.63780488 [mEh]       1.02773808 [kcal/mol]       4.30005612 [kJ/mol]

    Induction                     -28.96599798 [mEh]     -18.17643815 [kcal/mol]     -76.05021721 [kJ/mol]
      Ind20,r                     -51.16948552 [mEh]     -32.10933693 [kcal/mol]    -134.34546573 [kJ/mol]
      Ind22                        -3.68178163 [mEh]      -2.31035286 [kcal/mol]      -9.66651635 [kJ/mol]
      Exch-Ind20,r                 27.72068069 [mEh]      17.39498975 [kcal/mol]      72.78063712 [kJ/mol]
      Exch-Ind22                    1.99457728 [mEh]       1.25161614 [kcal/mol]       5.23676192 [kJ/mol]
      delta HF,r (2)               -3.82998879 [mEh]      -2.40335425 [kcal/mol]     -10.05563418 [kJ/mol]

    Dispersion                     -1.73350402 [mEh]      -1.08779019 [kcal/mol]      -4.55131417 [kJ/mol]
      Disp20                       -1.74177612 [mEh]      -1.09298102 [kcal/mol]      -4.57303258 [kJ/mol]
      Disp21                       -0.06217954 [mEh]      -0.03901825 [kcal/mol]      -0.16325237 [kJ/mol]
      Disp22 (SDQ)                 -0.01689285 [mEh]      -0.01060042 [kcal/mol]      -0.04435216 [kJ/mol]
      Disp22 (T)                   -0.08023305 [mEh]      -0.05034700 [kcal/mol]      -0.21065185 [kJ/mol]
      Est. Disp22 (T)              -0.10487390 [mEh]      -0.06580937 [kcal/mol]      -0.27534640 [kJ/mol]
      Exch-Disp20                   0.19221840 [mEh]       0.12061887 [kcal/mol]       0.50466934 [kJ/mol]

  Total HF                        -51.55419105 [mEh]     -32.35074329 [kcal/mol]    -135.35550994 [kJ/mol]
  Total SAPT0                     -53.10374877 [mEh]     -33.32310545 [kcal/mol]    -139.42387319 [kJ/mol]
  Total SAPT2                     -48.09646271 [mEh]     -30.18098600 [kcal/mol]    -126.27724544 [kJ/mol]
  Total SAPT2+                    -48.28040900 [mEh]     -30.29641405 [kcal/mol]    -126.76019637 [kJ/mol]

  Special recipe for scaled SAPT0 (see Manual):
    Electrostatics sSAPT0         -67.75954315 [mEh]     -42.51975527 [kcal/mol]    -177.90265604 [kJ/mol]
    Exchange sSAPT0                43.48414573 [mEh]      27.28671340 [kcal/mol]     114.16760887 [kJ/mol]
    Induction sSAPT0              -26.34104515 [mEh]     -16.52925538 [kcal/mol]     -69.15840452 [kJ/mol]
    Dispersion sSAPT0              -1.54305527 [mEh]      -0.96828180 [kcal/mol]      -4.05129105 [kJ/mol]
  Total sSAPT0                    -52.15949785 [mEh]     -32.73057905 [kcal/mol]    -136.94474273 [kJ/mol]
  --------------------------------------------------------------------------------------------------------

*** Psi4 exiting successfully. Buy a developer a beer!
