                               Psi4 1.9 release

  ==> Input File <==

--------------------------------------------------------------------------
MEMORY 60 GB

molecule dimer {
0 1
O      0.000000     0.000000     0.000000
H     -0.585743     0.764276     0.000000
H     -0.585743    -0.764276     0.000000
--
1 1
Li     1.463102     0.000000     0.000000

units ang
no_reorient
no_com
symmetry c1
}

set {
basis        aug-cc-pVTZ
scf_type     df
}

energy("sapt2+")
--------------------------------------------------------------------------

  //              Dimer HF             //
    Molecular point group: c1
  Charge       = 1
  Multiplicity = 1
  Basis Set: AUG-CC-PVTZ
    Blend: AUG-CC-PVTZ
  Basis Set: (AUG-CC-PVTZ AUX)
    Blend: AUG-CC-PVTZ-JKFIT + DEF2-UNIVERSAL-JKFIT
  @DF-RHF Final Energy:   -83.32418124739203
    Total Energy =                        -83.3241812473920334
 Dipole X            :         -4.5695732            6.0807985            1.5112253
 Dipole Y            :          0.0000000            0.0000000            0.0000000
 Dipole Z            :          0.0000000            0.0000000            0.0000000
 Magnitude           :                                                    1.5112253
  //            Monomer A HF           //
    Molecular point group: c1
  Multiplicity = 1
  Basis Set: AUG-CC-PVTZ
    Blend: AUG-CC-PVTZ
  Basis Set: (AUG-CC-PVTZ AUX)
    Blend: AUG-CC-PVTZ-JKFIT + DEF2-UNIVERSAL-JKFIT
  @DF-RHF Final Energy:   -76.06026565312064
    Total Energy =                        -76.0602656531206378
  //            Monomer B HF           //
    Molecular point group: c1

    Geometry (in Angstrom), charge = 1, multiplicity = 1:

       Center              X                  Y                   Z               Mass
    ------------   -----------------  -----------------  -----------------  -----------------
      Gh(O)           0.000000000000     0.000000000000     0.000000000000    15.994914619570
      Gh(H)          -0.585743000000     0.764276000000     0.000000000000     1.007825032230
      Gh(H)          -0.585743000000    -0.764276000000     0.000000000000     1.007825032230
         LI           1.463102000000     0.000000000000     0.000000000000     7.016003436600

  Charge       = 1
  Multiplicity = 1
  Basis Set: AUG-CC-PVTZ
    Blend: AUG-CC-PVTZ
  Basis Set: (AUG-CC-PVTZ AUX)
    Blend: AUG-CC-PVTZ-JKFIT + DEF2-UNIVERSAL-JKFIT

    Orbital Energies [Eh]
    ---------------------

    Doubly Occupied:

       1A     -2.792356

  @DF-RHF Final Energy:    -7.23638403611120

   => Energetics <=

    Nuclear Repulsion Energy =              0.0000000000000000
    One-Electron Energy =                  -8.8880569837980463
    Two-Electron Energy =                   1.6516729476868450
    Total Energy =                         -7.2363840361112013
 Dipole X            :         -5.5297286            8.2945862            2.7648576
 Dipole Y            :         -0.0000000            0.0000000           -0.0000000
 Dipole Z            :         -0.0000000            0.0000000           -0.0000000
 Magnitude           :                                                    2.7648576

    SAPT Results
  --------------------------------------------------------------------------------------------------------
    Electrostatics                -76.06551375 [mEh]     -47.73183051 [kcal/mol]    -199.70997884 [kJ/mol]
      Elst10,r                    -82.98658565 [mEh]     -52.07486869 [kcal/mol]    -217.88125060 [kJ/mol]
      Elst12,r                      6.92107190 [mEh]       4.34303819 [kcal/mol]      18.17127177 [kJ/mol]

    Exchange                       95.91660897 [mEh]      60.18858082 [kcal/mol]     251.82902215 [kJ/mol]
      Exch10                       94.58834205 [mEh]      59.35508075 [kcal/mol]     248.34165784 [kJ/mol]
      Exch10(S^2)                  92.40346588 [mEh]      57.98405025 [kcal/mol]     242.60526625 [kJ/mol]
      Exch11(S^2)                  -0.28525076 [mEh]      -0.17899755 [kcal/mol]      -0.74892576 [kJ/mol]
      Exch12(S^2)                   1.61351767 [mEh]       1.01249763 [kcal/mol]       4.23629007 [kJ/mol]

    Induction                     -40.93280016 [mEh]     -25.68571989 [kcal/mol]    -107.46905202 [kJ/mol]
      Ind20,r                     -80.84489228 [mEh]     -50.73093581 [kcal/mol]    -212.25823545 [kJ/mol]
      Ind22                        -4.95949754 [mEh]      -3.11213169 [kcal/mol]     -13.02115900 [kJ/mol]
      Exch-Ind20,r                 51.51143291 [mEh]      32.32391216 [kcal/mol]     135.24324848 [kJ/mol]
      Exch-Ind22                    3.16001194 [mEh]       1.98293743 [kcal/mol]       8.29661020 [kJ/mol]
      delta HF,r (2)               -9.79985519 [mEh]      -6.14950197 [kcal/mol]     -25.72951626 [kJ/mol]

    Dispersion                     -3.31655908 [mEh]      -2.08117225 [kcal/mol]      -8.70762467 [kJ/mol]
      Disp20                       -3.34740595 [mEh]      -2.10052895 [kcal/mol]      -8.78861312 [kJ/mol]
      Disp21                       -0.07039377 [mEh]      -0.04417276 [kcal/mol]      -0.18481883 [kJ/mol]
      Disp22 (SDQ)                 -0.02455413 [mEh]      -0.01540795 [kcal/mol]      -0.06446685 [kJ/mol]
      Disp22 (T)                   -0.15967934 [mEh]      -0.10020030 [kcal/mol]      -0.41923805 [kJ/mol]
      Est. Disp22 (T)              -0.18536976 [mEh]      -0.11632128 [kcal/mol]      -0.48668825 [kJ/mol]
      Exch-Disp20                   0.31116453 [mEh]       0.19525869 [kcal/mol]       0.81696237 [kJ/mol]

  Total HF                        -27.53155816 [mEh]     -17.27631357 [kcal/mol]     -72.28409599 [kJ/mol]
  Total SAPT0                     -30.56779958 [mEh]     -19.18158383 [kcal/mol]     -80.25574674 [kJ/mol]
  Total SAPT2                     -24.11794637 [mEh]     -15.13423983 [kcal/mol]     -63.32165946 [kJ/mol]
  Total SAPT2+                    -24.39826403 [mEh]     -15.31014182 [kcal/mol]     -64.05763338 [kJ/mol]

  Special recipe for scaled SAPT0 (see Manual):
    Electrostatics sSAPT0         -82.98658565 [mEh]     -52.07486869 [kcal/mol]    -217.88125060 [kJ/mol]
    Exchange sSAPT0                94.58834205 [mEh]      59.35508075 [kcal/mol]     248.34165784 [kJ/mol]
    Induction sSAPT0              -35.39227877 [mEh]     -22.20899023 [kcal/mol]     -92.92241511 [kJ/mol]
    Dispersion sSAPT0              -3.01364299 [mEh]      -1.89108953 [kcal/mol]      -7.91231857 [kJ/mol]
  Total sSAPT0                    -26.80416535 [mEh]     -16.81986770 [kcal/mol]     -70.37432644 [kJ/mol]
  --------------------------------------------------------------------------------------------------------

*** Psi4 exiting successfully. Buy a developer a beer!
