                               Psi4 1.9 release

  ==> Input File <==

--------------------------------------------------------------------------
MEMORY 60 GB

molecule dimer {
0 1
O      0.000000     0.000000     0.000000
H     -0.585743     0.764276     0.000000
H     -0.585743    -0.764276     0.000000
--
1 1
Li     2.743317     0.000000     0.000000

units ang
no_reorient
no_com
symmetry c1
}

set {
basis        aug-cc-pVTZ
scf_type     df
}

energy("sapt2+")
--------------------------------------------------------------------------

  //              Dimer HF             //
    Molecular point group: c1
  Charge       = 1
  Multiplicity = 1
  Basis Set: AUG-CC-PVTZ
    Blend: AUG-CC-PVTZ
  Basis Set: (AUG-CC-PVTZ AUX)
    Blend: AUG-CC-PVTZ-JKFIT + DEF2-UNIVERSAL-JKFIT
  @DF-RHF Final Energy:   -83.32886654997323
    Total Energy =                        -83.3288665499732275
 Dipole X            :         -9.2393696           13.3385657            4.0991961
 Dipole Y            :          0.0000000            0.0000000            0.0000000
 Dipole Z            :         -0.0000000            0.0000000           -0.0000000
 Magnitude           :                                                    4.0991961
  //            Monomer A HF           //
    Molecular point group: c1
  Multiplicity = 1
  Basis Set: AUG-CC-PVTZ
    Blend: AUG-CC-PVTZ
  Basis Set: (AUG-CC-PVTZ AUX)
    Blend: AUG-CC-PVTZ-JKFIT + DEF2-UNIVERSAL-JKFIT
  @DF-RHF Final Energy:   -76.06022101984797
    Total Energy =                        -76.0602210198479725
  //            Monomer B HF           //
    Molecular point group: c1

    Geometry (in Angstrom), charge = 1, multiplicity = 1:

       Center              X                  Y                   Z               Mass
    ------------   -----------------  -----------------  -----------------  -----------------
      Gh(O)           0.000000000000     0.000000000000     0.000000000000    15.994914619570
      Gh(H)          -0.585743000000     0.764276000000     0.000000000000     1.007825032230
      Gh(H)          -0.585743000000    -0.764276000000     0.000000000000     1.007825032230
         LI           2.743317000000     0.000000000000     0.000000000000     7.016003436600

  Charge       = 1
  Multiplicity = 1
  Basis Set: AUG-CC-PVTZ
    Blend: AUG-CC-PVTZ
  Basis Set: (AUG-CC-PVTZ AUX)
    Blend: AUG-CC-PVTZ-JKFIT + DEF2-UNIVERSAL-JKFIT

    Orbital Energies [Eh]
    ---------------------

    Doubly Occupied:

       1A     -2.792370

  @DF-RHF Final Energy:    -7.23638312757514

   => Energetics <=

    Nuclear Repulsion Energy =              0.0000000000000000
    One-Electron Energy =                  -8.8880261668747043
    Two-Electron Energy =                   1.6516430392995658
    Total Energy =                         -7.2363831275751380
 Dipole X            :        -10.3683402           15.5523534            5.1840132
 Dipole Y            :          0.0000000            0.0000000            0.0000000
 Dipole Z            :         -0.0000000            0.0000000           -0.0000000
 Magnitude           :                                                    5.1840132

    SAPT Results
  --------------------------------------------------------------------------------------------------------
    Electrostatics                -25.01823888 [mEh]     -15.69918191 [kcal/mol]     -65.68537712 [kJ/mol]
      Elst10,r                    -26.74708222 [mEh]     -16.78404749 [kcal/mol]     -70.22445469 [kJ/mol]
      Elst12,r                      1.72884334 [mEh]       1.08486558 [kcal/mol]       4.53907757 [kJ/mol]

    Exchange                        0.50786406 [mEh]       0.31868951 [kcal/mol]       1.33339690 [kJ/mol]
      Exch10                        0.42511870 [mEh]       0.26676601 [kcal/mol]       1.11614898 [kJ/mol]
      Exch10(S^2)                   0.42506850 [mEh]       0.26673451 [kcal/mol]       1.11601720 [kJ/mol]
      Exch11(S^2)                   0.00007579 [mEh]       0.00004756 [kcal/mol]       0.00019899 [kJ/mol]
      Exch12(S^2)                   0.08266957 [mEh]       0.05187594 [kcal/mol]       0.21704893 [kJ/mol]

    Induction                      -6.50201893 [mEh]      -4.08007848 [kcal/mol]     -17.07104835 [kJ/mol]
      Ind20,r                      -5.97156559 [mEh]      -3.74721398 [kcal/mol]     -15.67834330 [kJ/mol]
      Ind22                        -0.60614768 [mEh]      -0.38036341 [kcal/mol]      -1.59144052 [kJ/mol]
      Exch-Ind20,r                  0.43906695 [mEh]       0.27551867 [kcal/mol]       1.15277012 [kJ/mol]
      Exch-Ind22                    0.04456778 [mEh]       0.02796670 [kcal/mol]       0.11701269 [kJ/mol]
      delta HF,r (2)               -0.40794039 [mEh]      -0.25598646 [kcal/mol]      -1.07104734 [kJ/mol]

    Dispersion                     -0.07078053 [mEh]      -0.04441545 [kcal/mol]      -0.18583426 [kJ/mol]
      Disp20                       -0.06387621 [mEh]      -0.04008292 [kcal/mol]      -0.16770696 [kJ/mol]
      Disp21                       -0.00386298 [mEh]      -0.00242406 [kcal/mol]      -0.01014226 [kJ/mol]
      Disp22 (SDQ)                 -0.00189489 [mEh]      -0.00118906 [kcal/mol]      -0.00497504 [kJ/mol]
      Disp22 (T)                   -0.00419332 [mEh]      -0.00263135 [kcal/mol]      -0.01100955 [kJ/mol]
      Est. Disp22 (T)              -0.00498816 [mEh]      -0.00313012 [kcal/mol]      -0.01309641 [kJ/mol]
      Exch-Disp20                   0.00384171 [mEh]       0.00241071 [kcal/mol]       0.01008641 [kJ/mol]

  Total HF                        -32.26240255 [mEh]     -20.24496325 [kcal/mol]     -84.70492623 [kJ/mol]
  Total SAPT0                     -32.32243705 [mEh]     -20.28263546 [kcal/mol]     -84.86254678 [kJ/mol]
  Total SAPT2                     -31.07242825 [mEh]     -19.49824310 [kcal/mol]     -81.58064913 [kJ/mol]
  Total SAPT2+                    -31.08317428 [mEh]     -19.50498634 [kcal/mol]     -81.60886284 [kJ/mol]

  Special recipe for scaled SAPT0 (see Manual):
    Electrostatics sSAPT0         -26.74708222 [mEh]     -16.78404749 [kcal/mol]     -70.22445469 [kJ/mol]
    Exchange sSAPT0                 0.42511870 [mEh]       0.26676601 [kcal/mol]       1.11614898 [kJ/mol]
    Induction sSAPT0               -5.94028347 [mEh]      -3.72758415 [kcal/mol]     -15.59621210 [kJ/mol]
    Dispersion sSAPT0              -0.06003314 [mEh]      -0.03767136 [kcal/mol]      -0.15761698 [kJ/mol]
  Total sSAPT0                    -32.32228013 [mEh]     -20.28253699 [kcal/mol]     -84.86213478 [kJ/mol]
  --------------------------------------------------------------------------------------------------------

*** Psi4 exiting successfully. Buy a developer a beer!
