                               Psi4 1.9 release

  ==> Input File <==

--------------------------------------------------------------------------
MEMORY 60 GB

molecule dimer {
0 1
O      0.000000     0.000000     0.000000
H     -0.585743     0.764276     0.000000
H     -0.585743    -0.764276     0.000000
--
1 1
Li     1.828878     0.000000     0.000000

units ang
no_reorient
no_com
symmetry c1
}

set {
basis        aug-cc-pVTZ
scf_type     df
}

energy("sapt2+")
--------------------------------------------------------------------------

  //              Dimer HF             //
    Molecular point group: c1
  Charge       = 1
  Multiplicity = 1
  Basis Set: AUG-CC-PVTZ
    Blend: AUG-CC-PVTZ
  Basis Set: (AUG-CC-PVTZ AUX)
    Blend: AUG-CC-PVTZ-JKFIT + DEF2-UNIVERSAL-JKFIT
  @DF-RHF Final Energy:   -83.35325169796366
    Total Energy =                        -83.3532516979636569
 Dipole X            :         -5.9423384            8.1544479            2.2121095
 Dipole Y            :          0.0000000            0.0000000            0.0000000
 Dipole Z            :          0.0000000            0.0000000            0.0000000
 Magnitude           :                                                    2.2121095
  //            Monomer A HF           //
    Molecular point group: c1
  Multiplicity = 1
  Basis Set: AUG-CC-PVTZ
    Blend: AUG-CC-PVTZ
  Basis Set: (AUG-CC-PVTZ AUX)
    Blend: AUG-CC-PVTZ-JKFIT + DEF2-UNIVERSAL-JKFIT
  @DF-RHF Final Energy:   -76.06025899346959
    Total Energy =                        -76.0602589934695885
  //            Monomer B HF           //
    Molecular point group: c1

    Geometry (in Angstrom), charge = 1, multiplicity = 1:

       Center              X                  Y                   Z               Mass
    ------------   -----------------  -----------------  -----------------  -----------------
      Gh(O)           0.000000000000     0.000000000000     0.000000000000    15.994914619570
      Gh(H)          -0.585743000000     0.764276000000     0.000000000000     1.007825032230
      Gh(H)          -0.585743000000    -0.764276000000     0.000000000000     1.007825032230
         LI           1.828878000000     0.000000000000     0.000000000000     7.016003436600

  Charge       = 1
  Multiplicity = 1
  Basis Set: AUG-CC-PVTZ
    Blend: AUG-CC-PVTZ
  Basis Set: (AUG-CC-PVTZ AUX)
    Blend: AUG-CC-PVTZ-JKFIT + DEF2-UNIVERSAL-JKFIT

    Orbital Energies [Eh]
    ---------------------

    Doubly Occupied:

       1A     -2.792368

  @DF-RHF Final Energy:    -7.23638357033763

   => Energetics <=

    Nuclear Repulsion Energy =              0.0000000000000000
    One-Electron Energy =                  -8.8880314061471477
    Two-Electron Energy =                   1.6516478358095217
    Total Energy =                         -7.2363835703376260
 Dipole X            :         -6.9121683           10.3682356            3.4560673
 Dipole Y            :          0.0000000            0.0000000            0.0000000
 Dipole Z            :          0.0000000            0.0000000            0.0000000
 Magnitude           :                                                    3.4560673

    SAPT Results
  --------------------------------------------------------------------------------------------------------
    Electrostatics                -52.23514089 [mEh]     -32.77804577 [kcal/mol]    -137.14334352 [kJ/mol]
      Elst10,r                    -56.25704366 [mEh]     -35.30182786 [kcal/mol]    -147.70284778 [kJ/mol]
      Elst12,r                      4.02190277 [mEh]       2.52378209 [kcal/mol]      10.55950426 [kJ/mol]

    Exchange                       21.20663197 [mEh]      13.30736247 [kcal/mol]      55.67800457 [kJ/mol]
      Exch10                       20.02768203 [mEh]      12.56756021 [kcal/mol]      52.58267192 [kJ/mol]
      Exch10(S^2)                  19.92308473 [mEh]      12.50192442 [kcal/mol]      52.30805176 [kJ/mol]
      Exch11(S^2)                  -0.03198134 [mEh]      -0.02006859 [kcal/mol]      -0.08396699 [kJ/mol]
      Exch12(S^2)                   1.21093128 [mEh]       0.75987085 [kcal/mol]       3.17929963 [kJ/mol]

    Induction                     -21.91295957 [mEh]     -13.75058973 [kcal/mol]     -57.53246741 [kJ/mol]
      Ind20,r                     -33.36903828 [mEh]     -20.93938765 [kcal/mol]     -87.61039794 [kJ/mol]
      Ind22                        -2.70118376 [mEh]      -1.69501840 [kcal/mol]      -7.09195697 [kJ/mol]
      Exch-Ind20,r                 14.42883221 [mEh]       9.05422891 [kcal/mol]      37.88289374 [kJ/mol]
      Exch-Ind22                    1.16799672 [mEh]       0.73292901 [kcal/mol]       3.06657496 [kJ/mol]
      delta HF,r (2)               -1.43956645 [mEh]      -0.90334159 [kcal/mol]      -3.77958120 [kJ/mol]

    Dispersion                     -0.94062477 [mEh]      -0.59025096 [kcal/mol]      -2.46961000 [kJ/mol]
      Disp20                       -0.92917621 [mEh]      -0.58306687 [kcal/mol]      -2.43955180 [kJ/mol]
      Disp21                       -0.04346211 [mEh]      -0.02727288 [kcal/mol]      -0.11410975 [kJ/mol]
      Disp22 (SDQ)                 -0.01201191 [mEh]      -0.00753759 [kcal/mol]      -0.03153726 [kJ/mol]
      Disp22 (T)                   -0.04577071 [mEh]      -0.02872155 [kcal/mol]      -0.12017098 [kJ/mol]
      Est. Disp22 (T)              -0.05964823 [mEh]      -0.03742983 [kcal/mol]      -0.15660641 [kJ/mol]
      Exch-Disp20                   0.10367368 [mEh]       0.06505622 [kcal/mol]       0.27219521 [kJ/mol]

  Total HF                        -56.60913416 [mEh]     -35.52276799 [kcal/mol]    -148.62726125 [kJ/mol]
  Total SAPT0                     -57.43463668 [mEh]     -36.04077864 [kcal/mol]    -150.79461784 [kJ/mol]
  Total SAPT2                     -53.76697101 [mEh]     -33.73928369 [kcal/mol]    -141.16516295 [kJ/mol]
  Total SAPT2+                    -53.88209326 [mEh]     -33.81152399 [kcal/mol]    -141.46741636 [kJ/mol]

  Special recipe for scaled SAPT0 (see Manual):
    Electrostatics sSAPT0         -56.25704366 [mEh]     -35.30182786 [kcal/mol]    -147.70284778 [kJ/mol]
    Exchange sSAPT0                20.02768203 [mEh]      12.56756021 [kcal/mol]      52.58267192 [kJ/mol]
    Induction sSAPT0              -20.15132083 [mEh]     -12.64514473 [kcal/mol]     -52.90728555 [kJ/mol]
    Dispersion sSAPT0              -0.82386106 [mEh]      -0.51698062 [kcal/mol]      -2.16304692 [kJ/mol]
  Total sSAPT0                    -57.20454352 [mEh]     -35.89639300 [kcal/mol]    -150.19050833 [kJ/mol]
  --------------------------------------------------------------------------------------------------------

*** Psi4 exiting successfully. Buy a developer a beer!
