                               Psi4 1.9 release

  ==> Input File <==

--------------------------------------------------------------------------
MEMORY 60 GB

molecule dimer {
0 1
O      0.000000     0.000000     0.000000
H     -0.585743     0.764276     0.000000
H     -0.585743    -0.764276     0.000000
--
1 1
Li     2.011766     0.000000     0.000000

units ang
no_reorient
no_com
symmetry c1
}

set {
basis        aug-cc-pVTZ
scf_type     df
}

energy("sapt2+")
--------------------------------------------------------------------------

  //              Dimer HF             //
    Molecular point group: c1
  Charge       = 1
  Multiplicity = 1
  Basis Set: AUG-CC-PVTZ
    Blend: AUG-CC-PVTZ
  Basis Set: (AUG-CC-PVTZ AUX)
    Blend: AUG-CC-PVTZ-JKFIT + DEF2-UNIVERSAL-JKFIT
  @DF-RHF Final Energy:   -83.35056934754951
    Total Energy =                        -83.3505693475495093
 Dipole X            :         -6.6112821            9.1912726            2.5799905
 Dipole Y            :         -0.0000000            0.0000000           -0.0000000
 Dipole Z            :          0.0000000            0.0000000            0.0000000
 Magnitude           :                                                    2.5799905
  //            Monomer A HF           //
    Molecular point group: c1
  Multiplicity = 1
  Basis Set: AUG-CC-PVTZ
    Blend: AUG-CC-PVTZ
  Basis Set: (AUG-CC-PVTZ AUX)
    Blend: AUG-CC-PVTZ-JKFIT + DEF2-UNIVERSAL-JKFIT
  @DF-RHF Final Energy:   -76.06025660873175
    Total Energy =                        -76.0602566087317484
  //            Monomer B HF           //
    Molecular point group: c1

    Geometry (in Angstrom), charge = 1, multiplicity = 1:

       Center              X                  Y                   Z               Mass
    ------------   -----------------  -----------------  -----------------  -----------------
      Gh(O)           0.000000000000     0.000000000000     0.000000000000    15.994914619570
      Gh(H)          -0.585743000000     0.764276000000     0.000000000000     1.007825032230
      Gh(H)          -0.585743000000    -0.764276000000     0.000000000000     1.007825032230
         LI           2.011766000000     0.000000000000     0.000000000000     7.016003436600

  Charge       = 1
  Multiplicity = 1
  Basis Set: AUG-CC-PVTZ
    Blend: AUG-CC-PVTZ
  Basis Set: (AUG-CC-PVTZ AUX)
    Blend: AUG-CC-PVTZ-JKFIT + DEF2-UNIVERSAL-JKFIT

    Orbital Energies [Eh]
    ---------------------

    Doubly Occupied:

       1A     -2.792372

  @DF-RHF Final Energy:    -7.23638343163454

   => Energetics <=

    Nuclear Repulsion Energy =              0.0000000000000000
    One-Electron Energy =                  -8.8880233150451726
    Two-Electron Energy =                   1.6516398834106363
    Total Energy =                         -7.2363834316345361
 Dipole X            :         -7.6034109           11.4050603            3.8016495
 Dipole Y            :          0.0000000            0.0000000            0.0000000
 Dipole Z            :          0.0000000            0.0000000            0.0000000
 Magnitude           :                                                    3.8016495

    SAPT Results
  --------------------------------------------------------------------------------------------------------
    Electrostatics                -44.15066948 [mEh]     -27.70496337 [kcal/mol]    -115.91756675 [kJ/mol]
      Elst10,r                    -47.40475282 [mEh]     -29.74693149 [kcal/mol]    -124.46116137 [kJ/mol]
      Elst12,r                      3.25408334 [mEh]       2.04196812 [kcal/mol]       8.54359462 [kJ/mol]

    Exchange                       10.01772394 [mEh]       6.28621668 [kcal/mol]      26.30153058 [kJ/mol]
      Exch10                        9.24137659 [mEh]       5.79905136 [kcal/mol]      24.26323090 [kJ/mol]
      Exch10(S^2)                   9.21863640 [mEh]       5.78478168 [kcal/mol]      24.20352654 [kJ/mol]
      Exch11(S^2)                  -0.00920424 [mEh]      -0.00577575 [kcal/mol]      -0.02416573 [kJ/mol]
      Exch12(S^2)                   0.78555159 [mEh]       0.49294106 [kcal/mol]       2.06246541 [kJ/mol]

    Induction                     -17.09265433 [mEh]     -10.72580253 [kcal/mol]     -44.87675777 [kJ/mol]
      Ind20,r                     -22.40154236 [mEh]     -14.05718006 [kcal/mol]     -58.81524137 [kJ/mol]
      Ind22                        -1.97368670 [mEh]      -1.23850711 [kcal/mol]      -5.18191373 [kJ/mol]
      Exch-Ind20,r                  7.34309879 [mEh]       4.60786406 [kcal/mol]      19.27930322 [kJ/mol]
      Exch-Ind22                    0.64696333 [mEh]       0.40597562 [kcal/mol]       1.69860199 [kJ/mol]
      delta HF,r (2)               -0.70748739 [mEh]      -0.44395504 [kcal/mol]      -1.85750788 [kJ/mol]

    Dispersion                     -0.52969203 [mEh]      -0.33238677 [kcal/mol]      -1.39070624 [kJ/mol]
      Disp20                       -0.51221150 [mEh]      -0.32141757 [kcal/mol]      -1.34481110 [kJ/mol]
      Disp21                       -0.02800220 [mEh]      -0.01757165 [kcal/mol]      -0.07351977 [kJ/mol]
      Disp22 (SDQ)                 -0.00852256 [mEh]      -0.00534799 [kcal/mol]      -0.02237598 [kJ/mol]
      Disp22 (T)                   -0.02695685 [mEh]      -0.01691568 [kcal/mol]      -0.07077520 [kJ/mol]
      Est. Disp22 (T)              -0.03467690 [mEh]      -0.02176008 [kcal/mol]      -0.09104418 [kJ/mol]
      Exch-Disp20                   0.05372113 [mEh]       0.03371052 [kcal/mol]       0.14104480 [kJ/mol]

  Total HF                        -53.92930718 [mEh]     -33.84115117 [kcal/mol]    -141.59137650 [kJ/mol]
  Total SAPT0                     -54.38779755 [mEh]     -34.12885822 [kcal/mol]    -142.79514280 [kJ/mol]
  Total SAPT2                     -51.68409024 [mEh]     -32.43225627 [kcal/mol]    -135.69656024 [kJ/mol]
  Total SAPT2+                    -51.75529190 [mEh]     -32.47693599 [kcal/mol]    -135.88350018 [kJ/mol]

  Special recipe for scaled SAPT0 (see Manual):
    Electrostatics sSAPT0         -47.40475282 [mEh]     -29.74693149 [kcal/mol]    -124.46116137 [kJ/mol]
    Exchange sSAPT0                 9.24137659 [mEh]       5.79905136 [kcal/mol]      24.26323090 [kJ/mol]
    Induction sSAPT0              -15.71145575 [mEh]      -9.85908733 [kcal/mol]     -41.25042139 [kJ/mol]
    Dispersion sSAPT0              -0.45809184 [mEh]      -0.28745697 [kcal/mol]      -1.20271995 [kJ/mol]
  Total sSAPT0                    -54.33292381 [mEh]     -34.09442443 [kcal/mol]    -142.65107182 [kJ/mol]
  --------------------------------------------------------------------------------------------------------

*** Psi4 exiting successfully. Buy a developer a beer!
