                               Psi4 1.9 release

  ==> Input File <==

--------------------------------------------------------------------------
MEMORY 60 GB

molecule dimer {
0 1
O      0.000000     0.000000     0.000000
H     -0.585743     0.764276     0.000000
H     -0.585743    -0.764276     0.000000
--
1 1
Li     2.377541     0.000000     0.000000

units ang
no_reorient
no_com
symmetry c1
}

set {
basis        aug-cc-pVTZ
scf_type     df
}

energy("sapt2+")
--------------------------------------------------------------------------

  //              Dimer HF             //
    Molecular point group: c1
  Charge       = 1
  Multiplicity = 1
  Basis Set: AUG-CC-PVTZ
    Blend: AUG-CC-PVTZ
  Basis Set: (AUG-CC-PVTZ AUX)
    Blend: AUG-CC-PVTZ-JKFIT + DEF2-UNIVERSAL-JKFIT
  @DF-RHF Final Energy:   -83.33924551648938
    Total Energy =                        -83.3392455164893846
 Dipole X            :         -7.9284734           11.2649163            3.3364429
 Dipole Y            :          0.0000000            0.0000000            0.0000000
 Dipole Z            :          0.0000000            0.0000000            0.0000000
 Magnitude           :                                                    3.3364429
  //            Monomer A HF           //
    Molecular point group: c1
  Multiplicity = 1
  Basis Set: AUG-CC-PVTZ
    Blend: AUG-CC-PVTZ
  Basis Set: (AUG-CC-PVTZ AUX)
    Blend: AUG-CC-PVTZ-JKFIT + DEF2-UNIVERSAL-JKFIT
  @DF-RHF Final Energy:   -76.06023907870436
    Total Energy =                        -76.0602390787043419
  //            Monomer B HF           //
    Molecular point group: c1

    Geometry (in Angstrom), charge = 1, multiplicity = 1:

       Center              X                  Y                   Z               Mass
    ------------   -----------------  -----------------  -----------------  -----------------
      Gh(O)           0.000000000000     0.000000000000     0.000000000000    15.994914619570
      Gh(H)          -0.585743000000     0.764276000000     0.000000000000     1.007825032230
      Gh(H)          -0.585743000000    -0.764276000000     0.000000000000     1.007825032230
         LI           2.377541000000     0.000000000000     0.000000000000     7.016003436600

  Charge       = 1
  Multiplicity = 1
  Basis Set: AUG-CC-PVTZ
    Blend: AUG-CC-PVTZ
  Basis Set: (AUG-CC-PVTZ AUX)
    Blend: AUG-CC-PVTZ-JKFIT + DEF2-UNIVERSAL-JKFIT

    Orbital Energies [Eh]
    ---------------------

    Doubly Occupied:

       1A     -2.792373

  @DF-RHF Final Energy:    -7.23638322697982

   => Energetics <=

    Nuclear Repulsion Energy =              0.0000000000000000
    One-Electron Energy =                  -8.8880210221217588
    Two-Electron Energy =                   1.6516377951419348
    Total Energy =                         -7.2363832269798243
 Dipole X            :         -8.9858994           13.4787040            4.4928046
 Dipole Y            :         -0.0000000            0.0000000           -0.0000000
 Dipole Z            :         -0.0000000            0.0000000           -0.0000000
 Magnitude           :                                                    4.4928046

    SAPT Results
  --------------------------------------------------------------------------------------------------------
    Electrostatics                -32.62238872 [mEh]     -20.47085798 [kcal/mol]     -85.65006978 [kJ/mol]
      Elst10,r                    -34.91923535 [mEh]     -21.91215100 [kcal/mol]     -91.68043977 [kJ/mol]
      Elst12,r                      2.29684663 [mEh]       1.44129302 [kcal/mol]       6.03036999 [kJ/mol]

    Exchange                        2.25090054 [mEh]       1.41246141 [kcal/mol]       5.90973855 [kJ/mol]
      Exch10                        1.97884037 [mEh]       1.24174108 [kcal/mol]       5.19544468 [kJ/mol]
      Exch10(S^2)                   1.97776938 [mEh]       1.24106902 [kcal/mol]       5.19263279 [kJ/mol]
      Exch11(S^2)                  -0.00039015 [mEh]      -0.00024483 [kcal/mol]      -0.00102435 [kJ/mol]
      Exch12(S^2)                   0.27245032 [mEh]       0.17096516 [kcal/mol]       0.71531822 [kJ/mol]

    Induction                     -10.57451316 [mEh]      -6.63560719 [kcal/mol]     -27.76338049 [kJ/mol]
      Ind20,r                     -10.99100719 [mEh]      -6.89696114 [kcal/mol]     -28.85688539 [kJ/mol]
      Ind22                        -1.06925206 [mEh]      -0.67096580 [kcal/mol]      -2.80732090 [kJ/mol]
      Exch-Ind20,r                  1.82511250 [mEh]       1.14527539 [kcal/mol]       4.79183222 [kJ/mol]
      Exch-Ind22                    0.17755473 [mEh]       0.11141727 [kcal/mol]       0.46616988 [kJ/mol]
      delta HF,r (2)               -0.51692115 [mEh]      -0.32437292 [kcal/mol]      -1.35717629 [kJ/mol]

    Dispersion                     -0.18428595 [mEh]      -0.11564118 [kcal/mol]      -0.48384270 [kJ/mol]
      Disp20                       -0.17142782 [mEh]      -0.10757258 [kcal/mol]      -0.45008368 [kJ/mol]
      Disp21                       -0.01059086 [mEh]      -0.00664587 [kcal/mol]      -0.02780631 [kJ/mol]
      Disp22 (SDQ)                 -0.00412328 [mEh]      -0.00258740 [kcal/mol]      -0.01082568 [kJ/mol]
      Disp22 (T)                   -0.01034585 [mEh]      -0.00649212 [kcal/mol]      -0.02716304 [kJ/mol]
      Est. Disp22 (T)              -0.01265256 [mEh]      -0.00793960 [kcal/mol]      -0.03321929 [kJ/mol]
      Exch-Disp20                   0.01450857 [mEh]       0.00910427 [kcal/mol]       0.03809225 [kJ/mol]

  Total HF                        -42.62321081 [mEh]     -26.74646858 [kcal/mol]    -111.90722455 [kJ/mol]
  Total SAPT0                     -42.78013005 [mEh]     -26.84493690 [kcal/mol]    -112.31921597 [kJ/mol]
  Total SAPT2                     -41.10292059 [mEh]     -25.79247207 [kcal/mol]    -107.91570314 [kJ/mol]
  Total SAPT2+                    -41.13028729 [mEh]     -25.80964494 [kcal/mol]    -107.98755442 [kJ/mol]

  Special recipe for scaled SAPT0 (see Manual):
    Electrostatics sSAPT0         -34.91923535 [mEh]     -21.91215100 [kcal/mol]     -91.68043977 [kJ/mol]
    Exchange sSAPT0                 1.97884037 [mEh]       1.24174108 [kcal/mol]       5.19544468 [kJ/mol]
    Induction sSAPT0               -9.67984925 [mEh]      -6.07419711 [kcal/mol]     -25.41444071 [kJ/mol]
    Dispersion sSAPT0              -0.15689566 [mEh]      -0.09845351 [kcal/mol]      -0.41192951 [kJ/mol]
  Total sSAPT0                    -42.77713989 [mEh]     -26.84306054 [kcal/mol]    -112.31136530 [kJ/mol]
  --------------------------------------------------------------------------------------------------------

*** Psi4 exiting successfully. Buy a developer a beer!
