                               Psi4 1.9 release

  ==> Input File <==

--------------------------------------------------------------------------
MEMORY 60 GB

molecule dimer {
0 1
O      0.000000     0.000000     0.000000
H     -0.588073     0.760558     0.000000
H     -0.588073    -0.760558     0.000000
--
1 1
Na     2.050993     0.000000     0.000000

units ang
no_reorient
no_com
symmetry c1
}

set {
basis        aug-cc-pVTZ
scf_type     df
}

energy("sapt2+")
--------------------------------------------------------------------------

  //              Dimer HF             //
    Molecular point group: c1
  Charge       = 1
  Multiplicity = 1
  Basis Set: AUG-CC-PVTZ
    Blend: AUG-CC-PVTZ
  Basis Set: (AUG-CC-PVTZ AUX)
    Blend: AUG-CC-PVTZ-JKFIT + DEF2-UNIVERSAL-JKFIT
  @DF-RHF Final Energy:  -237.77188325370645
    Total Energy =                       -237.7718832537064486
 Dipole X            :        -37.6711939           40.4113718            2.7401779
 Dipole Y            :         -0.0000000            0.0000000           -0.0000000
 Dipole Z            :         -0.0000000            0.0000000           -0.0000000
 Magnitude           :                                                    2.7401779
  //            Monomer A HF           //
    Molecular point group: c1
  Multiplicity = 1
  Basis Set: AUG-CC-PVTZ
    Blend: AUG-CC-PVTZ
  Basis Set: (AUG-CC-PVTZ AUX)
    Blend: AUG-CC-PVTZ-JKFIT + DEF2-UNIVERSAL-JKFIT
  @DF-RHF Final Energy:   -76.06037529654637
    Total Energy =                        -76.0603752965463684
  //            Monomer B HF           //
    Molecular point group: c1

    Geometry (in Angstrom), charge = 1, multiplicity = 1:

       Center              X                  Y                   Z               Mass
    ------------   -----------------  -----------------  -----------------  -----------------
      Gh(O)           0.000000000000     0.000000000000     0.000000000000    15.994914619570
      Gh(H)          -0.588073000000     0.760558000000     0.000000000000     1.007825032230
      Gh(H)          -0.588073000000    -0.760558000000     0.000000000000     1.007825032230
         NA           2.050993000000     0.000000000000     0.000000000000    22.989769282000

  Charge       = 1
  Multiplicity = 1
  Basis Set: AUG-CC-PVTZ
    Blend: AUG-CC-PVTZ
  Basis Set: (AUG-CC-PVTZ AUX)
    Blend: AUG-CC-PVTZ-JKFIT + DEF2-UNIVERSAL-JKFIT

    Orbital Energies [Eh]
    ---------------------

    Doubly Occupied:

       1A    -40.762246     2A     -3.074679     3A     -1.798010
       4A     -1.797911     5A     -1.797807

  @DF-RHF Final Energy:  -161.67604805656339

   => Energetics <=

    Nuclear Repulsion Energy =              0.0000000000000000
    One-Electron Energy =                -224.8907881530813881
    Two-Electron Energy =                  63.2147400965180140
    Total Energy =                       -161.6760480565633884
 Dipole X            :        -38.7586470           42.6339656            3.8753186
 Dipole Y            :          0.0000000            0.0000000            0.0000000
 Dipole Z            :          0.0000000            0.0000000            0.0000000
 Magnitude           :                                                    3.8753186

    SAPT Results
  --------------------------------------------------------------------------------------------------------
    Electrostatics                -48.66102073 [mEh]     -30.53525151 [kcal/mol]    -127.75949233 [kJ/mol]
      Elst10,r                    -51.22294732 [mEh]     -32.14288472 [kcal/mol]    -134.48582966 [kJ/mol]
      Elst12,r                      2.56192658 [mEh]       1.60763320 [kcal/mol]       6.72633732 [kJ/mol]

    Exchange                       28.23525599 [mEh]      17.71789063 [kcal/mol]      74.13165439 [kJ/mol]
      Exch10                       26.48109034 [mEh]      16.61713506 [kcal/mol]      69.52609311 [kJ/mol]
      Exch10(S^2)                  26.28725627 [mEh]      16.49550235 [kcal/mol]      69.01718183 [kJ/mol]
      Exch11(S^2)                  -0.20623118 [mEh]      -0.12941202 [kcal/mol]      -0.54145989 [kJ/mol]
      Exch12(S^2)                   1.96039683 [mEh]       1.23016759 [kcal/mol]       5.14702118 [kJ/mol]

    Induction                     -12.03977471 [mEh]      -7.55507270 [kcal/mol]     -31.61042416 [kJ/mol]
      Ind20,r                     -38.26410143 [mEh]     -24.01108615 [kcal/mol]    -100.46238447 [kJ/mol]
      Ind22                        -3.91259005 [mEh]      -2.45518733 [kcal/mol]     -10.27250377 [kJ/mol]
      Exch-Ind20,r                 25.33791902 [mEh]      15.89978423 [kcal/mol]      66.52469723 [kJ/mol]
      Exch-Ind22                    2.59085896 [mEh]       1.62578854 [kcal/mol]       6.80229926 [kJ/mol]
      delta HF,r (2)                2.20813879 [mEh]       1.38562801 [kcal/mol]       5.79746759 [kJ/mol]

    Dispersion                     -1.14935034 [mEh]      -0.72122823 [kcal/mol]      -3.01761890 [kJ/mol]
      Disp20                       -1.24038762 [mEh]      -0.77835498 [kcal/mol]      -3.25663725 [kJ/mol]
      Disp21                       -0.01969355 [mEh]      -0.01235789 [kcal/mol]      -0.05170541 [kJ/mol]
      Disp22 (SDQ)                 -0.06721497 [mEh]      -0.04217803 [kcal/mol]      -0.17647287 [kJ/mol]
      Disp22 (T)                   -0.08667600 [mEh]      -0.05439001 [kcal/mol]      -0.22756781 [kJ/mol]
      Est. Disp22 (T)              -0.10647474 [mEh]      -0.06681391 [kcal/mol]      -0.27954940 [kJ/mol]
      Exch-Disp20                   0.28442054 [mEh]       0.17847659 [kcal/mol]       0.74674603 [kJ/mol]

  Total HF                        -35.45990060 [mEh]     -22.25142356 [kcal/mol]     -93.09995619 [kJ/mol]
  Total SAPT0                     -36.41586768 [mEh]     -22.85130196 [kcal/mol]     -95.60984741 [kJ/mol]
  Total SAPT2                     -33.42150654 [mEh]     -20.97231198 [kcal/mol]     -87.74815332 [kJ/mol]
  Total SAPT2+                    -33.61488980 [mEh]     -21.09366181 [kcal/mol]     -88.25588100 [kJ/mol]

  Special recipe for scaled SAPT0 (see Manual):
    Electrostatics sSAPT0         -51.22294732 [mEh]     -32.14288472 [kcal/mol]    -134.48582966 [kJ/mol]
    Exchange sSAPT0                26.48109034 [mEh]      16.61713506 [kcal/mol]      69.52609311 [kJ/mol]
    Induction sSAPT0              -10.15339864 [mEh]      -6.37135384 [kcal/mol]     -26.65774446 [kJ/mol]
    Dispersion sSAPT0              -0.94962889 [mEh]      -0.59590112 [kcal/mol]      -2.49325029 [kJ/mol]
  Total sSAPT0                    -35.84488450 [mEh]     -22.49300461 [kcal/mol]     -94.11073130 [kJ/mol]
  --------------------------------------------------------------------------------------------------------

*** Psi4 exiting successfully. Buy a developer a beer!
