                               Psi4 1.9 release

  ==> Input File <==

--------------------------------------------------------------------------
MEMORY 60 GB

molecule dimer {
0 1
O      0.000000     0.000000     0.000000
H     -0.588073     0.760558     0.000000
H     -0.588073    -0.760558     0.000000
--
1 1
Na     4.317880     0.000000     0.000000

units ang
no_reorient
no_com
symmetry c1
}

set {
basis        aug-cc-pVTZ
scf_type     df
}

energy("sapt2+")
--------------------------------------------------------------------------

  //              Dimer HF             //
    Molecular point group: c1
  Charge       = 1
  Multiplicity = 1
  Basis Set: AUG-CC-PVTZ
    Blend: AUG-CC-PVTZ
  Basis Set: (AUG-CC-PVTZ AUX)
    Blend: AUG-CC-PVTZ-JKFIT + DEF2-UNIVERSAL-JKFIT
  @DF-RHF Final Energy:  -237.74851203064520
    Total Energy =                       -237.7485120306452018
 Dipole X            :        -80.2791562           87.5331232            7.2539670
 Dipole Y            :         -0.0000000            0.0000000           -0.0000000
 Dipole Z            :          0.0000000            0.0000000            0.0000000
 Magnitude           :                                                    7.2539670
  //            Monomer A HF           //
    Molecular point group: c1
  Multiplicity = 1
  Basis Set: AUG-CC-PVTZ
    Blend: AUG-CC-PVTZ
  Basis Set: (AUG-CC-PVTZ AUX)
    Blend: AUG-CC-PVTZ-JKFIT + DEF2-UNIVERSAL-JKFIT
  @DF-RHF Final Energy:   -76.06030963260861
    Total Energy =                        -76.0603096326086074
  //            Monomer B HF           //
    Molecular point group: c1

    Geometry (in Angstrom), charge = 1, multiplicity = 1:

       Center              X                  Y                   Z               Mass
    ------------   -----------------  -----------------  -----------------  -----------------
      Gh(O)           0.000000000000     0.000000000000     0.000000000000    15.994914619570
      Gh(H)          -0.588073000000     0.760558000000     0.000000000000     1.007825032230
      Gh(H)          -0.588073000000    -0.760558000000     0.000000000000     1.007825032230
         NA           4.317880000000     0.000000000000     0.000000000000    22.989769282000

  Charge       = 1
  Multiplicity = 1
  Basis Set: AUG-CC-PVTZ
    Blend: AUG-CC-PVTZ
  Basis Set: (AUG-CC-PVTZ AUX)
    Blend: AUG-CC-PVTZ-JKFIT + DEF2-UNIVERSAL-JKFIT

    Orbital Energies [Eh]
    ---------------------

    Doubly Occupied:

       1A    -40.763768     2A     -3.075349     3A     -1.798509
       4A     -1.798491     5A     -1.798490

  @DF-RHF Final Energy:  -161.67602515686059

   => Energetics <=

    Nuclear Repulsion Energy =              0.0000000000000000
    One-Electron Energy =                -224.8828351112854591
    Two-Electron Energy =                  63.2068099544248554
    Total Energy =                       -161.6760251568605895
 Dipole X            :        -81.5962066           89.7557171            8.1595105
 Dipole Y            :         -0.0000000            0.0000000           -0.0000000
 Dipole Z            :          0.0000000            0.0000000            0.0000000
 Magnitude           :                                                    8.1595105

    SAPT Results
  --------------------------------------------------------------------------------------------------------
    Electrostatics                -10.52456855 [mEh]      -6.60426647 [kcal/mol]     -27.63225093 [kJ/mol]
      Elst10,r                    -11.24857810 [mEh]      -7.05858933 [kcal/mol]     -29.53313774 [kJ/mol]
      Elst12,r                      0.72400955 [mEh]       0.45432285 [kcal/mol]       1.90088681 [kJ/mol]

    Exchange                        0.00323519 [mEh]       0.00203011 [kcal/mol]       0.00849398 [kJ/mol]
      Exch10                        0.00234058 [mEh]       0.00146873 [kcal/mol]       0.00614518 [kJ/mol]
      Exch10(S^2)                   0.00234057 [mEh]       0.00146873 [kcal/mol]       0.00614517 [kJ/mol]
      Exch11(S^2)                  -0.00000964 [mEh]      -0.00000605 [kcal/mol]      -0.00002530 [kJ/mol]
      Exch12(S^2)                   0.00090425 [mEh]       0.00056742 [kcal/mol]       0.00237410 [kJ/mol]

    Induction                      -1.02454602 [mEh]      -0.64291233 [kcal/mol]      -2.68994519 [kJ/mol]
      Ind20,r                      -0.90927224 [mEh]      -0.57057694 [kcal/mol]      -2.38729393 [kJ/mol]
      Ind22                        -0.09386486 [mEh]      -0.05890109 [kcal/mol]      -0.24644215 [kJ/mol]
      Exch-Ind20,r                  0.00312399 [mEh]       0.00196034 [kcal/mol]       0.00820205 [kJ/mol]
      Exch-Ind22                    0.00032249 [mEh]       0.00020237 [kcal/mol]       0.00084670 [kJ/mol]
      delta HF,r (2)               -0.02485541 [mEh]      -0.01559700 [kcal/mol]      -0.06525786 [kJ/mol]

    Dispersion                     -0.01149427 [mEh]      -0.00721276 [kcal/mol]      -0.03017821 [kJ/mol]
      Disp20                       -0.00946274 [mEh]      -0.00593796 [kcal/mol]      -0.02484443 [kJ/mol]
      Disp21                       -0.00048832 [mEh]      -0.00030643 [kcal/mol]      -0.00128209 [kJ/mol]
      Disp22 (SDQ)                 -0.00059721 [mEh]      -0.00037476 [kcal/mol]      -0.00156798 [kJ/mol]
      Disp22 (T)                   -0.00091107 [mEh]      -0.00057171 [kcal/mol]      -0.00239203 [kJ/mol]
      Est. Disp22 (T)              -0.00097617 [mEh]      -0.00061256 [kcal/mol]      -0.00256293 [kJ/mol]
      Exch-Disp20                   0.00003018 [mEh]       0.00001894 [kcal/mol]       0.00007923 [kJ/mol]

  Total HF                        -12.17724118 [mEh]      -7.64133420 [kcal/mol]     -31.97134230 [kJ/mol]
  Total SAPT0                     -12.18667374 [mEh]      -7.64725323 [kcal/mol]     -31.99610751 [kJ/mol]
  Total SAPT2                     -11.55531195 [mEh]      -7.25106772 [kcal/mol]     -30.33846734 [kJ/mol]
  Total SAPT2+                    -11.55737365 [mEh]      -7.25236146 [kcal/mol]     -30.34388035 [kJ/mol]

  Special recipe for scaled SAPT0 (see Manual):
    Electrostatics sSAPT0         -11.24857810 [mEh]      -7.05858933 [kcal/mol]     -29.53313774 [kJ/mol]
    Exchange sSAPT0                 0.00234058 [mEh]       0.00146873 [kcal/mol]       0.00614518 [kJ/mol]
    Induction sSAPT0               -0.93100365 [mEh]      -0.58421361 [kcal/mol]      -2.44434974 [kJ/mol]
    Dispersion sSAPT0              -0.00943257 [mEh]      -0.00591903 [kcal/mol]      -0.02476520 [kJ/mol]
  Total sSAPT0                    -12.18667374 [mEh]      -7.64725323 [kcal/mol]     -31.99610751 [kJ/mol]
  --------------------------------------------------------------------------------------------------------

*** Psi4 exiting successfully. Buy a developer a beer!
