                               Psi4 1.9 release

  ==> Input File <==

--------------------------------------------------------------------------
MEMORY 60 GB

molecule dimer {
0 1
O      0.000000     0.000000     0.000000
H     -0.588073     0.760558     0.000000
H     -0.588073    -0.760558     0.000000
--
1 1
Na     3.022516     0.000000     0.000000

units ang
no_reorient
no_com
symmetry c1
}

set {
basis        aug-cc-pVTZ
scf_type     df
}

energy("sapt2+")
--------------------------------------------------------------------------

  //              Dimer HF             //
    Molecular point group: c1
  Charge       = 1
  Multiplicity = 1
  Basis Set: AUG-CC-PVTZ
    Blend: AUG-CC-PVTZ
  Basis Set: (AUG-CC-PVTZ AUX)
    Blend: AUG-CC-PVTZ-JKFIT + DEF2-UNIVERSAL-JKFIT
  @DF-RHF Final Energy:  -237.76209832827533
    Total Energy =                       -237.7620983282753286
 Dipole X            :        -55.9261812           60.6064081            4.6802269
 Dipole Y            :          0.0000000            0.0000000            0.0000000
 Dipole Z            :         -0.0000000            0.0000000           -0.0000000
 Magnitude           :                                                    4.6802269
  //            Monomer A HF           //
    Molecular point group: c1
  Multiplicity = 1
  Basis Set: AUG-CC-PVTZ
    Blend: AUG-CC-PVTZ
  Basis Set: (AUG-CC-PVTZ AUX)
    Blend: AUG-CC-PVTZ-JKFIT + DEF2-UNIVERSAL-JKFIT
  @DF-RHF Final Energy:   -76.06032135634585
    Total Energy =                        -76.0603213563458525
  //            Monomer B HF           //
    Molecular point group: c1

    Geometry (in Angstrom), charge = 1, multiplicity = 1:

       Center              X                  Y                   Z               Mass
    ------------   -----------------  -----------------  -----------------  -----------------
      Gh(O)           0.000000000000     0.000000000000     0.000000000000    15.994914619570
      Gh(H)          -0.588073000000     0.760558000000     0.000000000000     1.007825032230
      Gh(H)          -0.588073000000    -0.760558000000     0.000000000000     1.007825032230
         NA           3.022516000000     0.000000000000     0.000000000000    22.989769282000

  Charge       = 1
  Multiplicity = 1
  Basis Set: AUG-CC-PVTZ
    Blend: AUG-CC-PVTZ
  Basis Set: (AUG-CC-PVTZ AUX)
    Blend: AUG-CC-PVTZ-JKFIT + DEF2-UNIVERSAL-JKFIT

    Orbital Energies [Eh]
    ---------------------

    Doubly Occupied:

       1A    -40.763301     2A     -3.075136     3A     -1.798378
       4A     -1.798279     5A     -1.798272

  @DF-RHF Final Energy:  -161.67603204865824

   => Energetics <=

    Nuclear Repulsion Energy =              0.0000000000000000
    One-Electron Energy =                -224.8853334670347692
    Two-Electron Energy =                  63.2093014183765405
    Total Energy =                       -161.6760320486582145
 Dipole X            :        -57.1178370           62.8290019            5.7111650
 Dipole Y            :         -0.0000000            0.0000000           -0.0000000
 Dipole Z            :         -0.0000000            0.0000000           -0.0000000
 Magnitude           :                                                    5.7111650

    SAPT Results
  --------------------------------------------------------------------------------------------------------
    Electrostatics                -20.93938229 [mEh]     -13.13966076 [kcal/mol]     -54.97634063 [kJ/mol]
      Elst10,r                    -22.34908570 [mEh]     -14.02426300 [kcal/mol]     -58.67751641 [kJ/mol]
      Elst12,r                      1.40970341 [mEh]       0.88460224 [kcal/mol]       3.70117578 [kJ/mol]

    Exchange                        0.53364790 [mEh]       0.33486911 [kcal/mol]       1.40109237 [kJ/mol]
      Exch10                        0.44184340 [mEh]       0.27726092 [kcal/mol]       1.16005970 [kJ/mol]
      Exch10(S^2)                   0.44177696 [mEh]       0.27721923 [kcal/mol]       1.15988526 [kJ/mol]
      Exch11(S^2)                  -0.00189846 [mEh]      -0.00119130 [kcal/mol]      -0.00498440 [kJ/mol]
      Exch12(S^2)                   0.09370295 [mEh]       0.05879949 [kcal/mol]       0.24601707 [kJ/mol]

    Induction                      -4.26089013 [mEh]      -2.67374892 [kcal/mol]     -11.18696549 [kJ/mol]
      Ind20,r                      -4.26401528 [mEh]      -2.67570998 [kcal/mol]     -11.19517057 [kJ/mol]
      Ind22                        -0.48028343 [mEh]      -0.30138240 [kcal/mol]      -1.26098396 [kJ/mol]
      Exch-Ind20,r                  0.50671244 [mEh]       0.31796686 [kcal/mol]       1.33037334 [kJ/mol]
      Exch-Ind22                    0.05707428 [mEh]       0.03581465 [kcal/mol]       0.14984849 [kJ/mol]
      delta HF,r (2)               -0.08037814 [mEh]      -0.05043805 [kcal/mol]      -0.21103279 [kJ/mol]

    Dispersion                     -0.11848638 [mEh]      -0.07435132 [kcal/mol]      -0.31108594 [kJ/mol]
      Disp20                       -0.10098032 [mEh]      -0.06336611 [kcal/mol]      -0.26512379 [kJ/mol]
      Disp21                       -0.00693897 [mEh]      -0.00435427 [kcal/mol]      -0.01821826 [kJ/mol]
      Disp22 (SDQ)                 -0.00606024 [mEh]      -0.00380286 [kcal/mol]      -0.01591116 [kJ/mol]
      Disp22 (T)                   -0.00840002 [mEh]      -0.00527109 [kcal/mol]      -0.02205425 [kJ/mol]
      Est. Disp22 (T)              -0.00963736 [mEh]      -0.00604753 [kcal/mol]      -0.02530289 [kJ/mol]
      Exch-Disp20                   0.00513051 [mEh]       0.00321944 [kcal/mol]       0.01347015 [kJ/mol]

  Total HF                        -25.74492327 [mEh]     -16.15518325 [kcal/mol]     -67.59328674 [kJ/mol]
  Total SAPT0                     -25.84077308 [mEh]     -16.21532992 [kcal/mol]     -67.84494038 [kJ/mol]
  Total SAPT2                     -24.76247433 [mEh]     -15.53868723 [kcal/mol]     -65.01386738 [kJ/mol]
  Total SAPT2+                    -24.78511089 [mEh]     -15.55289189 [kcal/mol]     -65.07329969 [kJ/mol]

  Special recipe for scaled SAPT0 (see Manual):
    Electrostatics sSAPT0         -22.34908570 [mEh]     -14.02426300 [kcal/mol]     -58.67751641 [kJ/mol]
    Exchange sSAPT0                 0.44184340 [mEh]       0.27726092 [kcal/mol]       1.16005970 [kJ/mol]
    Induction sSAPT0               -3.83745233 [mEh]      -2.40803769 [kcal/mol]     -10.07522971 [kJ/mol]
    Dispersion sSAPT0              -0.09584749 [mEh]      -0.06014521 [kcal/mol]      -0.25164756 [kJ/mol]
  Total sSAPT0                    -25.84054212 [mEh]     -16.21518499 [kcal/mol]     -67.84433399 [kJ/mol]
  --------------------------------------------------------------------------------------------------------

*** Psi4 exiting successfully. Buy a developer a beer!
