                               Psi4 1.9 release

  ==> Input File <==

--------------------------------------------------------------------------
MEMORY 60 GB

molecule dimer {
0 1
O      0.000000     0.000000     0.000000
H     -0.588073     0.760558     0.000000
H     -0.588073    -0.760558     0.000000
--
1 1
Na     2.806622     0.000000     0.000000

units ang
no_reorient
no_com
symmetry c1
}

set {
basis        aug-cc-pVTZ
scf_type     df
}

energy("sapt2+")
--------------------------------------------------------------------------

  //              Dimer HF             //
    Molecular point group: c1
  Charge       = 1
  Multiplicity = 1
  Basis Set: AUG-CC-PVTZ
    Blend: AUG-CC-PVTZ
  Basis Set: (AUG-CC-PVTZ AUX)
    Blend: AUG-CC-PVTZ-JKFIT + DEF2-UNIVERSAL-JKFIT
  @DF-RHF Final Energy:  -237.76599377388490
    Total Energy =                       -237.7659937738849010
 Dipole X            :        -51.8764444           56.1186223            4.2421779
 Dipole Y            :          0.0000000            0.0000000            0.0000000
 Dipole Z            :          0.0000000            0.0000000            0.0000000
 Magnitude           :                                                    4.2421779
  //            Monomer A HF           //
    Molecular point group: c1
  Multiplicity = 1
  Basis Set: AUG-CC-PVTZ
    Blend: AUG-CC-PVTZ
  Basis Set: (AUG-CC-PVTZ AUX)
    Blend: AUG-CC-PVTZ-JKFIT + DEF2-UNIVERSAL-JKFIT
  @DF-RHF Final Energy:   -76.06033210129777
    Total Energy =                        -76.0603321012977744
  //            Monomer B HF           //
    Molecular point group: c1

    Geometry (in Angstrom), charge = 1, multiplicity = 1:

       Center              X                  Y                   Z               Mass
    ------------   -----------------  -----------------  -----------------  -----------------
      Gh(O)           0.000000000000     0.000000000000     0.000000000000    15.994914619570
      Gh(H)          -0.588073000000     0.760558000000     0.000000000000     1.007825032230
      Gh(H)          -0.588073000000    -0.760558000000     0.000000000000     1.007825032230
         NA           2.806622000000     0.000000000000     0.000000000000    22.989769282000

  Charge       = 1
  Multiplicity = 1
  Basis Set: AUG-CC-PVTZ
    Blend: AUG-CC-PVTZ
  Basis Set: (AUG-CC-PVTZ AUX)
    Blend: AUG-CC-PVTZ-JKFIT + DEF2-UNIVERSAL-JKFIT

    Orbital Energies [Eh]
    ---------------------

    Doubly Occupied:

       1A    -40.763315     2A     -3.075137     3A     -1.798373
       4A     -1.798283     5A     -1.798277

  @DF-RHF Final Energy:  -161.67603311109772

   => Energetics <=

    Nuclear Repulsion Energy =              0.0000000000000000
    One-Electron Energy =                -224.8852970154938760
    Two-Electron Energy =                  63.2092639043961597
    Total Energy =                       -161.6760331110977233
 Dipole X            :        -53.0380248           58.3412161            5.3031912
 Dipole Y            :         -0.0000000            0.0000000           -0.0000000
 Dipole Z            :         -0.0000000            0.0000000           -0.0000000
 Magnitude           :                                                    5.3031912

    SAPT Results
  --------------------------------------------------------------------------------------------------------
    Electrostatics                -24.19479048 [mEh]     -15.18246024 [kcal/mol]     -63.52341365 [kJ/mol]
      Elst10,r                    -25.79864857 [mEh]     -16.18889639 [kcal/mol]     -67.73434249 [kJ/mol]
      Elst12,r                      1.60385809 [mEh]       1.00643615 [kcal/mol]       4.21092883 [kJ/mol]

    Exchange                        1.28475772 [mEh]       0.80619764 [kcal/mol]       3.37313093 [kJ/mol]
      Exch10                        1.09512665 [mEh]       0.68720234 [kcal/mol]       2.87525461 [kJ/mol]
      Exch10(S^2)                   1.09473014 [mEh]       0.68695353 [kcal/mol]       2.87421357 [kJ/mol]
      Exch11(S^2)                  -0.00506742 [mEh]      -0.00317985 [kcal/mol]      -0.01330451 [kJ/mol]
      Exch12(S^2)                   0.19469850 [mEh]       0.12217515 [kcal/mol]       0.51118083 [kJ/mol]

    Induction                      -5.49434559 [mEh]      -3.44775391 [kcal/mol]     -14.42540237 [kJ/mol]
      Ind20,r                      -6.14638016 [mEh]      -3.85691178 [kcal/mol]     -16.13731888 [kJ/mol]
      Ind22                        -0.70871493 [mEh]      -0.44472533 [kcal/mol]      -1.86073079 [kJ/mol]
      Exch-Ind20,r                  1.20903351 [mEh]       0.75867998 [kcal/mol]       3.17431705 [kJ/mol]
      Exch-Ind22                    0.13940890 [mEh]       0.08748041 [kcal/mol]       0.36601802 [kJ/mol]
      delta HF,r (2)                0.01230708 [mEh]       0.00772281 [kcal/mol]       0.03231224 [kJ/mol]

    Dispersion                     -0.18503164 [mEh]      -0.11610910 [kcal/mol]      -0.48580049 [kJ/mol]
      Disp20                       -0.16197315 [mEh]      -0.10163968 [kcal/mol]      -0.42526043 [kJ/mol]
      Disp21                       -0.01078730 [mEh]      -0.00676914 [kcal/mol]      -0.02832206 [kJ/mol]
      Disp22 (SDQ)                 -0.00926805 [mEh]      -0.00581579 [kcal/mol]      -0.02433327 [kJ/mol]
      Disp22 (T)                   -0.01267752 [mEh]      -0.00795526 [kcal/mol]      -0.03328483 [kJ/mol]
      Est. Disp22 (T)              -0.01496790 [mEh]      -0.00939250 [kcal/mol]      -0.03929821 [kJ/mol]
      Exch-Disp20                   0.01196476 [mEh]       0.00750800 [kcal/mol]       0.03141349 [kJ/mol]

  Total HF                        -29.62856149 [mEh]     -18.59220303 [kcal/mol]     -77.78977747 [kJ/mol]
  Total SAPT0                     -29.77856987 [mEh]     -18.68633471 [kcal/mol]     -78.18362442 [kJ/mol]
  Total SAPT2                     -28.55438673 [mEh]     -17.91814819 [kcal/mol]     -74.96953204 [kJ/mol]
  Total SAPT2+                    -28.58940999 [mEh]     -17.94012562 [kcal/mol]     -75.06148559 [kJ/mol]

  Special recipe for scaled SAPT0 (see Manual):
    Electrostatics sSAPT0         -25.79864857 [mEh]     -16.18889639 [kcal/mol]     -67.73434249 [kJ/mol]
    Exchange sSAPT0                 1.09512665 [mEh]       0.68720234 [kcal/mol]       2.87525461 [kJ/mol]
    Induction sSAPT0               -4.92372536 [mEh]      -3.08968431 [kcal/mol]     -12.92723915 [kJ/mol]
    Dispersion sSAPT0              -0.14999537 [mEh]      -0.09412352 [kcal/mol]      -0.39381280 [kJ/mol]
  Total sSAPT0                    -29.77724266 [mEh]     -18.68550187 [kcal/mol]     -78.18013983 [kJ/mol]
  --------------------------------------------------------------------------------------------------------

*** Psi4 exiting successfully. Buy a developer a beer!
