                               Psi4 1.9 release

  ==> Input File <==

--------------------------------------------------------------------------
MEMORY 60 GB

molecule dimer {
0 1
O      0.000000     0.000000     0.000000
H     -0.588073     0.760558     0.000000
H     -0.588073    -0.760558     0.000000
--
1 1
Na     1.727152     0.000000     0.000000

units ang
no_reorient
no_com
symmetry c1
}

set {
basis        aug-cc-pVTZ
scf_type     df
}

energy("sapt2+")
--------------------------------------------------------------------------

  //              Dimer HF             //
    Molecular point group: c1
  Charge       = 1
  Multiplicity = 1
  Basis Set: AUG-CC-PVTZ
    Blend: AUG-CC-PVTZ
  Basis Set: (AUG-CC-PVTZ AUX)
    Blend: AUG-CC-PVTZ-JKFIT + DEF2-UNIVERSAL-JKFIT
  @DF-RHF Final Energy:  -237.73271913251972
    Total Energy =                       -237.7327191325197191
 Dipole X            :        -31.5222674           33.6796930            2.1574256
 Dipole Y            :         -0.0000000            0.0000000           -0.0000000
 Dipole Z            :         -0.0000000            0.0000000           -0.0000000
 Magnitude           :                                                    2.1574256
  //            Monomer A HF           //
    Molecular point group: c1
  Multiplicity = 1
  Basis Set: AUG-CC-PVTZ
    Blend: AUG-CC-PVTZ
  Basis Set: (AUG-CC-PVTZ AUX)
    Blend: AUG-CC-PVTZ-JKFIT + DEF2-UNIVERSAL-JKFIT
  @DF-RHF Final Energy:   -76.06038897549186
    Total Energy =                        -76.0603889754918612
  //            Monomer B HF           //
    Molecular point group: c1

    Geometry (in Angstrom), charge = 1, multiplicity = 1:

       Center              X                  Y                   Z               Mass
    ------------   -----------------  -----------------  -----------------  -----------------
      Gh(O)           0.000000000000     0.000000000000     0.000000000000    15.994914619570
      Gh(H)          -0.588073000000     0.760558000000     0.000000000000     1.007825032230
      Gh(H)          -0.588073000000    -0.760558000000     0.000000000000     1.007825032230
         NA           1.727152000000     0.000000000000     0.000000000000    22.989769282000

  Charge       = 1
  Multiplicity = 1
  Basis Set: AUG-CC-PVTZ
    Blend: AUG-CC-PVTZ
  Basis Set: (AUG-CC-PVTZ AUX)
    Blend: AUG-CC-PVTZ-JKFIT + DEF2-UNIVERSAL-JKFIT

    Orbital Energies [Eh]
    ---------------------

    Doubly Occupied:

       1A    -40.760854     2A     -3.074095     3A     -1.797474
       4A     -1.797385     5A     -1.797335

  @DF-RHF Final Energy:  -161.67606562330886

   => Energetics <=

    Nuclear Repulsion Energy =              0.0000000000000000
    One-Electron Energy =                -224.8978439550028838
    Two-Electron Energy =                  63.2217783316940469
    Total Energy =                       -161.6760656233088298
 Dipole X            :        -32.6386814           35.9022868            3.2636054
 Dipole Y            :          0.0000000            0.0000000            0.0000000
 Dipole Z            :          0.0000000            0.0000000            0.0000000
 Magnitude           :                                                    3.2636054

    SAPT Results
  --------------------------------------------------------------------------------------------------------
    Electrostatics                -81.77313069 [mEh]     -51.31341421 [kcal/mol]    -214.69532504 [kJ/mol]
      Elst10,r                    -84.85591588 [mEh]     -53.24789112 [kcal/mol]    -222.78917646 [kJ/mol]
      Elst12,r                      3.08278520 [mEh]       1.93447692 [kcal/mol]       8.09385142 [kJ/mol]

    Exchange                      106.36073347 [mEh]      66.74236789 [kcal/mol]     279.25006724 [kJ/mol]
      Exch10                      103.20960522 [mEh]      64.76500506 [kcal/mol]     270.97678116 [kJ/mol]
      Exch10(S^2)                 100.63862599 [mEh]      63.15169123 [kcal/mol]     264.22667613 [kJ/mol]
      Exch11(S^2)                  -1.15146081 [mEh]      -0.72255257 [kcal/mol]      -3.02315994 [kJ/mol]
      Exch12(S^2)                   4.30258906 [mEh]       2.69991540 [kcal/mol]      11.29644602 [kJ/mol]

    Induction                     -16.36384212 [mEh]     -10.26846596 [kcal/mol]     -42.96326158 [kJ/mol]
      Ind20,r                    -112.67438052 [mEh]     -70.70424123 [kcal/mol]    -295.82654530 [kJ/mol]
      Ind22                        -9.13119741 [mEh]      -5.72991288 [kcal/mol]     -23.97395550 [kJ/mol]
      Exch-Ind20,r                 91.13431970 [mEh]      57.18764900 [kcal/mol]     239.27312341 [kJ/mol]
      Exch-Ind22                    7.38557834 [mEh]       4.63452038 [kcal/mol]      19.39083326 [kJ/mol]
      delta HF,r (2)                6.92183777 [mEh]       4.34351878 [kcal/mol]      18.17328256 [kJ/mol]

    Dispersion                     -3.23510717 [mEh]      -2.03006040 [kcal/mol]      -8.49377270 [kJ/mol]
      Disp20                       -4.03104031 [mEh]      -2.52951598 [kcal/mol]     -10.58349486 [kJ/mol]
      Disp21                        0.11067671 [mEh]       0.06945068 [kcal/mol]       0.29058165 [kJ/mol]
      Disp22 (SDQ)                 -0.22432351 [mEh]      -0.14076513 [kcal/mol]      -0.58896130 [kJ/mol]
      Disp22 (T)                   -0.28964057 [mEh]      -0.18175220 [kcal/mol]      -0.76045120 [kJ/mol]
      Est. Disp22 (T)              -0.33020403 [mEh]      -0.20720615 [kcal/mol]      -0.86695055 [kJ/mol]
      Exch-Disp20                   1.23978397 [mEh]       0.77797618 [kcal/mol]       3.25505236 [kJ/mol]

  Total HF                          3.73546628 [mEh]       2.34404048 [kcal/mol]       9.80746537 [kJ/mol]
  Total SAPT0                       0.94420994 [mEh]       0.59250068 [kcal/mol]       2.47902286 [kJ/mol]
  Total SAPT2                       5.43250432 [mEh]       3.40894793 [kcal/mol]      14.26303812 [kJ/mol]
  Total SAPT2+                      4.98865349 [mEh]       3.13042732 [kcal/mol]      13.09770792 [kJ/mol]

  Special recipe for scaled SAPT0 (see Manual):
    Electrostatics sSAPT0         -84.85591588 [mEh]     -53.24789112 [kcal/mol]    -222.78917646 [kJ/mol]
    Exchange sSAPT0               103.20960522 [mEh]      64.76500506 [kcal/mol]     270.97678116 [kJ/mol]
    Induction sSAPT0               -7.45374407 [mEh]      -4.67729502 [kcal/mol]     -19.56980236 [kJ/mol]
    Dispersion sSAPT0              -2.69379134 [mEh]      -1.69037959 [kcal/mol]      -7.07254819 [kJ/mol]
  Total sSAPT0                      8.20615392 [mEh]       5.14943933 [kcal/mol]      21.54525415 [kJ/mol]
  --------------------------------------------------------------------------------------------------------

*** Psi4 exiting successfully. Buy a developer a beer!
