                               Psi4 1.9 release

  ==> Input File <==

--------------------------------------------------------------------------
MEMORY 60 GB

molecule dimer {
0 1
O      0.000000     0.000000     0.000000
H     -0.588073     0.760558     0.000000
H     -0.588073    -0.760558     0.000000
--
1 1
Na     3.238410     0.000000     0.000000

units ang
no_reorient
no_com
symmetry c1
}

set {
basis        aug-cc-pVTZ
scf_type     df
}

energy("sapt2+")
--------------------------------------------------------------------------

  //              Dimer HF             //
    Molecular point group: c1
  Charge       = 1
  Multiplicity = 1
  Basis Set: AUG-CC-PVTZ
    Blend: AUG-CC-PVTZ
  Basis Set: (AUG-CC-PVTZ AUX)
    Blend: AUG-CC-PVTZ-JKFIT + DEF2-UNIVERSAL-JKFIT
  @DF-RHF Final Energy:  -237.75872934645824
    Total Energy =                       -237.7587293464582388
 Dipole X            :        -59.9776318           65.0941940            5.1165622
 Dipole Y            :          0.0000000            0.0000000            0.0000000
 Dipole Z            :         -0.0000000            0.0000000           -0.0000000
 Magnitude           :                                                    5.1165622
  //            Monomer A HF           //
    Molecular point group: c1
  Multiplicity = 1
  Basis Set: AUG-CC-PVTZ
    Blend: AUG-CC-PVTZ
  Basis Set: (AUG-CC-PVTZ AUX)
    Blend: AUG-CC-PVTZ-JKFIT + DEF2-UNIVERSAL-JKFIT
  @DF-RHF Final Energy:   -76.06031570758144
    Total Energy =                        -76.0603157075814380
  //            Monomer B HF           //
    Molecular point group: c1

    Geometry (in Angstrom), charge = 1, multiplicity = 1:

       Center              X                  Y                   Z               Mass
    ------------   -----------------  -----------------  -----------------  -----------------
      Gh(O)           0.000000000000     0.000000000000     0.000000000000    15.994914619570
      Gh(H)          -0.588073000000     0.760558000000     0.000000000000     1.007825032230
      Gh(H)          -0.588073000000    -0.760558000000     0.000000000000     1.007825032230
         NA           3.238410000000     0.000000000000     0.000000000000    22.989769282000

  Charge       = 1
  Multiplicity = 1
  Basis Set: AUG-CC-PVTZ
    Blend: AUG-CC-PVTZ
  Basis Set: (AUG-CC-PVTZ AUX)
    Blend: AUG-CC-PVTZ-JKFIT + DEF2-UNIVERSAL-JKFIT

    Orbital Energies [Eh]
    ---------------------

    Doubly Occupied:

       1A    -40.763349     2A     -3.075162     3A     -1.798399
       4A     -1.798302     5A     -1.798295

  @DF-RHF Final Energy:  -161.67603136579595

   => Energetics <=

    Nuclear Repulsion Energy =              0.0000000000000000
    One-Electron Energy =                -224.8850514214495036
    Two-Electron Energy =                  63.2090200556535606
    Total Energy =                       -161.6760313657959500
 Dipole X            :        -61.1975770           67.3167878            6.1192108
 Dipole Y            :          0.0000000            0.0000000            0.0000000
 Dipole Z            :         -0.0000000            0.0000000           -0.0000000
 Magnitude           :                                                    6.1192108

    SAPT Results
  --------------------------------------------------------------------------------------------------------
    Electrostatics                -18.33431949 [mEh]     -11.50495917 [kcal/mol]     -48.13674918 [kJ/mol]
      Elst10,r                    -19.57907759 [mEh]     -12.28605667 [kcal/mol]     -51.40486112 [kJ/mol]
      Elst12,r                      1.24475810 [mEh]       0.78109750 [kcal/mol]       3.26811194 [kJ/mol]

    Exchange                        0.22307385 [mEh]       0.13998096 [kcal/mol]       0.58568032 [kJ/mol]
      Exch10                        0.17957164 [mEh]       0.11268291 [kcal/mol]       0.47146528 [kJ/mol]
      Exch10(S^2)                   0.17956037 [mEh]       0.11267583 [kcal/mol]       0.47143568 [kJ/mol]
      Exch11(S^2)                  -0.00073753 [mEh]      -0.00046281 [kcal/mol]      -0.00193638 [kJ/mol]
      Exch12(S^2)                   0.04423974 [mEh]       0.02776086 [kcal/mol]       0.11615142 [kJ/mol]

    Induction                      -3.29935610 [mEh]      -2.07037721 [kcal/mol]      -8.66245824 [kJ/mol]
      Ind20,r                      -3.09538841 [mEh]      -1.94238555 [kcal/mol]      -8.12694114 [kJ/mol]
      Ind22                        -0.33993038 [mEh]      -0.21330953 [kcal/mol]      -0.89248709 [kJ/mol]
      Exch-Ind20,r                  0.21254576 [mEh]       0.13337448 [kcal/mol]       0.55803881 [kJ/mol]
      Exch-Ind22                    0.02334142 [mEh]       0.01464696 [kcal/mol]       0.06128289 [kJ/mol]
      delta HF,r (2)               -0.09992449 [mEh]      -0.06270356 [kcal/mol]      -0.26235171 [kJ/mol]

    Dispersion                     -0.07654483 [mEh]      -0.04803261 [kcal/mol]      -0.20096842 [kJ/mol]
      Disp20                       -0.06415045 [mEh]      -0.04025501 [kcal/mol]      -0.16842697 [kJ/mol]
      Disp21                       -0.00436773 [mEh]      -0.00274079 [kcal/mol]      -0.01146749 [kJ/mol]
      Disp22 (SDQ)                 -0.00400053 [mEh]      -0.00251037 [kcal/mol]      -0.01050338 [kJ/mol]
      Disp22 (T)                   -0.00544855 [mEh]      -0.00341902 [kcal/mol]      -0.01430516 [kJ/mol]
      Est. Disp22 (T)              -0.00623738 [mEh]      -0.00391402 [kcal/mol]      -0.01637625 [kJ/mol]
      Exch-Disp20                   0.00221126 [mEh]       0.00138759 [kcal/mol]       0.00580567 [kJ/mol]

  Total HF                        -22.38227308 [mEh]     -14.04508840 [kcal/mol]     -58.76464988 [kJ/mol]
  Total SAPT0                     -22.44421227 [mEh]     -14.08395583 [kcal/mol]     -58.92727119 [kJ/mol]
  Total SAPT2                     -21.47254092 [mEh]     -13.47422285 [kcal/mol]     -56.37614841 [kJ/mol]
  Total SAPT2+                    -21.48714656 [mEh]     -13.48338803 [kcal/mol]     -56.41449553 [kJ/mol]

  Special recipe for scaled SAPT0 (see Manual):
    Electrostatics sSAPT0         -19.57907759 [mEh]     -12.28605667 [kcal/mol]     -51.40486112 [kJ/mol]
    Exchange sSAPT0                 0.17957164 [mEh]       0.11268291 [kcal/mol]       0.47146528 [kJ/mol]
    Induction sSAPT0               -2.98272709 [mEh]      -1.87168951 [kcal/mol]      -7.83114891 [kJ/mol]
    Dispersion sSAPT0              -0.06193877 [mEh]      -0.03886716 [kcal/mol]      -0.16262022 [kJ/mol]
  Total sSAPT0                    -22.44417181 [mEh]     -14.08393044 [kcal/mol]     -58.92716496 [kJ/mol]
  --------------------------------------------------------------------------------------------------------

*** Psi4 exiting successfully. Buy a developer a beer!
