                               Psi4 1.9 release

  ==> Input File <==

--------------------------------------------------------------------------
MEMORY 60 GB

molecule dimer {
0 1
O      0.000000     0.000000     0.000000
H     -0.588073     0.760558     0.000000
H     -0.588073    -0.760558     0.000000
--
1 1
Na     2.590728     0.000000     0.000000

units ang
no_reorient
no_com
symmetry c1
}

set {
basis        aug-cc-pVTZ
scf_type     df
}

energy("sapt2+")
--------------------------------------------------------------------------

  //              Dimer HF             //
    Molecular point group: c1
  Charge       = 1
  Multiplicity = 1
  Basis Set: AUG-CC-PVTZ
    Blend: AUG-CC-PVTZ
  Basis Set: (AUG-CC-PVTZ AUX)
    Blend: AUG-CC-PVTZ-JKFIT + DEF2-UNIVERSAL-JKFIT
  @DF-RHF Final Energy:  -237.77017472432127
    Total Energy =                       -237.7701747243212935
 Dipole X            :        -47.8262549           51.6308364            3.8045815
 Dipole Y            :          0.0000000            0.0000000            0.0000000
 Dipole Z            :         -0.0000000            0.0000000           -0.0000000
 Magnitude           :                                                    3.8045815
  //            Monomer A HF           //
    Molecular point group: c1
  Multiplicity = 1
  Basis Set: AUG-CC-PVTZ
    Blend: AUG-CC-PVTZ
  Basis Set: (AUG-CC-PVTZ AUX)
    Blend: AUG-CC-PVTZ-JKFIT + DEF2-UNIVERSAL-JKFIT
  @DF-RHF Final Energy:   -76.06034746606252
    Total Energy =                        -76.0603474660625238
  //            Monomer B HF           //
    Molecular point group: c1

    Geometry (in Angstrom), charge = 1, multiplicity = 1:

       Center              X                  Y                   Z               Mass
    ------------   -----------------  -----------------  -----------------  -----------------
      Gh(O)           0.000000000000     0.000000000000     0.000000000000    15.994914619570
      Gh(H)          -0.588073000000     0.760558000000     0.000000000000     1.007825032230
      Gh(H)          -0.588073000000    -0.760558000000     0.000000000000     1.007825032230
         NA           2.590728000000     0.000000000000     0.000000000000    22.989769282000

  Charge       = 1
  Multiplicity = 1
  Basis Set: AUG-CC-PVTZ
    Blend: AUG-CC-PVTZ
  Basis Set: (AUG-CC-PVTZ AUX)
    Blend: AUG-CC-PVTZ-JKFIT + DEF2-UNIVERSAL-JKFIT

    Orbital Energies [Eh]
    ---------------------

    Doubly Occupied:

       1A    -40.763299     2A     -3.075126     3A     -1.798365
       4A     -1.798272     5A     -1.798266

  @DF-RHF Final Energy:  -161.67603562366020

   => Energetics <=

    Nuclear Repulsion Energy =              0.0000000000000000
    One-Electron Energy =                -224.8854122640166509
    Two-Electron Energy =                  63.2093766403564388
    Total Energy =                       -161.6760356236601979
 Dipole X            :        -48.9581909           53.8534302            4.8952394
 Dipole Y            :         -0.0000000            0.0000000           -0.0000000
 Dipole Z            :         -0.0000000            0.0000000           -0.0000000
 Magnitude           :                                                    4.8952394

    SAPT Results
  --------------------------------------------------------------------------------------------------------
    Electrostatics                -28.41849408 [mEh]     -17.83287427 [kcal/mol]     -74.61274594 [kJ/mol]
      Elst10,r                    -30.25056069 [mEh]     -18.98251342 [kcal/mol]     -79.42283616 [kJ/mol]
      Elst12,r                      1.83206661 [mEh]       1.14963915 [kcal/mol]       4.81009022 [kJ/mol]

    Exchange                        3.10579650 [mEh]       1.94891673 [kcal/mol]       8.15426759 [kJ/mol]
      Exch10                        2.72599342 [mEh]       1.71058669 [kcal/mol]       7.15709473 [kJ/mol]
      Exch10(S^2)                   2.72362094 [mEh]       1.70909794 [kcal/mol]       7.15086580 [kJ/mol]
      Exch11(S^2)                  -0.01398428 [mEh]      -0.00877527 [kcal/mol]      -0.03671572 [kJ/mol]
      Exch12(S^2)                   0.39378736 [mEh]       0.24710530 [kcal/mol]       1.03388858 [kJ/mol]

    Induction                      -7.02613628 [mEh]      -4.40896708 [kcal/mol]     -18.44711826 [kJ/mol]
      Ind20,r                      -9.40075749 [mEh]      -5.89906438 [kcal/mol]     -24.68168538 [kJ/mol]
      Ind22                        -1.09487454 [mEh]      -0.68704415 [kcal/mol]      -2.87459271 [kJ/mol]
      Exch-Ind20,r                  2.88327722 [mEh]       1.80928377 [kcal/mol]       7.57004330 [kJ/mol]
      Exch-Ind22                    0.33580558 [mEh]       0.21072118 [kcal/mol]       0.88165743 [kJ/mol]
      delta HF,r (2)                0.25041295 [mEh]       0.15713650 [kcal/mol]       0.65745910 [kJ/mol]

    Dispersion                     -0.29284324 [mEh]      -0.18376191 [kcal/mol]      -0.76885983 [kJ/mol]
      Disp20                       -0.26672468 [mEh]      -0.16737226 [kcal/mol]      -0.70028555 [kJ/mol]
      Disp21                       -0.01606976 [mEh]      -0.01008393 [kcal/mol]      -0.04219116 [kJ/mol]
      Disp22 (SDQ)                 -0.01457692 [mEh]      -0.00914715 [kcal/mol]      -0.03827170 [kJ/mol]
      Disp22 (T)                   -0.01940194 [mEh]      -0.01217490 [kcal/mol]      -0.05093979 [kJ/mol]
      Est. Disp22 (T)              -0.02382339 [mEh]      -0.01494940 [kcal/mol]      -0.06254830 [kJ/mol]
      Exch-Disp20                   0.02835151 [mEh]       0.01779084 [kcal/mol]       0.07443688 [kJ/mol]

  Total HF                        -33.79163460 [mEh]     -21.20457085 [kcal/mol]     -88.71992442 [kJ/mol]
  Total SAPT0                     -34.03000777 [mEh]     -21.35415227 [kcal/mol]     -89.34577309 [kJ/mol]
  Total SAPT2                     -32.57720703 [mEh]     -20.44250604 [kcal/mol]     -85.53144528 [kJ/mol]
  Total SAPT2+                    -32.63167711 [mEh]     -20.47668653 [kcal/mol]     -85.67445644 [kJ/mol]

  Special recipe for scaled SAPT0 (see Manual):
    Electrostatics sSAPT0         -30.25056069 [mEh]     -18.98251342 [kcal/mol]     -79.42283616 [kJ/mol]
    Exchange sSAPT0                 2.72599342 [mEh]       1.71058669 [kcal/mol]       7.15709473 [kJ/mol]
    Induction sSAPT0               -6.25952612 [mEh]      -3.92791194 [kcal/mol]     -16.43438356 [kJ/mol]
    Dispersion sSAPT0              -0.23829902 [mEh]      -0.14953489 [kcal/mol]      -0.62565399 [kJ/mol]
  Total sSAPT0                    -34.02239242 [mEh]     -21.34937356 [kcal/mol]     -89.32577898 [kJ/mol]
  --------------------------------------------------------------------------------------------------------

*** Psi4 exiting successfully. Buy a developer a beer!
