                               Psi4 1.9 release

  ==> Input File <==

--------------------------------------------------------------------------
MEMORY 60 GB

molecule dimer {
0 1
O      0.000000     0.000000     0.000000
H     -0.588073     0.760558     0.000000
H     -0.588073    -0.760558     0.000000
--
1 1
Na     1.943046     0.000000     0.000000

units ang
no_reorient
no_com
symmetry c1
}

set {
basis        aug-cc-pVTZ
scf_type     df
}

energy("sapt2+")
--------------------------------------------------------------------------

  //              Dimer HF             //
    Molecular point group: c1
  Charge       = 1
  Multiplicity = 1
  Basis Set: AUG-CC-PVTZ
    Blend: AUG-CC-PVTZ
  Basis Set: (AUG-CC-PVTZ AUX)
    Blend: AUG-CC-PVTZ-JKFIT + DEF2-UNIVERSAL-JKFIT
  @DF-RHF Final Energy:  -237.76579638881941
    Total Energy =                       -237.7657963888194104
 Dipole X            :        -35.6285138           38.1674789            2.5389650
 Dipole Y            :         -0.0000000            0.0000000           -0.0000000
 Dipole Z            :          0.0000000            0.0000000            0.0000000
 Magnitude           :                                                    2.5389650
  //            Monomer A HF           //
    Molecular point group: c1
  Multiplicity = 1
  Basis Set: AUG-CC-PVTZ
    Blend: AUG-CC-PVTZ
  Basis Set: (AUG-CC-PVTZ AUX)
    Blend: AUG-CC-PVTZ-JKFIT + DEF2-UNIVERSAL-JKFIT
  @DF-RHF Final Energy:   -76.06038070071970
    Total Energy =                        -76.0603807007197190
  //            Monomer B HF           //
    Molecular point group: c1

    Geometry (in Angstrom), charge = 1, multiplicity = 1:

       Center              X                  Y                   Z               Mass
    ------------   -----------------  -----------------  -----------------  -----------------
      Gh(O)           0.000000000000     0.000000000000     0.000000000000    15.994914619570
      Gh(H)          -0.588073000000     0.760558000000     0.000000000000     1.007825032230
      Gh(H)          -0.588073000000    -0.760558000000     0.000000000000     1.007825032230
         NA           1.943046000000     0.000000000000     0.000000000000    22.989769282000

  Charge       = 1
  Multiplicity = 1
  Basis Set: AUG-CC-PVTZ
    Blend: AUG-CC-PVTZ
  Basis Set: (AUG-CC-PVTZ AUX)
    Blend: AUG-CC-PVTZ-JKFIT + DEF2-UNIVERSAL-JKFIT

    Orbital Energies [Eh]
    ---------------------

    Doubly Occupied:

       1A    -40.761808     2A     -3.074496     3A     -1.797824
       4A     -1.797781     5A     -1.797644

  @DF-RHF Final Energy:  -161.67605331053377

   => Energetics <=

    Nuclear Repulsion Energy =              0.0000000000000000
    One-Electron Energy =                -224.8930010914750710
    Two-Electron Energy =                  63.2169477809413110
    Total Energy =                       -161.6760533105337458
 Dipole X            :        -36.7186786           40.3900727            3.6713940
 Dipole Y            :          0.0000000            0.0000000            0.0000000
 Dipole Z            :         -0.0000000            0.0000000           -0.0000000
 Magnitude           :                                                    3.6713940

    SAPT Results
  --------------------------------------------------------------------------------------------------------
    Electrostatics                -56.47268741 [mEh]     -35.43714636 [kcal/mol]    -148.26902037 [kJ/mol]
      Elst10,r                    -59.19425061 [mEh]     -37.14495305 [kcal/mol]    -155.41448356 [kJ/mol]
      Elst12,r                      2.72156320 [mEh]       1.70780669 [kcal/mol]       7.14546319 [kJ/mol]

    Exchange                       43.89650520 [mEh]      27.54547288 [kcal/mol]     115.25025852 [kJ/mol]
      Exch10                       41.65305935 [mEh]      26.13768935 [kcal/mol]     109.36009226 [kJ/mol]
      Exch10(S^2)                  41.19282485 [mEh]      25.84888784 [kcal/mol]     108.15174674 [kJ/mol]
      Exch11(S^2)                  -0.36356858 [mEh]      -0.22814273 [kcal/mol]      -0.95454916 [kJ/mol]
      Exch12(S^2)                   2.60701442 [mEh]       1.63592625 [kcal/mol]       6.84471542 [kJ/mol]

    Induction                     -13.24846351 [mEh]      -8.31353636 [kcal/mol]     -34.78383615 [kJ/mol]
      Ind20,r                     -53.88780420 [mEh]     -33.81510766 [kcal/mol]    -141.48241044 [kJ/mol]
      Ind22                        -5.17245211 [mEh]      -3.24576270 [kcal/mol]     -13.58027114 [kJ/mol]
      Exch-Ind20,r                 39.01809975 [mEh]      24.48422724 [kcal/mol]     102.44200679 [kJ/mol]
      Exch-Ind22                    3.74517491 [mEh]       2.35013274 [kcal/mol]       9.83295538 [kJ/mol]
      delta HF,r (2)                3.04851814 [mEh]       1.91297401 [kcal/mol]       8.00388327 [kJ/mol]

    Dispersion                     -1.59537155 [mEh]      -1.00111076 [kcal/mol]      -4.18864744 [kJ/mol]
      Disp20                       -1.80359945 [mEh]      -1.13177574 [kcal/mol]      -4.73534970 [kJ/mol]
      Disp21                       -0.00398176 [mEh]      -0.00249859 [kcal/mol]      -0.01045410 [kJ/mol]
      Disp22 (SDQ)                 -0.09891688 [mEh]      -0.06207128 [kcal/mol]      -0.25970624 [kJ/mol]
      Disp22 (T)                   -0.13286754 [mEh]      -0.08337564 [kcal/mol]      -0.34884368 [kJ/mol]
      Est. Disp22 (T)              -0.15275717 [mEh]      -0.09585657 [kcal/mol]      -0.40106389 [kJ/mol]
      Exch-Disp20                   0.46388370 [mEh]       0.29109142 [kcal/mol]       1.21792649 [kJ/mol]

  Total HF                        -29.36237757 [mEh]     -18.42517010 [kcal/mol]     -77.09091168 [kJ/mol]
  Total SAPT0                     -30.70209331 [mEh]     -19.26585442 [kcal/mol]     -80.60833489 [kJ/mol]
  Total SAPT2                     -27.16436146 [mEh]     -17.04589417 [kcal/mol]     -71.32002120 [kJ/mol]
  Total SAPT2+                    -27.42001727 [mEh]     -17.20632061 [kcal/mol]     -71.99124543 [kJ/mol]

  Special recipe for scaled SAPT0 (see Manual):
    Electrostatics sSAPT0         -59.19425061 [mEh]     -37.14495305 [kcal/mol]    -155.41448356 [kJ/mol]
    Exchange sSAPT0                41.65305935 [mEh]      26.13768935 [kcal/mol]     109.36009226 [kJ/mol]
    Induction sSAPT0              -10.49870919 [mEh]      -6.58803948 [kcal/mol]     -27.56435717 [kJ/mol]
    Dispersion sSAPT0              -1.32399290 [mEh]      -0.83081809 [kcal/mol]      -3.47614288 [kJ/mol]
  Total sSAPT0                    -29.36389334 [mEh]     -18.42612126 [kcal/mol]     -77.09489135 [kJ/mol]
  --------------------------------------------------------------------------------------------------------

*** Psi4 exiting successfully. Buy a developer a beer!
