                               Psi4 1.9 release

  ==> Input File <==

--------------------------------------------------------------------------
MEMORY 60 GB

molecule dimer {
0 1
O      0.000000     0.000000     0.000000
H     -0.588073     0.760558     0.000000
H     -0.588073    -0.760558     0.000000
--
1 1
Na     2.266887     0.000000     0.000000

units ang
no_reorient
no_com
symmetry c1
}

set {
basis        aug-cc-pVTZ
scf_type     df
}

energy("sapt2+")
--------------------------------------------------------------------------

  //              Dimer HF             //
    Molecular point group: c1
  Charge       = 1
  Multiplicity = 1
  Basis Set: AUG-CC-PVTZ
    Blend: AUG-CC-PVTZ
  Basis Set: (AUG-CC-PVTZ AUX)
    Blend: AUG-CC-PVTZ-JKFIT + DEF2-UNIVERSAL-JKFIT
  @DF-RHF Final Energy:  -237.77471703923180
    Total Energy =                       -237.7747170392318026
 Dipole X            :        -41.7419291           44.8991576            3.1572286
 Dipole Y            :          0.0000000            0.0000000            0.0000000
 Dipole Z            :          0.0000000            0.0000000            0.0000000
 Magnitude           :                                                    3.1572286
  //            Monomer A HF           //
    Molecular point group: c1
  Multiplicity = 1
  Basis Set: AUG-CC-PVTZ
    Blend: AUG-CC-PVTZ
  Basis Set: (AUG-CC-PVTZ AUX)
    Blend: AUG-CC-PVTZ-JKFIT + DEF2-UNIVERSAL-JKFIT
  @DF-RHF Final Energy:   -76.06036671538232
    Total Energy =                        -76.0603667153823153
  //            Monomer B HF           //
    Molecular point group: c1

    Geometry (in Angstrom), charge = 1, multiplicity = 1:

       Center              X                  Y                   Z               Mass
    ------------   -----------------  -----------------  -----------------  -----------------
      Gh(O)           0.000000000000     0.000000000000     0.000000000000    15.994914619570
      Gh(H)          -0.588073000000     0.760558000000     0.000000000000     1.007825032230
      Gh(H)          -0.588073000000    -0.760558000000     0.000000000000     1.007825032230
         NA           2.266887000000     0.000000000000     0.000000000000    22.989769282000

  Charge       = 1
  Multiplicity = 1
  Basis Set: AUG-CC-PVTZ
    Blend: AUG-CC-PVTZ
  Basis Set: (AUG-CC-PVTZ AUX)
    Blend: AUG-CC-PVTZ-JKFIT + DEF2-UNIVERSAL-JKFIT

    Orbital Energies [Eh]
    ---------------------

    Doubly Occupied:

       1A    -40.762872     2A     -3.074942     3A     -1.798246
       4A     -1.798106     5A     -1.798068

  @DF-RHF Final Energy:  -161.67604093416824

   => Energetics <=

    Nuclear Repulsion Energy =              0.0000000000000000
    One-Electron Energy =                -224.8876159414459153
    Two-Electron Energy =                  63.2115750072776805
    Total Energy =                       -161.6760409341682418
 Dipole X            :        -42.8385112           47.1217515            4.2832403
 Dipole Y            :          0.0000000            0.0000000            0.0000000
 Dipole Z            :         -0.0000000            0.0000000           -0.0000000
 Magnitude           :                                                    4.2832403

    SAPT Results
  --------------------------------------------------------------------------------------------------------
    Electrostatics                -37.99965971 [mEh]     -23.84514647 [kcal/mol]     -99.76809282 [kJ/mol]
      Elst10,r                    -40.24945197 [mEh]     -25.25691243 [kcal/mol]    -105.67492159 [kJ/mol]
      Elst12,r                      2.24979226 [mEh]       1.41176596 [kcal/mol]       5.90682877 [kJ/mol]

    Exchange                       11.69143834 [mEh]       7.33648832 [kcal/mol]      30.69586714 [kJ/mol]
      Exch10                       10.69718412 [mEh]       6.71258438 [kcal/mol]      28.08545303 [kJ/mol]
      Exch10(S^2)                  10.66326218 [mEh]       6.69129804 [kcal/mol]      27.99639098 [kJ/mol]
      Exch11(S^2)                  -0.06823872 [mEh]      -0.04282044 [kcal/mol]      -0.17916073 [kJ/mol]
      Exch12(S^2)                   1.06249294 [mEh]       0.66672439 [kcal/mol]       2.78957484 [kJ/mol]

    Induction                      -9.85650208 [mEh]      -6.18504843 [kcal/mol]     -25.87824264 [kJ/mol]
      Ind20,r                     -20.49009783 [mEh]     -12.85773051 [kcal/mol]     -53.79674445 [kJ/mol]
      Ind22                        -2.28358154 [mEh]      -1.43296905 [kcal/mol]      -5.99554252 [kJ/mol]
      Exch-Ind20,r                 10.62558963 [mEh]       6.66765816 [kcal/mol]      27.89748174 [kJ/mol]
      Exch-Ind22                    1.18420129 [mEh]       0.74309753 [kcal/mol]       3.10912007 [kJ/mol]
      delta HF,r (2)                1.10738637 [mEh]       0.69489544 [kcal/mol]       2.90744252 [kJ/mol]

    Dispersion                     -0.63161235 [mEh]      -0.39634273 [kcal/mol]      -1.65829799 [kJ/mol]
      Disp20                       -0.62843251 [mEh]      -0.39434735 [kcal/mol]      -1.64994933 [kJ/mol]
      Disp21                       -0.02446796 [mEh]      -0.01535388 [kcal/mol]      -0.06424062 [kJ/mol]
      Disp22 (SDQ)                 -0.03343286 [mEh]      -0.02097944 [kcal/mol]      -0.08777797 [kJ/mol]
      Disp22 (T)                   -0.04298459 [mEh]      -0.02697324 [kcal/mol]      -0.11285602 [kJ/mol]
      Est. Disp22 (T)              -0.05495770 [mEh]      -0.03448648 [kcal/mol]      -0.14429143 [kJ/mol]
      Exch-Disp20                   0.10967869 [mEh]       0.06882442 [kcal/mol]       0.28796137 [kJ/mol]

  Total HF                        -38.30938968 [mEh]     -24.03950496 [kcal/mol]    -100.58128875 [kJ/mol]
  Total SAPT0                     -38.82814350 [mEh]     -24.36502790 [kcal/mol]    -101.94327672 [kJ/mol]
  Total SAPT2                     -36.68347726 [mEh]     -23.01922951 [kcal/mol]     -96.31245628 [kJ/mol]
  Total SAPT2+                    -36.79633579 [mEh]     -23.09004931 [kcal/mol]     -96.60876630 [kJ/mol]

  Special recipe for scaled SAPT0 (see Manual):
    Electrostatics sSAPT0         -40.24945197 [mEh]     -25.25691243 [kcal/mol]    -105.67492159 [kJ/mol]
    Exchange sSAPT0                10.69718412 [mEh]       6.71258438 [kcal/mol]      28.08545303 [kJ/mol]
    Induction sSAPT0               -8.65539260 [mEh]      -5.43134086 [kcal/mol]     -22.72473014 [kJ/mol]
    Dispersion sSAPT0              -0.51770376 [mEh]      -0.32486401 [kcal/mol]      -1.35923103 [kJ/mol]
  Total sSAPT0                    -38.72536421 [mEh]     -24.30053292 [kcal/mol]    -101.67342973 [kJ/mol]
  --------------------------------------------------------------------------------------------------------

*** Psi4 exiting successfully. Buy a developer a beer!
