                               Psi4 1.9 release

  ==> Input File <==

--------------------------------------------------------------------------
MEMORY 60 GB

molecule dimer {
0 1
O      0.000000     0.000000     0.000000
H     -0.588073     0.760558     0.000000
H     -0.588073    -0.760558     0.000000
--
1 1
Na     2.158940     0.000000     0.000000

units ang
no_reorient
no_com
symmetry c1
}

set {
basis        aug-cc-pVTZ
scf_type     df
}

energy("sapt2+")
--------------------------------------------------------------------------

  //              Dimer HF             //
    Molecular point group: c1
  Charge       = 1
  Multiplicity = 1
  Basis Set: AUG-CC-PVTZ
    Blend: AUG-CC-PVTZ
  Basis Set: (AUG-CC-PVTZ AUX)
    Blend: AUG-CC-PVTZ-JKFIT + DEF2-UNIVERSAL-JKFIT
  @DF-RHF Final Energy:  -237.77438567398568
    Total Energy =                       -237.7743856739856767
 Dipole X            :        -39.7086327           42.6552647            2.9466320
 Dipole Y            :          0.0000000            0.0000000            0.0000000
 Dipole Z            :          0.0000000            0.0000000            0.0000000
 Magnitude           :                                                    2.9466320
  //            Monomer A HF           //
    Molecular point group: c1
  Multiplicity = 1
  Basis Set: AUG-CC-PVTZ
    Blend: AUG-CC-PVTZ
  Basis Set: (AUG-CC-PVTZ AUX)
    Blend: AUG-CC-PVTZ-JKFIT + DEF2-UNIVERSAL-JKFIT
  @DF-RHF Final Energy:   -76.06037073139575
    Total Energy =                        -76.0603707313957642
  //            Monomer B HF           //
    Molecular point group: c1

    Geometry (in Angstrom), charge = 1, multiplicity = 1:

       Center              X                  Y                   Z               Mass
    ------------   -----------------  -----------------  -----------------  -----------------
      Gh(O)           0.000000000000     0.000000000000     0.000000000000    15.994914619570
      Gh(H)          -0.588073000000     0.760558000000     0.000000000000     1.007825032230
      Gh(H)          -0.588073000000    -0.760558000000     0.000000000000     1.007825032230
         NA           2.158940000000     0.000000000000     0.000000000000    22.989769282000

  Charge       = 1
  Multiplicity = 1
  Basis Set: AUG-CC-PVTZ
    Blend: AUG-CC-PVTZ
  Basis Set: (AUG-CC-PVTZ AUX)
    Blend: AUG-CC-PVTZ-JKFIT + DEF2-UNIVERSAL-JKFIT

    Orbital Energies [Eh]
    ---------------------

    Doubly Occupied:

       1A    -40.762598     2A     -3.074827     3A     -1.798150
       4A     -1.798017     5A     -1.797950

  @DF-RHF Final Energy:  -161.67604395163664

   => Energetics <=

    Nuclear Repulsion Energy =              0.0000000000000000
    One-Electron Energy =                -224.8890056612363253
    Two-Electron Energy =                  63.2129617095996963
    Total Energy =                       -161.6760439516366432
 Dipole X            :        -40.7985934           44.8778585            4.0792652
 Dipole Y            :          0.0000000            0.0000000            0.0000000
 Dipole Z            :         -0.0000000            0.0000000           -0.0000000
 Magnitude           :                                                    4.0792652

    SAPT Results
  --------------------------------------------------------------------------------------------------------
    Electrostatics                -42.69676287 [mEh]     -26.79262320 [kcal/mol]    -112.10033548 [kJ/mol]
      Elst10,r                    -45.10138320 [mEh]     -28.30154524 [kcal/mol]    -118.41366527 [kJ/mol]
      Elst12,r                      2.40462032 [mEh]       1.50892203 [kcal/mol]       6.31332979 [kJ/mol]

    Exchange                       18.17020901 [mEh]      11.40197829 [kcal/mol]      47.70587717 [kJ/mol]
      Exch10                       16.83653171 [mEh]      10.56508316 [kcal/mol]      44.20430792 [kJ/mol]
      Exch10(S^2)                  16.75521315 [mEh]      10.51405498 [kcal/mol]      43.99080605 [kJ/mol]
      Exch11(S^2)                  -0.11802898 [mEh]      -0.07406431 [kcal/mol]      -0.30988505 [kJ/mol]
      Exch12(S^2)                   1.45170628 [mEh]       0.91095944 [kcal/mol]       3.81145430 [kJ/mol]

    Induction                     -10.91960311 [mEh]      -6.85215440 [kcal/mol]     -28.66941402 [kJ/mol]
      Ind20,r                     -27.71094667 [mEh]     -17.38888156 [kcal/mol]     -72.75508046 [kJ/mol]
      Ind22                        -2.97714668 [mEh]      -1.86818775 [kcal/mol]      -7.81649753 [kJ/mol]
      Exch-Ind20,r                 16.41616348 [mEh]      10.30129810 [kcal/mol]      43.10063127 [kJ/mol]
      Exch-Ind22                    1.76368304 [mEh]       1.10672781 [kcal/mol]       4.63054918 [kJ/mol]
      delta HF,r (2)                1.58864373 [mEh]       0.99688899 [kcal/mol]       4.17098353 [kJ/mol]

    Dispersion                     -0.84433264 [mEh]      -0.52982673 [kcal/mol]      -2.21679503 [kJ/mol]
      Disp20                       -0.87278044 [mEh]      -0.54767800 [kcal/mol]      -2.29148473 [kJ/mol]
      Disp21                       -0.02464375 [mEh]      -0.01546419 [kcal/mol]      -0.06470217 [kJ/mol]
      Disp22 (SDQ)                 -0.04673687 [mEh]      -0.02932783 [kcal/mol]      -0.12270764 [kJ/mol]
      Disp22 (T)                   -0.05837704 [mEh]      -0.03663214 [kcal/mol]      -0.15326889 [kJ/mol]
      Est. Disp22 (T)              -0.07590757 [mEh]      -0.04763272 [kcal/mol]      -0.19929529 [kJ/mol]
      Exch-Disp20                   0.17573600 [mEh]       0.11027600 [kcal/mol]       0.46139480 [kJ/mol]

  Total HF                        -37.97099095 [mEh]     -23.82715655 [kcal/mol]     -99.69282301 [kJ/mol]
  Total SAPT0                     -38.66803540 [mEh]     -24.26455854 [kcal/mol]    -101.52291294 [kJ/mol]
  Total SAPT2                     -36.14320142 [mEh]     -22.68020130 [kcal/mol]     -94.89396226 [kJ/mol]
  Total SAPT2+                    -36.29048962 [mEh]     -22.77262604 [kcal/mol]     -95.28066736 [kJ/mol]

  Special recipe for scaled SAPT0 (see Manual):
    Electrostatics sSAPT0         -45.10138320 [mEh]     -28.30154524 [kcal/mol]    -118.41366527 [kJ/mol]
    Exchange sSAPT0                16.83653171 [mEh]      10.56508316 [kcal/mol]      44.20430792 [kJ/mol]
    Induction sSAPT0               -9.46595841 [mEh]      -5.93997858 [kcal/mol]     -24.85287039 [kJ/mol]
    Dispersion sSAPT0              -0.69447329 [mEh]      -0.43578857 [kcal/mol]      -1.82333937 [kJ/mol]
  Total sSAPT0                    -38.42528319 [mEh]     -24.11222923 [kcal/mol]    -100.88556711 [kJ/mol]
  --------------------------------------------------------------------------------------------------------

*** Psi4 exiting successfully. Buy a developer a beer!
