                               Psi4 1.9 release

  ==> Input File <==

--------------------------------------------------------------------------
MEMORY 60 GB

molecule dimer {
0 1
O      0.000000     0.000000     0.000000
H     -0.588073     0.760558     0.000000
H     -0.588073    -0.760558     0.000000
--
1 1
Na     2.374834     0.000000     0.000000

units ang
no_reorient
no_com
symmetry c1
}

set {
basis        aug-cc-pVTZ
scf_type     df
}

energy("sapt2+")
--------------------------------------------------------------------------

  //              Dimer HF             //
    Molecular point group: c1
  Charge       = 1
  Multiplicity = 1
  Basis Set: AUG-CC-PVTZ
    Blend: AUG-CC-PVTZ
  Basis Set: (AUG-CC-PVTZ AUX)
    Blend: AUG-CC-PVTZ-JKFIT + DEF2-UNIVERSAL-JKFIT
  @DF-RHF Final Energy:  -237.77378003976793
    Total Energy =                       -237.7737800397679280
 Dipole X            :        -43.7720802           47.1430506            3.3709703
 Dipole Y            :         -0.0000000            0.0000000           -0.0000000
 Dipole Z            :          0.0000000            0.0000000            0.0000000
 Magnitude           :                                                    3.3709703
  //            Monomer A HF           //
    Molecular point group: c1
  Multiplicity = 1
  Basis Set: AUG-CC-PVTZ
    Blend: AUG-CC-PVTZ
  Basis Set: (AUG-CC-PVTZ AUX)
    Blend: AUG-CC-PVTZ-JKFIT + DEF2-UNIVERSAL-JKFIT
  @DF-RHF Final Energy:   -76.06036185504884
    Total Energy =                        -76.0603618550488250
  //            Monomer B HF           //
    Molecular point group: c1

    Geometry (in Angstrom), charge = 1, multiplicity = 1:

       Center              X                  Y                   Z               Mass
    ------------   -----------------  -----------------  -----------------  -----------------
      Gh(O)           0.000000000000     0.000000000000     0.000000000000    15.994914619570
      Gh(H)          -0.588073000000     0.760558000000     0.000000000000     1.007825032230
      Gh(H)          -0.588073000000    -0.760558000000     0.000000000000     1.007825032230
         NA           2.374834000000     0.000000000000     0.000000000000    22.989769282000

  Charge       = 1
  Multiplicity = 1
  Basis Set: AUG-CC-PVTZ
    Blend: AUG-CC-PVTZ
  Basis Set: (AUG-CC-PVTZ AUX)
    Blend: AUG-CC-PVTZ-JKFIT + DEF2-UNIVERSAL-JKFIT

    Orbital Energies [Eh]
    ---------------------

    Doubly Occupied:

       1A    -40.763081     2A     -3.075031     3A     -1.798308
       4A     -1.798182     5A     -1.798162

  @DF-RHF Final Energy:  -161.67603881194410

   => Energetics <=

    Nuclear Repulsion Energy =              0.0000000000000000
    One-Electron Energy =                -224.8865504532001580
    Two-Electron Energy =                  63.2105116412560832
    Total Energy =                       -161.6760388119440677
 Dipole X            :        -44.8784049           49.3656444            4.4872395
 Dipole Y            :         -0.0000000            0.0000000           -0.0000000
 Dipole Z            :         -0.0000000            0.0000000           -0.0000000
 Magnitude           :                                                    4.4872395

    SAPT Results
  --------------------------------------------------------------------------------------------------------
    Electrostatics                -34.20081082 [mEh]     -21.46133280 [kcal/mol]     -89.79421643 [kJ/mol]
      Elst10,r                    -36.30164091 [mEh]     -22.77962358 [kcal/mol]     -95.30994507 [kJ/mol]
      Elst12,r                      2.10083009 [mEh]       1.31829078 [kcal/mol]       5.51572864 [kJ/mol]

    Exchange                        7.51838885 [mEh]       4.71786023 [kcal/mol]      19.73952720 [kJ/mol]
      Exch10                        6.78819358 [mEh]       4.25965578 [kcal/mol]      17.82239978 [kJ/mol]
      Exch10(S^2)                   6.77413897 [mEh]       4.25083638 [kcal/mol]      17.78549941 [kJ/mol]
      Exch11(S^2)                  -0.03986085 [mEh]      -0.02501306 [kcal/mol]      -0.10465465 [kJ/mol]
      Exch12(S^2)                   0.77005612 [mEh]       0.48321751 [kcal/mol]       2.02178207 [kJ/mol]

    Induction                      -8.84858297 [mEh]      -5.55256964 [kcal/mol]     -23.23195138 [kJ/mol]
      Ind20,r                     -15.47827082 [mEh]      -9.71276158 [kcal/mol]     -40.63819444 [kJ/mol]
      Ind22                        -1.76834719 [mEh]      -1.10965461 [kcal/mol]      -4.64279490 [kJ/mol]
      Exch-Ind20,r                  6.87710961 [mEh]       4.31545143 [kcal/mol]      18.05584878 [kJ/mol]
      Exch-Ind22                    0.78568967 [mEh]       0.49302771 [kcal/mol]       2.06282793 [kJ/mol]
      delta HF,r (2)                0.73523577 [mEh]       0.46136741 [kcal/mol]       1.93036125 [kJ/mol]

    Dispersion                     -0.48131646 [mEh]      -0.30203064 [kcal/mol]      -1.26369620 [kJ/mol]
      Disp20                       -0.46289873 [mEh]      -0.29047334 [kcal/mol]      -1.21534044 [kJ/mol]
      Disp21                       -0.02213897 [mEh]      -0.01389241 [kcal/mol]      -0.05812585 [kJ/mol]
      Disp22 (SDQ)                 -0.02464932 [mEh]      -0.01546768 [kcal/mol]      -0.06471679 [kJ/mol]
      Disp22 (T)                   -0.03273524 [mEh]      -0.02054167 [kcal/mol]      -0.08594635 [kJ/mol]
      Est. Disp22 (T)              -0.04081653 [mEh]      -0.02561276 [kcal/mol]      -0.10716378 [kJ/mol]
      Exch-Disp20                   0.06918708 [mEh]       0.04341555 [kcal/mol]       0.18165066 [kJ/mol]

  Total HF                        -37.37937278 [mEh]     -23.45591054 [kcal/mol]     -98.13952970 [kJ/mol]
  Total SAPT0                     -37.77308442 [mEh]     -23.70296833 [kcal/mol]     -99.17321948 [kJ/mol]
  Total SAPT2                     -35.92471658 [mEh]     -22.54310000 [kcal/mol]     -94.32033039 [kJ/mol]
  Total SAPT2+                    -36.01232140 [mEh]     -22.59807285 [kcal/mol]     -94.55033681 [kJ/mol]

  Special recipe for scaled SAPT0 (see Manual):
    Electrostatics sSAPT0         -36.30164091 [mEh]     -22.77962358 [kcal/mol]     -95.30994507 [kJ/mol]
    Exchange sSAPT0                 6.78819358 [mEh]       4.25965578 [kcal/mol]      17.82239978 [kJ/mol]
    Induction sSAPT0               -7.82303184 [mEh]      -4.90902659 [kcal/mol]     -20.53936725 [kJ/mol]
    Dispersion sSAPT0              -0.39328012 [mEh]      -0.24678700 [kcal/mol]      -1.03255680 [kJ/mol]
  Total sSAPT0                    -37.72975928 [mEh]     -23.67578139 [kcal/mol]     -99.05946934 [kJ/mol]
  --------------------------------------------------------------------------------------------------------

*** Psi4 exiting successfully. Buy a developer a beer!
