                               Psi4 1.9 release

  ==> Input File <==

--------------------------------------------------------------------------
MEMORY 60 GB

molecule dimer {
0 1
O      0.000000     0.000000     0.000000
H     -0.591931     0.756733     0.000000
H     -0.591931    -0.756733     0.000000
--
1 1
K      2.466222     0.000000     0.000000

units ang
no_reorient
no_com
symmetry c1
}

set {
basis        aug-cc-pVTZ
scf_type     df
}

energy("sapt2+")
--------------------------------------------------------------------------

  //              Dimer HF             //
    Molecular point group: c1
  Charge       = 1
  Multiplicity = 1
  Basis Set: AUG-CC-PVTZ
    Blend: AUG-CC-PVTZ
  Basis Set: (AUG-CC-PVTZ AUX)
    Blend: AUG-CC-PVTZ-JKFIT + DEF2-UNIVERSAL-JKFIT
  @DF-RHF Final Energy:  -675.10283908958945
    Total Energy =                       -675.1028390895894518
 Dipole X            :        -82.8232196           86.3120238            3.4888042
 Dipole Y            :          0.0000000            0.0000000            0.0000000
 Dipole Z            :          0.0000000            0.0000000            0.0000000
 Magnitude           :                                                    3.4888042
  //            Monomer A HF           //
    Molecular point group: c1
  Multiplicity = 1
  Basis Set: AUG-CC-PVTZ
    Blend: AUG-CC-PVTZ
  Basis Set: (AUG-CC-PVTZ AUX)
    Blend: AUG-CC-PVTZ-JKFIT + DEF2-UNIVERSAL-JKFIT
  @DF-RHF Final Energy:   -76.06033555740254
    Total Energy =                        -76.0603355574025386
  //            Monomer B HF           //
    Molecular point group: c1

    Geometry (in Angstrom), charge = 1, multiplicity = 1:

       Center              X                  Y                   Z               Mass
    ------------   -----------------  -----------------  -----------------  -----------------
      Gh(O)           0.000000000000     0.000000000000     0.000000000000    15.994914619570
      Gh(H)          -0.591931000000     0.756733000000     0.000000000000     1.007825032230
      Gh(H)          -0.591931000000    -0.756733000000     0.000000000000     1.007825032230
         K            2.466222000000     0.000000000000     0.000000000000    38.963706486400

  Charge       = 1
  Multiplicity = 1
  Basis Set: AUG-CC-PVTZ
    Blend: AUG-CC-PVTZ
  Basis Set: (AUG-CC-PVTZ AUX)
    Blend: AUG-CC-PVTZ-JKFIT + DEF2-UNIVERSAL-JKFIT

    Orbital Energies [Eh]
    ---------------------

    Doubly Occupied:

       1A   -133.753729     2A    -14.709173     3A    -11.739247
       4A    -11.739242     5A    -11.739242     6A     -1.964323
       7A     -1.170985     8A     -1.170918     9A     -1.170909

  @DF-RHF Final Energy:  -599.01750890270705

   => Energetics <=

    Nuclear Repulsion Energy =              0.0000000000000000
    One-Electron Energy =                -819.7194833765577187
    Two-Electron Energy =                 220.7019744738507541
    Total Energy =                       -599.0175089027069362
 Dipole X            :        -83.8891398           88.5491987            4.6600590
 Dipole Y            :         -0.0000000            0.0000000           -0.0000000
 Dipole Z            :          0.0000000            0.0000000            0.0000000
 Magnitude           :                                                    4.6600590

    SAPT Results
  --------------------------------------------------------------------------------------------------------
    Electrostatics                -36.66722635 [mEh]     -23.00903191 [kcal/mol]     -96.26978952 [kJ/mol]
      Elst10,r                    -37.93369280 [mEh]     -23.80375161 [kcal/mol]     -99.59489673 [kJ/mol]
      Elst12,r                      1.26646645 [mEh]       0.79471970 [kcal/mol]       3.32510721 [kJ/mol]

    Exchange                       23.00391800 [mEh]      14.43517648 [kcal/mol]      60.39677838 [kJ/mol]
      Exch10                       21.25316152 [mEh]      13.33656020 [kcal/mol]      55.80016789 [kJ/mol]
      Exch10(S^2)                  21.04253843 [mEh]      13.20439222 [kcal/mol]      55.24717703 [kJ/mol]
      Exch11(S^2)                   0.09247655 [mEh]       0.05802991 [kcal/mol]       0.24279716 [kJ/mol]
      Exch12(S^2)                   1.65827992 [mEh]       1.04058636 [kcal/mol]       4.35381333 [kJ/mol]

    Induction                      -9.39334879 [mEh]      -5.89441536 [kcal/mol]     -24.66223386 [kJ/mol]
      Ind20,r                     -24.73122206 [mEh]     -15.51907614 [kcal/mol]     -64.93181457 [kJ/mol]
      Ind22                        -3.44601108 [mEh]      -2.16240460 [kcal/mol]      -9.04750084 [kJ/mol]
      Exch-Ind20,r                 16.98569093 [mEh]      10.65868198 [kcal/mol]      44.59592540 [kJ/mol]
      Exch-Ind22                    2.36676049 [mEh]       1.48516463 [kcal/mol]       6.21392880 [kJ/mol]
      delta HF,r (2)               -0.56856708 [mEh]      -0.35678123 [kcal/mol]      -1.49277265 [kJ/mol]

    Dispersion                     -3.46054476 [mEh]      -2.17152462 [kcal/mol]      -9.08565902 [kJ/mol]
      Disp20                       -4.19350000 [mEh]      -2.63146098 [kcal/mol]     -11.01003273 [kJ/mol]
      Disp21                        0.50104587 [mEh]       0.31441103 [kcal/mol]       1.31549575 [kJ/mol]
      Disp22 (SDQ)                 -0.02886205 [mEh]      -0.01811121 [kcal/mol]      -0.07577731 [kJ/mol]
      Disp22 (T)                   -0.37839260 [mEh]      -0.23744494 [kcal/mol]      -0.99346963 [kJ/mol]
      Est. Disp22 (T)              -0.42548980 [mEh]      -0.26699888 [kcal/mol]      -1.11712331 [kJ/mol]
      Exch-Disp20                   0.68626121 [mEh]       0.43063541 [kcal/mol]       1.80177857 [kJ/mol]

  Total HF                        -24.99462948 [mEh]     -15.68436679 [kcal/mol]     -65.62339066 [kJ/mol]
  Total SAPT0                     -28.50186826 [mEh]     -17.88519236 [kcal/mol]     -74.83164481 [kJ/mol]
  Total SAPT2                     -26.56389593 [mEh]     -16.66909636 [kcal/mol]     -69.74349916 [kJ/mol]
  Total SAPT2+                    -26.51720191 [mEh]     -16.63979542 [kcal/mol]     -69.62090402 [kJ/mol]

  Special recipe for scaled SAPT0 (see Manual):
    Electrostatics sSAPT0         -37.93369280 [mEh]     -23.80375161 [kcal/mol]     -99.59489673 [kJ/mol]
    Exchange sSAPT0                21.25316152 [mEh]      13.33656020 [kcal/mol]      55.80016789 [kJ/mol]
    Induction sSAPT0               -7.79892637 [mEh]      -4.89390018 [kcal/mol]     -20.47607837 [kJ/mol]
    Dispersion sSAPT0              -3.48642465 [mEh]      -2.18776450 [kcal/mol]      -9.15360665 [kJ/mol]
  Total sSAPT0                    -27.96588230 [mEh]     -17.54885609 [kcal/mol]     -73.42441386 [kJ/mol]
  --------------------------------------------------------------------------------------------------------

*** Psi4 exiting successfully. Buy a developer a beer!
