                               Psi4 1.9 release

  ==> Input File <==

--------------------------------------------------------------------------
MEMORY 60 GB

molecule dimer {
0 1
O      0.000000     0.000000     0.000000
H     -0.591931     0.756733     0.000000
H     -0.591931    -0.756733     0.000000
--
1 1
K      2.959466     0.000000     0.000000

units ang
no_reorient
no_com
symmetry c1
}

set {
basis        aug-cc-pVTZ
scf_type     df
}

energy("sapt2+")
--------------------------------------------------------------------------

  //              Dimer HF             //
    Molecular point group: c1
  Charge       = 1
  Multiplicity = 1
  Basis Set: AUG-CC-PVTZ
    Blend: AUG-CC-PVTZ
  Basis Set: (AUG-CC-PVTZ AUX)
    Blend: AUG-CC-PVTZ-JKFIT + DEF2-UNIVERSAL-JKFIT
  @DF-RHF Final Energy:  -675.10283164774978
    Total Energy =                       -675.1028316477497810
 Dipole X            :        -99.5067058          104.0218492            4.5151434
 Dipole Y            :         -0.0000000            0.0000000           -0.0000000
 Dipole Z            :         -0.0000000            0.0000000           -0.0000000
 Magnitude           :                                                    4.5151434
  //            Monomer A HF           //
    Molecular point group: c1
  Multiplicity = 1
  Basis Set: AUG-CC-PVTZ
    Blend: AUG-CC-PVTZ
  Basis Set: (AUG-CC-PVTZ AUX)
    Blend: AUG-CC-PVTZ-JKFIT + DEF2-UNIVERSAL-JKFIT
  @DF-RHF Final Energy:   -76.06032583914433
    Total Energy =                        -76.0603258391443262
  //            Monomer B HF           //
    Molecular point group: c1

    Geometry (in Angstrom), charge = 1, multiplicity = 1:

       Center              X                  Y                   Z               Mass
    ------------   -----------------  -----------------  -----------------  -----------------
      Gh(O)           0.000000000000     0.000000000000     0.000000000000    15.994914619570
      Gh(H)          -0.591931000000     0.756733000000     0.000000000000     1.007825032230
      Gh(H)          -0.591931000000    -0.756733000000     0.000000000000     1.007825032230
         K            2.959466000000     0.000000000000     0.000000000000    38.963706486400

  Charge       = 1
  Multiplicity = 1
  Basis Set: AUG-CC-PVTZ
    Blend: AUG-CC-PVTZ
  Basis Set: (AUG-CC-PVTZ AUX)
    Blend: AUG-CC-PVTZ-JKFIT + DEF2-UNIVERSAL-JKFIT

    Orbital Energies [Eh]
    ---------------------

    Doubly Occupied:

       1A   -133.753843     2A    -14.709269     3A    -11.739336
       4A    -11.739334     5A    -11.739333     6A     -1.964379
       7A     -1.170995     8A     -1.170951     9A     -1.170949

  @DF-RHF Final Energy:  -599.01750780753866

   => Energetics <=

    Nuclear Repulsion Energy =              0.0000000000000000
    One-Electron Energy =                -819.7182382118658097
    Two-Electron Energy =                 220.7007304043271745
    Total Energy =                       -599.0175078075386637
 Dipole X            :       -100.6666979          106.2590241            5.5923262
 Dipole Y            :          0.0000000            0.0000000            0.0000000
 Dipole Z            :         -0.0000000            0.0000000           -0.0000000
 Magnitude           :                                                    5.5923262

    SAPT Results
  --------------------------------------------------------------------------------------------------------
    Electrostatics                -22.62314171 [mEh]     -14.19623575 [kcal/mol]     -59.39705037 [kJ/mol]
      Elst10,r                    -23.86849377 [mEh]     -14.97770597 [kcal/mol]     -62.66672176 [kJ/mol]
      Elst12,r                      1.24535206 [mEh]       0.78147022 [kcal/mol]       3.26967139 [kJ/mol]

    Exchange                        3.48578250 [mEh]       2.18736154 [kcal/mol]       9.15192069 [kJ/mol]
      Exch10                        3.05229052 [mEh]       1.91534122 [kcal/mol]       8.01378767 [kJ/mol]
      Exch10(S^2)                   3.04700457 [mEh]       1.91202423 [kcal/mol]       7.99990939 [kJ/mol]
      Exch11(S^2)                   0.01837841 [mEh]       0.01153263 [kcal/mol]       0.04825251 [kJ/mol]
      Exch12(S^2)                   0.41511357 [mEh]       0.26048770 [kcal/mol]       1.08988052 [kJ/mol]

    Induction                      -4.74103438 [mEh]      -2.97504399 [kcal/mol]     -12.44758404 [kJ/mol]
      Ind20,r                      -6.35015624 [mEh]      -3.98478320 [kcal/mol]     -16.67233292 [kJ/mol]
      Ind22                        -0.88839221 [mEh]      -0.55747453 [kcal/mol]      -2.33247342 [kJ/mol]
      Exch-Ind20,r                  2.35277821 [mEh]       1.47639061 [kcal/mol]       6.17721833 [kJ/mol]
      Exch-Ind22                    0.32915565 [mEh]       0.20654829 [kcal/mol]       0.86419805 [kJ/mol]
      delta HF,r (2)               -0.18441978 [mEh]      -0.11572516 [kcal/mol]      -0.48419408 [kJ/mol]

    Dispersion                     -1.17370392 [mEh]      -0.73651033 [kcal/mol]      -3.08155922 [kJ/mol]
      Disp20                       -1.29618681 [mEh]      -0.81336950 [kcal/mol]      -3.40313800 [kJ/mol]
      Disp21                        0.16404054 [mEh]       0.10293699 [kcal/mol]       0.43068839 [kJ/mol]
      Disp22 (SDQ)                 -0.01048963 [mEh]      -0.00658234 [kcal/mol]      -0.02754051 [kJ/mol]
      Disp22 (T)                   -0.12632169 [mEh]      -0.07926806 [kcal/mol]      -0.33165754 [kJ/mol]
      Est. Disp22 (T)              -0.13945007 [mEh]      -0.08750624 [kcal/mol]      -0.36612611 [kJ/mol]
      Exch-Disp20                   0.10838204 [mEh]       0.06801076 [kcal/mol]       0.28455701 [kJ/mol]

  Total HF                        -24.99800107 [mEh]     -15.68648249 [kcal/mol]     -65.63224276 [kJ/mol]
  Total SAPT0                     -26.18580584 [mEh]     -16.43184124 [kcal/mol]     -68.75082375 [kJ/mol]
  Total SAPT2                     -25.06619835 [mEh]     -15.72927694 [kcal/mol]     -65.81129471 [kJ/mol]
  Total SAPT2+                    -25.05209750 [mEh]     -15.72042852 [kcal/mol]     -65.77427294 [kJ/mol]

  Special recipe for scaled SAPT0 (see Manual):
    Electrostatics sSAPT0         -23.86849377 [mEh]     -14.97770597 [kcal/mol]     -62.66672176 [kJ/mol]
    Exchange sSAPT0                 3.05229052 [mEh]       1.91534122 [kcal/mol]       8.01378767 [kJ/mol]
    Induction sSAPT0               -4.16953174 [mEh]      -2.61642066 [kcal/mol]     -10.94710406 [kJ/mol]
    Dispersion sSAPT0              -1.18723973 [mEh]      -0.74500418 [kcal/mol]      -3.11709747 [kJ/mol]
  Total sSAPT0                    -26.17297471 [mEh]     -16.42378959 [kcal/mol]     -68.71713563 [kJ/mol]
  --------------------------------------------------------------------------------------------------------

*** Psi4 exiting successfully. Buy a developer a beer!
