                               Psi4 1.9 release

  ==> Input File <==

--------------------------------------------------------------------------
MEMORY 60 GB

molecule dimer {
0 1
O      0.000000     0.000000     0.000000
H     -0.591931     0.756733     0.000000
H     -0.591931    -0.756733     0.000000
--
1 1
K      3.452711     0.000000     0.000000

units ang
no_reorient
no_com
symmetry c1
}

set {
basis        aug-cc-pVTZ
scf_type     df
}

energy("sapt2+")
--------------------------------------------------------------------------

  //              Dimer HF             //
    Molecular point group: c1
  Charge       = 1
  Multiplicity = 1
  Basis Set: AUG-CC-PVTZ
    Blend: AUG-CC-PVTZ
  Basis Set: (AUG-CC-PVTZ AUX)
    Blend: AUG-CC-PVTZ-JKFIT + DEF2-UNIVERSAL-JKFIT
  @DF-RHF Final Energy:  -675.09713221620541
    Total Energy =                       -675.0971322162054093
 Dipole X            :       -116.2132862          121.7317105            5.5184243
 Dipole Y            :          0.0000000            0.0000000            0.0000000
 Dipole Z            :         -0.0000000            0.0000000           -0.0000000
 Magnitude           :                                                    5.5184243
  //            Monomer A HF           //
    Molecular point group: c1
  Multiplicity = 1
  Basis Set: AUG-CC-PVTZ
    Blend: AUG-CC-PVTZ
  Basis Set: (AUG-CC-PVTZ AUX)
    Blend: AUG-CC-PVTZ-JKFIT + DEF2-UNIVERSAL-JKFIT
  @DF-RHF Final Energy:   -76.06031907799859
    Total Energy =                        -76.0603190779985852
  //            Monomer B HF           //
    Molecular point group: c1

    Geometry (in Angstrom), charge = 1, multiplicity = 1:

       Center              X                  Y                   Z               Mass
    ------------   -----------------  -----------------  -----------------  -----------------
      Gh(O)           0.000000000000     0.000000000000     0.000000000000    15.994914619570
      Gh(H)          -0.591931000000     0.756733000000     0.000000000000     1.007825032230
      Gh(H)          -0.591931000000    -0.756733000000     0.000000000000     1.007825032230
         K            3.452711000000     0.000000000000     0.000000000000    38.963706486400

  Charge       = 1
  Multiplicity = 1
  Basis Set: AUG-CC-PVTZ
    Blend: AUG-CC-PVTZ
  Basis Set: (AUG-CC-PVTZ AUX)
    Blend: AUG-CC-PVTZ-JKFIT + DEF2-UNIVERSAL-JKFIT

    Orbital Energies [Eh]
    ---------------------

    Doubly Occupied:

       1A   -133.753809     2A    -14.709247     3A    -11.739309
       4A    -11.739306     5A    -11.739306     6A     -1.964387
       7A     -1.170981     8A     -1.170947     9A     -1.170947

  @DF-RHF Final Energy:  -599.01750715559183

   => Energetics <=

    Nuclear Repulsion Energy =              0.0000000000000000
    One-Electron Energy =                -819.7185350097588525
    Two-Electron Energy =                 220.7010278541670232
    Total Energy =                       -599.0175071555918294
 Dipole X            :       -117.4445729          123.9688854            6.5243125
 Dipole Y            :         -0.0000000            0.0000000           -0.0000000
 Dipole Z            :          0.0000000            0.0000000            0.0000000
 Magnitude           :                                                    6.5243125

    SAPT Results
  --------------------------------------------------------------------------------------------------------
    Electrostatics                -16.35123845 [mEh]     -10.26055703 [kcal/mol]     -42.93017063 [kJ/mol]
      Elst10,r                    -17.39048638 [mEh]     -10.91269496 [kcal/mol]     -45.65871569 [kJ/mol]
      Elst12,r                      1.03924793 [mEh]       0.65213792 [kcal/mol]       2.72854506 [kJ/mol]

    Exchange                        0.51572858 [mEh]       0.32362457 [kcal/mol]       1.35404519 [kJ/mol]
      Exch10                        0.42656117 [mEh]       0.26767118 [kcal/mol]       1.11993621 [kJ/mol]
      Exch10(S^2)                   0.42644109 [mEh]       0.26759582 [kcal/mol]       1.11962093 [kJ/mol]
      Exch11(S^2)                   0.00332679 [mEh]       0.00208759 [kcal/mol]       0.00873448 [kJ/mol]
      Exch12(S^2)                   0.08584062 [mEh]       0.05386580 [kcal/mol]       0.22537451 [kJ/mol]

    Induction                      -2.60973425 [mEh]      -1.63763297 [kcal/mol]      -6.85185633 [kJ/mol]
      Ind20,r                      -2.57020013 [mEh]      -1.61282493 [kcal/mol]      -6.74805951 [kJ/mol]
      Ind22                        -0.30664655 [mEh]      -0.19242361 [kcal/mol]      -0.80510039 [kJ/mol]
      Exch-Ind20,r                  0.32662995 [mEh]       0.20496339 [kcal/mol]       0.85756682 [kJ/mol]
      Exch-Ind22                    0.03896971 [mEh]       0.02445386 [kcal/mol]       0.10231495 [kJ/mol]
      delta HF,r (2)               -0.09848723 [mEh]      -0.06180167 [kcal/mol]      -0.25857820 [kJ/mol]

    Dispersion                     -0.45530601 [mEh]      -0.28570884 [kcal/mol]      -1.19540577 [kJ/mol]
      Disp20                       -0.47872200 [mEh]      -0.30040259 [kcal/mol]      -1.25688443 [kJ/mol]
      Disp21                        0.06712384 [mEh]       0.04212084 [kcal/mol]       0.17623361 [kJ/mol]
      Disp22 (SDQ)                 -0.00581666 [mEh]      -0.00365001 [kcal/mol]      -0.01527163 [kJ/mol]
      Disp22 (T)                   -0.05014996 [mEh]      -0.03146957 [kcal/mol]      -0.13166869 [kJ/mol]
      Est. Disp22 (T)              -0.05375214 [mEh]      -0.03372998 [kcal/mol]      -0.14112622 [kJ/mol]
      Exch-Disp20                   0.01586094 [mEh]       0.00995289 [kcal/mol]       0.04164289 [kJ/mol]

  Total HF                        -19.30598262 [mEh]     -12.11468699 [kcal/mol]     -50.68785037 [kJ/mol]
  Total SAPT0                     -19.76884367 [mEh]     -12.40513669 [kcal/mol]     -51.90309191 [kJ/mol]
  Total SAPT2                     -18.90810518 [mEh]     -11.86501513 [kcal/mol]     -49.64322330 [kJ/mol]
  Total SAPT2+                    -18.90055013 [mEh]     -11.86027427 [kcal/mol]     -49.62338754 [kJ/mol]

  Special recipe for scaled SAPT0 (see Manual):
    Electrostatics sSAPT0         -17.39048638 [mEh]     -10.91269496 [kcal/mol]     -45.65871569 [kJ/mol]
    Exchange sSAPT0                 0.42656117 [mEh]       0.26767118 [kcal/mol]       1.11993621 [kJ/mol]
    Induction sSAPT0               -2.34178140 [mEh]      -1.46949001 [kcal/mol]      -6.14834622 [kJ/mol]
    Dispersion sSAPT0              -0.46284765 [mEh]      -0.29044129 [kcal/mol]      -1.21520635 [kJ/mol]
  Total sSAPT0                    -19.76855426 [mEh]     -12.40495508 [kcal/mol]     -51.90233205 [kJ/mol]
  --------------------------------------------------------------------------------------------------------

*** Psi4 exiting successfully. Buy a developer a beer!
