                               Psi4 1.9 release

  ==> Input File <==

--------------------------------------------------------------------------
MEMORY 60 GB

molecule dimer {
0 1
O      0.000000     0.000000     0.000000
H     -0.591931     0.756733     0.000000
H     -0.591931    -0.756733     0.000000
--
1 1
K      3.206089     0.000000     0.000000

units ang
no_reorient
no_com
symmetry c1
}

set {
basis        aug-cc-pVTZ
scf_type     df
}

energy("sapt2+")
--------------------------------------------------------------------------

  //              Dimer HF             //
    Molecular point group: c1
  Charge       = 1
  Multiplicity = 1
  Basis Set: AUG-CC-PVTZ
    Blend: AUG-CC-PVTZ
  Basis Set: (AUG-CC-PVTZ AUX)
    Blend: AUG-CC-PVTZ-JKFIT + DEF2-UNIVERSAL-JKFIT
  @DF-RHF Final Energy:  -675.09995840297745
    Total Energy =                       -675.0999584029774496
 Dipole X            :       -107.8572813          112.8767978            5.0195164
 Dipole Y            :         -0.0000000            0.0000000           -0.0000000
 Dipole Z            :          0.0000000            0.0000000            0.0000000
 Magnitude           :                                                    5.0195164
  //            Monomer A HF           //
    Molecular point group: c1
  Multiplicity = 1
  Basis Set: AUG-CC-PVTZ
    Blend: AUG-CC-PVTZ
  Basis Set: (AUG-CC-PVTZ AUX)
    Blend: AUG-CC-PVTZ-JKFIT + DEF2-UNIVERSAL-JKFIT
  @DF-RHF Final Energy:   -76.06032230083511
    Total Energy =                        -76.0603223008351108
  //            Monomer B HF           //
    Molecular point group: c1

    Geometry (in Angstrom), charge = 1, multiplicity = 1:

       Center              X                  Y                   Z               Mass
    ------------   -----------------  -----------------  -----------------  -----------------
      Gh(O)           0.000000000000     0.000000000000     0.000000000000    15.994914619570
      Gh(H)          -0.591931000000     0.756733000000     0.000000000000     1.007825032230
      Gh(H)          -0.591931000000    -0.756733000000     0.000000000000     1.007825032230
         K            3.206089000000     0.000000000000     0.000000000000    38.963706486400

  Charge       = 1
  Multiplicity = 1
  Basis Set: AUG-CC-PVTZ
    Blend: AUG-CC-PVTZ
  Basis Set: (AUG-CC-PVTZ AUX)
    Blend: AUG-CC-PVTZ-JKFIT + DEF2-UNIVERSAL-JKFIT

    Orbital Energies [Eh]
    ---------------------

    Doubly Occupied:

       1A   -133.753805     2A    -14.709243     3A    -11.739306
       4A    -11.739304     5A    -11.739303     6A     -1.964381
       7A     -1.170982     8A     -1.170944     9A     -1.170943

  @DF-RHF Final Energy:  -599.01750739911654

   => Energetics <=

    Nuclear Repulsion Energy =              0.0000000000000000
    One-Electron Energy =                -819.7185911948023431
    Two-Electron Energy =                 220.7010837956857756
    Total Energy =                       -599.0175073991165391
 Dipole X            :       -109.0556367          115.1139727            6.0583360
 Dipole Y            :         -0.0000000            0.0000000           -0.0000000
 Dipole Z            :          0.0000000            0.0000000            0.0000000
 Magnitude           :                                                    6.0583360

    SAPT Results
  --------------------------------------------------------------------------------------------------------
    Electrostatics                -19.01455294 [mEh]     -11.93181211 [kcal/mol]     -49.92270186 [kJ/mol]
      Elst10,r                    -20.16479468 [mEh]     -12.65359970 [kcal/mol]     -52.94266115 [kJ/mol]
      Elst12,r                      1.15024174 [mEh]       0.72178759 [kcal/mol]       3.01995928 [kJ/mol]

    Exchange                        1.34118677 [mEh]       0.84160740 [kcal/mol]       3.52128538 [kJ/mol]
      Exch10                        1.14178508 [mEh]       0.71648096 [kcal/mol]       2.99775632 [kJ/mol]
      Exch10(S^2)                   1.14098403 [mEh]       0.71597829 [kcal/mol]       2.99565315 [kJ/mol]
      Exch11(S^2)                   0.00790605 [mEh]       0.00496112 [kcal/mol]       0.02075733 [kJ/mol]
      Exch12(S^2)                   0.19149564 [mEh]       0.12016533 [kcal/mol]       0.50277174 [kJ/mol]

    Induction                      -3.49024162 [mEh]      -2.19015968 [kcal/mol]      -9.16362812 [kJ/mol]
      Ind20,r                      -3.84869715 [mEh]      -2.41509392 [kcal/mol]     -10.10475298 [kJ/mol]
      Ind22                        -0.49772784 [mEh]      -0.31232893 [kcal/mol]      -1.30678425 [kJ/mol]
      Exch-Ind20,r                  0.87516532 [mEh]       0.54917453 [kcal/mol]       2.29774624 [kJ/mol]
      Exch-Ind22                    0.11317964 [mEh]       0.07102129 [kcal/mol]       0.29715309 [kJ/mol]
      delta HF,r (2)               -0.13216160 [mEh]      -0.08293265 [kcal/mol]      -0.34699022 [kJ/mol]

    Dispersion                     -0.71545106 [mEh]      -0.44895232 [kcal/mol]      -1.87841651 [kJ/mol]
      Disp20                       -0.76820420 [mEh]      -0.48205542 [kcal/mol]      -2.01691986 [kJ/mol]
      Disp21                        0.10350464 [mEh]       0.06495014 [kcal/mol]       0.27175139 [kJ/mol]
      Disp22 (SDQ)                 -0.00760720 [mEh]      -0.00477359 [kcal/mol]      -0.01997271 [kJ/mol]
      Disp22 (T)                   -0.07802931 [mEh]      -0.04896413 [kcal/mol]      -0.20486592 [kJ/mol]
      Est. Disp22 (T)              -0.08455664 [mEh]      -0.05306009 [kcal/mol]      -0.22200343 [kJ/mol]
      Exch-Disp20                   0.04141235 [mEh]       0.02598664 [kcal/mol]       0.10872810 [kJ/mol]

  Total HF                        -22.12870303 [mEh]     -13.88597079 [kcal/mol]     -58.09890179 [kJ/mol]
  Total SAPT0                     -22.85549488 [mEh]     -14.34203957 [kcal/mol]     -60.00709355 [kJ/mol]
  Total SAPT2                     -21.89039965 [mEh]     -13.73643316 [kcal/mol]     -57.47323636 [kJ/mol]
  Total SAPT2+                    -21.87905886 [mEh]     -13.72931671 [kcal/mol]     -57.44346111 [kJ/mol]

  Special recipe for scaled SAPT0 (see Manual):
    Electrostatics sSAPT0         -20.16479468 [mEh]     -12.65359970 [kcal/mol]     -52.94266115 [kJ/mol]
    Exchange sSAPT0                 1.14178508 [mEh]       0.71648096 [kcal/mol]       2.99775632 [kJ/mol]
    Induction sSAPT0               -3.10384884 [mEh]      -1.94769455 [kcal/mol]      -8.14915401 [kJ/mol]
    Dispersion sSAPT0              -0.72670457 [mEh]      -0.45601400 [kcal/mol]      -1.90796259 [kJ/mol]
  Total sSAPT0                    -22.85356301 [mEh]     -14.34082730 [kcal/mol]     -60.00202143 [kJ/mol]
  --------------------------------------------------------------------------------------------------------

*** Psi4 exiting successfully. Buy a developer a beer!
