                               Psi4 1.9 release

  ==> Input File <==

--------------------------------------------------------------------------
MEMORY 60 GB

molecule dimer {
0 1
O      0.000000     0.000000     0.000000
H     -0.591931     0.756733     0.000000
H     -0.591931    -0.756733     0.000000
--
1 1
K      2.342911     0.000000     0.000000

units ang
no_reorient
no_com
symmetry c1
}

set {
basis        aug-cc-pVTZ
scf_type     df
}

energy("sapt2+")
--------------------------------------------------------------------------

  //              Dimer HF             //
    Molecular point group: c1
  Charge       = 1
  Multiplicity = 1
  Basis Set: AUG-CC-PVTZ
    Blend: AUG-CC-PVTZ
  Basis Set: (AUG-CC-PVTZ AUX)
    Blend: AUG-CC-PVTZ-JKFIT + DEF2-UNIVERSAL-JKFIT
  @DF-RHF Final Energy:  -675.09851083099056
    Total Energy =                       -675.0985108309904490
 Dipole X            :        -78.6566591           81.8845674            3.2279083
 Dipole Y            :         -0.0000000            0.0000000           -0.0000000
 Dipole Z            :          0.0000000            0.0000000            0.0000000
 Magnitude           :                                                    3.2279083
  //            Monomer A HF           //
    Molecular point group: c1
  Multiplicity = 1
  Basis Set: AUG-CC-PVTZ
    Blend: AUG-CC-PVTZ
  Basis Set: (AUG-CC-PVTZ AUX)
    Blend: AUG-CC-PVTZ-JKFIT + DEF2-UNIVERSAL-JKFIT
  @DF-RHF Final Energy:   -76.06033878061062
    Total Energy =                        -76.0603387806106070
  //            Monomer B HF           //
    Molecular point group: c1

    Geometry (in Angstrom), charge = 1, multiplicity = 1:

       Center              X                  Y                   Z               Mass
    ------------   -----------------  -----------------  -----------------  -----------------
      Gh(O)           0.000000000000     0.000000000000     0.000000000000    15.994914619570
      Gh(H)          -0.591931000000     0.756733000000     0.000000000000     1.007825032230
      Gh(H)          -0.591931000000    -0.756733000000     0.000000000000     1.007825032230
         K            2.342911000000     0.000000000000     0.000000000000    38.963706486400

  Charge       = 1
  Multiplicity = 1
  Basis Set: AUG-CC-PVTZ
    Blend: AUG-CC-PVTZ
  Basis Set: (AUG-CC-PVTZ AUX)
    Blend: AUG-CC-PVTZ-JKFIT + DEF2-UNIVERSAL-JKFIT

    Orbital Energies [Eh]
    ---------------------

    Doubly Occupied:

       1A   -133.753641     2A    -14.709106     3A    -11.739181
       4A    -11.739175     5A    -11.739175     6A     -1.964296
       7A     -1.170969     8A     -1.170897     9A     -1.170886

  @DF-RHF Final Energy:  -599.01750921003418

   => Energetics <=

    Nuclear Repulsion Energy =              0.0000000000000000
    One-Electron Energy =                -819.7203683303454227
    Two-Electron Energy =                 220.7028591203112455
    Total Energy =                       -599.0175092100341772
 Dipole X            :        -79.6947472           84.1217424            4.4269952
 Dipole Y            :          0.0000000            0.0000000            0.0000000
 Dipole Z            :         -0.0000000            0.0000000           -0.0000000
 Magnitude           :                                                    4.4269952

    SAPT Results
  --------------------------------------------------------------------------------------------------------
    Electrostatics                -43.54340930 [mEh]     -27.32390186 [kcal/mol]    -114.32320537 [kJ/mol]
      Elst10,r                    -44.73529801 [mEh]     -28.07182332 [kcal/mol]    -117.45250876 [kJ/mol]
      Elst12,r                      1.19188871 [mEh]       0.74792146 [kcal/mol]       3.12930338 [kJ/mol]

    Exchange                       36.68466480 [mEh]      23.01997471 [kcal/mol]      96.31557417 [kJ/mol]
      Exch10                       34.33680307 [mEh]      21.54666923 [kcal/mol]      90.15126405 [kJ/mol]
      Exch10(S^2)                  33.81809414 [mEh]      21.22117446 [kcal/mol]      88.78939394 [kJ/mol]
      Exch11(S^2)                   0.12746923 [mEh]       0.07998815 [kcal/mol]       0.33467041 [kJ/mol]
      Exch12(S^2)                   2.22039250 [mEh]       1.39331733 [kcal/mol]       5.82963971 [kJ/mol]

    Induction                     -11.52785411 [mEh]      -7.23383767 [kcal/mol]     -30.26637680 [kJ/mol]
      Ind20,r                     -37.39750029 [mEh]     -23.46728573 [kcal/mol]     -98.18712349 [kJ/mol]
      Ind22                        -4.94400082 [mEh]      -3.10240735 [kcal/mol]     -12.98047235 [kJ/mol]
      Exch-Ind20,r                 27.84004490 [mEh]      17.46989193 [kcal/mol]      73.09402782 [kJ/mol]
      Exch-Ind22                    3.68049211 [mEh]       2.30954367 [kcal/mol]       9.66313070 [kJ/mol]
      delta HF,r (2)               -0.70689002 [mEh]      -0.44358018 [kcal/mol]      -1.85593949 [kJ/mol]

    Dispersion                     -4.60479155 [mEh]      -2.88955032 [kcal/mol]     -12.08987854 [kJ/mol]
      Disp20                       -5.76275562 [mEh]      -3.61618375 [kcal/mol]     -15.13011280 [kJ/mol]
      Disp21                        0.70374356 [mEh]       0.44160575 [kcal/mol]       1.84767845 [kJ/mol]
      Disp22 (SDQ)                 -0.04024562 [mEh]      -0.02525451 [kcal/mol]      -0.10566486 [kJ/mol]
      Disp22 (T)                   -0.50707784 [mEh]      -0.31819615 [kcal/mol]      -1.33133268 [kJ/mol]
      Est. Disp22 (T)              -0.57267080 [mEh]      -0.35935635 [kcal/mol]      -1.50354697 [kJ/mol]
      Exch-Disp20                   1.06713693 [mEh]       0.66963854 [kcal/mol]       2.80176763 [kJ/mol]

  Total HF                        -20.66284035 [mEh]     -12.96612807 [kcal/mol]     -54.25027985 [kJ/mol]
  Total SAPT0                     -25.35845903 [mEh]     -15.91267328 [kcal/mol]     -66.57862502 [kJ/mol]
  Total SAPT2                     -23.08221730 [mEh]     -14.48431003 [kcal/mol]     -60.60235317 [kJ/mol]
  Total SAPT2+                    -22.99139016 [mEh]     -14.42731514 [kcal/mol]     -60.36388655 [kJ/mol]

  Special recipe for scaled SAPT0 (see Manual):
    Electrostatics sSAPT0         -44.73529801 [mEh]     -28.07182332 [kcal/mol]    -117.45250876 [kJ/mol]
    Exchange sSAPT0                34.33680307 [mEh]      21.54666923 [kcal/mol]      90.15126405 [kJ/mol]
    Induction sSAPT0               -8.96354683 [mEh]      -5.62471055 [kcal/mol]     -23.53378895 [kJ/mol]
    Dispersion sSAPT0              -4.64575777 [mEh]      -2.91525701 [kcal/mol]     -12.19743534 [kJ/mol]
  Total sSAPT0                    -24.00779953 [mEh]     -15.06512165 [kcal/mol]     -63.03246899 [kJ/mol]
  --------------------------------------------------------------------------------------------------------

*** Psi4 exiting successfully. Buy a developer a beer!
