                               Psi4 1.9 release

  ==> Input File <==

--------------------------------------------------------------------------
MEMORY 60 GB

molecule dimer {
0 1
O      0.000000     0.000000     0.000000
H     -0.591931     0.756733     0.000000
H     -0.591931    -0.756733     0.000000
--
1 1
K      2.712844     0.000000     0.000000

units ang
no_reorient
no_com
symmetry c1
}

set {
basis        aug-cc-pVTZ
scf_type     df
}

energy("sapt2+")
--------------------------------------------------------------------------

  //              Dimer HF             //
    Molecular point group: c1
  Charge       = 1
  Multiplicity = 1
  Basis Set: AUG-CC-PVTZ
    Blend: AUG-CC-PVTZ
  Basis Set: (AUG-CC-PVTZ AUX)
    Blend: AUG-CC-PVTZ-JKFIT + DEF2-UNIVERSAL-JKFIT
  @DF-RHF Final Energy:  -675.10473864167272
    Total Energy =                       -675.1047386416727250
 Dipole X            :        -91.1622545           95.1669365            4.0046820
 Dipole Y            :         -0.0000000            0.0000000           -0.0000000
 Dipole Z            :         -0.0000000            0.0000000           -0.0000000
 Magnitude           :                                                    4.0046820
  //            Monomer A HF           //
    Molecular point group: c1
  Multiplicity = 1
  Basis Set: AUG-CC-PVTZ
    Blend: AUG-CC-PVTZ
  Basis Set: (AUG-CC-PVTZ AUX)
    Blend: AUG-CC-PVTZ-JKFIT + DEF2-UNIVERSAL-JKFIT
  @DF-RHF Final Energy:   -76.06032953784680
    Total Energy =                        -76.0603295378467976
  //            Monomer B HF           //
    Molecular point group: c1

    Geometry (in Angstrom), charge = 1, multiplicity = 1:

       Center              X                  Y                   Z               Mass
    ------------   -----------------  -----------------  -----------------  -----------------
      Gh(O)           0.000000000000     0.000000000000     0.000000000000    15.994914619570
      Gh(H)          -0.591931000000     0.756733000000     0.000000000000     1.007825032230
      Gh(H)          -0.591931000000    -0.756733000000     0.000000000000     1.007825032230
         K            2.712844000000     0.000000000000     0.000000000000    38.963706486400

  Charge       = 1
  Multiplicity = 1
  Basis Set: AUG-CC-PVTZ
    Blend: AUG-CC-PVTZ
  Basis Set: (AUG-CC-PVTZ AUX)
    Blend: AUG-CC-PVTZ-JKFIT + DEF2-UNIVERSAL-JKFIT

    Orbital Energies [Eh]
    ---------------------

    Doubly Occupied:

       1A   -133.753838     2A    -14.709259     3A    -11.739332
       4A    -11.739329     5A    -11.739328     6A     -1.964362
       7A     -1.171002     8A     -1.170947     9A     -1.170942

  @DF-RHF Final Energy:  -599.01750832957111

   => Energetics <=

    Nuclear Repulsion Energy =              0.0000000000000000
    One-Electron Energy =                -819.7183385535759044
    Two-Electron Energy =                 220.7008302240047328
    Total Energy =                       -599.0175083295712284
 Dipole X            :        -92.2779045           97.4041114            5.1262070
 Dipole Y            :         -0.0000000            0.0000000           -0.0000000
 Dipole Z            :         -0.0000000            0.0000000           -0.0000000
 Magnitude           :                                                    5.1262070

    SAPT Results
  --------------------------------------------------------------------------------------------------------
    Electrostatics                -27.91782639 [mEh]     -17.51870055 [kcal/mol]     -73.29824309 [kJ/mol]
      Elst10,r                    -29.21944506 [mEh]     -18.33547859 [kcal/mol]     -76.71564244 [kJ/mol]
      Elst12,r                      1.30161867 [mEh]       0.81677805 [kcal/mol]       3.41739935 [kJ/mol]

    Exchange                        8.99249550 [mEh]       5.64287612 [kcal/mol]      23.60979368 [kJ/mol]
      Exch10                        8.09012399 [mEh]       5.07662945 [kcal/mol]      21.24061760 [kJ/mol]
      Exch10(S^2)                   8.05622771 [mEh]       5.05535921 [kcal/mol]      21.15162294 [kJ/mol]
      Exch11(S^2)                   0.04251422 [mEh]       0.02667808 [kcal/mol]       0.11162107 [kJ/mol]
      Exch12(S^2)                   0.85985729 [mEh]       0.53956860 [kcal/mol]       2.25755501 [kJ/mol]

    Induction                      -6.56412385 [mEh]      -4.11904991 [kcal/mol]     -17.23410480 [kJ/mol]
      Ind20,r                     -11.79313074 [mEh]      -7.40030126 [kcal/mol]     -30.96286048 [kJ/mol]
      Ind22                        -1.70918006 [mEh]      -1.07252668 [kcal/mol]      -4.48745162 [kJ/mol]
      Exch-Ind20,r                  6.32380125 [mEh]       3.96824520 [kcal/mol]      16.60313790 [kJ/mol]
      Exch-Ind22                    0.91650938 [mEh]       0.57511832 [kcal/mol]       2.40629506 [kJ/mol]
      delta HF,r (2)               -0.30212370 [mEh]      -0.18958548 [kcal/mol]      -0.79322566 [kJ/mol]

    Dispersion                     -1.99751423 [mEh]      -1.25345910 [kcal/mol]      -5.24447288 [kJ/mol]
      Disp20                       -2.29069843 [mEh]      -1.43743497 [kcal/mol]      -6.01422790 [kJ/mol]
      Disp21                        0.27390948 [mEh]       0.17188079 [kcal/mol]       0.71914924 [kJ/mol]
      Disp22 (SDQ)                 -0.01652276 [mEh]      -0.01036819 [kcal/mol]      -0.04338051 [kJ/mol]
      Disp22 (T)                   -0.21401734 [mEh]      -0.13429791 [kcal/mol]      -0.56190246 [kJ/mol]
      Est. Disp22 (T)              -0.24118119 [mEh]      -0.15134348 [kcal/mol]      -0.63322113 [kJ/mol]
      Exch-Disp20                   0.27697867 [mEh]       0.17380674 [kcal/mol]       0.72720741 [kJ/mol]

  Total HF                        -26.90077425 [mEh]     -16.88049070 [kcal/mol]     -70.62797308 [kJ/mol]
  Total SAPT0                     -28.91449401 [mEh]     -18.14411892 [kcal/mol]     -75.91499357 [kJ/mol]
  Total SAPT2                     -27.50317450 [mEh]     -17.25850256 [kcal/mol]     -72.20957471 [kJ/mol]
  Total SAPT2+                    -27.48696897 [mEh]     -17.24833344 [kcal/mol]     -72.16702710 [kJ/mol]

  Special recipe for scaled SAPT0 (see Manual):
    Electrostatics sSAPT0         -29.21944506 [mEh]     -18.33547859 [kcal/mol]     -76.71564244 [kJ/mol]
    Exchange sSAPT0                 8.09012399 [mEh]       5.07662945 [kcal/mol]      21.24061760 [kJ/mol]
    Induction sSAPT0               -5.69129539 [mEh]      -3.57134178 [kcal/mol]     -14.94249399 [kJ/mol]
    Dispersion sSAPT0              -2.01020889 [mEh]      -1.26142512 [kcal/mol]      -5.27780272 [kJ/mol]
  Total sSAPT0                    -28.83082536 [mEh]     -18.09161605 [kcal/mol]     -75.69532155 [kJ/mol]
  --------------------------------------------------------------------------------------------------------

*** Psi4 exiting successfully. Buy a developer a beer!
