                               Psi4 1.9 release

  ==> Input File <==

--------------------------------------------------------------------------
MEMORY 60 GB

molecule dimer {
0 1
O      0.000000     0.000000     0.000000
H     -0.591931     0.756733     0.000000
H     -0.591931    -0.756733     0.000000
--
1 1
K      4.932444     0.000000     0.000000

units ang
no_reorient
no_com
symmetry c1
}

set {
basis        aug-cc-pVTZ
scf_type     df
}

energy("sapt2+")
--------------------------------------------------------------------------

  //              Dimer HF             //
    Molecular point group: c1
  Charge       = 1
  Multiplicity = 1
  Basis Set: AUG-CC-PVTZ
    Blend: AUG-CC-PVTZ
  Basis Set: (AUG-CC-PVTZ AUX)
    Blend: AUG-CC-PVTZ-JKFIT + DEF2-UNIVERSAL-JKFIT
  @DF-RHF Final Energy:  -675.08706413590789
    Total Energy =                       -675.0870641359078945
 Dipole X            :       -166.4292736          174.8612225            8.4319490
 Dipole Y            :         -0.0000000            0.0000000           -0.0000000
 Dipole Z            :          0.0000000            0.0000000            0.0000000
 Magnitude           :                                                    8.4319490
  //            Monomer A HF           //
    Molecular point group: c1
  Multiplicity = 1
  Basis Set: AUG-CC-PVTZ
    Blend: AUG-CC-PVTZ
  Basis Set: (AUG-CC-PVTZ AUX)
    Blend: AUG-CC-PVTZ-JKFIT + DEF2-UNIVERSAL-JKFIT
  @DF-RHF Final Energy:   -76.06031384558358
    Total Energy =                        -76.0603138455835790
  //            Monomer B HF           //
    Molecular point group: c1

    Geometry (in Angstrom), charge = 1, multiplicity = 1:

       Center              X                  Y                   Z               Mass
    ------------   -----------------  -----------------  -----------------  -----------------
      Gh(O)           0.000000000000     0.000000000000     0.000000000000    15.994914619570
      Gh(H)          -0.591931000000     0.756733000000     0.000000000000     1.007825032230
      Gh(H)          -0.591931000000    -0.756733000000     0.000000000000     1.007825032230
         K            4.932444000000     0.000000000000     0.000000000000    38.963706486400

  Charge       = 1
  Multiplicity = 1
  Basis Set: AUG-CC-PVTZ
    Blend: AUG-CC-PVTZ
  Basis Set: (AUG-CC-PVTZ AUX)
    Blend: AUG-CC-PVTZ-JKFIT + DEF2-UNIVERSAL-JKFIT

    Orbital Energies [Eh]
    ---------------------

    Doubly Occupied:

       1A   -133.753980     2A    -14.709385     3A    -11.739449
       4A    -11.739446     5A    -11.739446     6A     -1.964450
       7A     -1.171013     8A     -1.171008     9A     -1.171007

  @DF-RHF Final Energy:  -599.01750607616566

   => Energetics <=

    Nuclear Repulsion Energy =              0.0000000000000000
    One-Electron Energy =                -819.7166421032853805
    Two-Electron Energy =                 220.6991360271197777
    Total Energy =                       -599.0175060761655459
 Dipole X            :       -167.7775049          177.0983975            9.3208925
 Dipole Y            :         -0.0000000            0.0000000           -0.0000000
 Dipole Z            :          0.0000000            0.0000000            0.0000000
 Magnitude           :                                                    9.3208925

    SAPT Results
  --------------------------------------------------------------------------------------------------------
    Electrostatics                 -8.15268769 [mEh]      -5.11588876 [kcal/mol]     -21.40487857 [kJ/mol]
      Elst10,r                     -8.69927200 [mEh]      -5.45887560 [kcal/mol]     -22.83993550 [kJ/mol]
      Elst12,r                      0.54658432 [mEh]       0.34298684 [kcal/mol]       1.43505693 [kJ/mol]

    Exchange                        0.00160454 [mEh]       0.00100686 [kcal/mol]       0.00421272 [kJ/mol]
      Exch10                        0.00123491 [mEh]       0.00077492 [kcal/mol]       0.00324227 [kJ/mol]
      Exch10(S^2)                   0.00123491 [mEh]       0.00077492 [kcal/mol]       0.00324226 [kJ/mol]
      Exch11(S^2)                   0.00001012 [mEh]       0.00000635 [kcal/mol]       0.00002656 [kJ/mol]
      Exch12(S^2)                   0.00035951 [mEh]       0.00022559 [kcal/mol]       0.00094389 [kJ/mol]

    Induction                      -0.60125223 [mEh]      -0.37729147 [kcal/mol]      -1.57858752 [kJ/mol]
      Ind20,r                      -0.53705547 [mEh]      -0.33700739 [kcal/mol]      -1.41003894 [kJ/mol]
      Ind22                        -0.05518001 [mEh]      -0.03462598 [kcal/mol]      -0.14487509 [kJ/mol]
      Exch-Ind20,r                  0.00102043 [mEh]       0.00064033 [kcal/mol]       0.00267913 [kJ/mol]
      Exch-Ind22                    0.00010484 [mEh]       0.00006579 [kcal/mol]       0.00027527 [kJ/mol]
      delta HF,r (2)               -0.01014203 [mEh]      -0.00636422 [kcal/mol]      -0.02662789 [kJ/mol]

    Dispersion                     -0.04693585 [mEh]      -0.02945269 [kcal/mol]      -0.12323007 [kJ/mol]
      Disp20                       -0.04917441 [mEh]      -0.03085741 [kcal/mol]      -0.12910739 [kJ/mol]
      Disp21                        0.00857622 [mEh]       0.00538166 [kcal/mol]       0.02251686 [kJ/mol]
      Disp22 (SDQ)                 -0.00067081 [mEh]      -0.00042094 [kcal/mol]      -0.00176121 [kJ/mol]
      Disp22 (T)                   -0.00557658 [mEh]      -0.00349936 [kcal/mol]      -0.01464131 [kJ/mol]
      Est. Disp22 (T)              -0.00572668 [mEh]      -0.00359355 [kcal/mol]      -0.01503540 [kJ/mol]
      Exch-Disp20                   0.00005982 [mEh]       0.00003754 [kcal/mol]       0.00015707 [kJ/mol]

  Total HF                         -9.24421416 [mEh]      -5.80083196 [kcal/mol]     -24.27068093 [kJ/mol]
  Total SAPT0                      -9.29332874 [mEh]      -5.83165183 [kcal/mol]     -24.39963125 [kJ/mol]
  Total SAPT2                      -8.80144996 [mEh]      -5.52299323 [kcal/mol]     -23.10820369 [kJ/mol]
  Total SAPT2+                     -8.79927123 [mEh]      -5.52162606 [kcal/mol]     -23.10248344 [kJ/mol]

  Special recipe for scaled SAPT0 (see Manual):
    Electrostatics sSAPT0          -8.69927200 [mEh]      -5.45887560 [kcal/mol]     -22.83993550 [kJ/mol]
    Exchange sSAPT0                 0.00123491 [mEh]       0.00077492 [kcal/mol]       0.00324227 [kJ/mol]
    Induction sSAPT0               -0.54617707 [mEh]      -0.34273129 [kcal/mol]      -1.43398770 [kJ/mol]
    Dispersion sSAPT0              -0.04911458 [mEh]      -0.03081987 [kcal/mol]      -0.12895032 [kJ/mol]
  Total sSAPT0                     -9.29332874 [mEh]      -5.83165183 [kcal/mol]     -24.39963125 [kJ/mol]
  --------------------------------------------------------------------------------------------------------

*** Psi4 exiting successfully. Buy a developer a beer!
