                               Psi4 1.9 release

  ==> Input File <==

--------------------------------------------------------------------------
MEMORY 60 GB

molecule dimer {
0 1
O      0.000000     0.000000     0.000000
H     -0.591931     0.756733     0.000000
H     -0.591931    -0.756733     0.000000
--
1 1
K      2.219600     0.000000     0.000000

units ang
no_reorient
no_com
symmetry c1
}

set {
basis        aug-cc-pVTZ
scf_type     df
}

energy("sapt2+")
--------------------------------------------------------------------------

  //              Dimer HF             //
    Molecular point group: c1
  Charge       = 1
  Multiplicity = 1
  Basis Set: AUG-CC-PVTZ
    Blend: AUG-CC-PVTZ
  Basis Set: (AUG-CC-PVTZ AUX)
    Blend: AUG-CC-PVTZ-JKFIT + DEF2-UNIVERSAL-JKFIT
  @DF-RHF Final Energy:  -675.08995912632076
    Total Energy =                       -675.0899591263207640
 Dipole X            :        -74.4936224           77.4571111            2.9634887
 Dipole Y            :         -0.0000000            0.0000000           -0.0000000
 Dipole Z            :          0.0000000            0.0000000            0.0000000
 Magnitude           :                                                    2.9634887
  //            Monomer A HF           //
    Molecular point group: c1
  Multiplicity = 1
  Basis Set: AUG-CC-PVTZ
    Blend: AUG-CC-PVTZ
  Basis Set: (AUG-CC-PVTZ AUX)
    Blend: AUG-CC-PVTZ-JKFIT + DEF2-UNIVERSAL-JKFIT
  @DF-RHF Final Energy:   -76.06034106936579
    Total Energy =                        -76.0603410693657906
  //            Monomer B HF           //
    Molecular point group: c1

    Geometry (in Angstrom), charge = 1, multiplicity = 1:

       Center              X                  Y                   Z               Mass
    ------------   -----------------  -----------------  -----------------  -----------------
      Gh(O)           0.000000000000     0.000000000000     0.000000000000    15.994914619570
      Gh(H)          -0.591931000000     0.756733000000     0.000000000000     1.007825032230
      Gh(H)          -0.591931000000    -0.756733000000     0.000000000000     1.007825032230
         K            2.219600000000     0.000000000000     0.000000000000    38.963706486400

  Charge       = 1
  Multiplicity = 1
  Basis Set: AUG-CC-PVTZ
    Blend: AUG-CC-PVTZ
  Basis Set: (AUG-CC-PVTZ AUX)
    Blend: AUG-CC-PVTZ-JKFIT + DEF2-UNIVERSAL-JKFIT

    Orbital Energies [Eh]
    ---------------------

    Doubly Occupied:

       1A   -133.753536     2A    -14.709027     3A    -11.739102
       4A    -11.739094     5A    -11.739094     6A     -1.964266
       7A     -1.170947     8A     -1.170875     9A     -1.170861

  @DF-RHF Final Energy:  -599.01750955124351

   => Energetics <=

    Nuclear Repulsion Energy =              0.0000000000000000
    One-Electron Energy =                -819.7214135717525778
    Two-Electron Energy =                 220.7039040205090998
    Total Energy =                       -599.0175095512435064
 Dipole X            :        -75.5003472           79.6942861            4.1939389
 Dipole Y            :          0.0000000            0.0000000            0.0000000
 Dipole Z            :          0.0000000            0.0000000            0.0000000
 Magnitude           :                                                    4.1939389

    SAPT Results
  --------------------------------------------------------------------------------------------------------
    Electrostatics                -53.35324007 [mEh]     -33.47966360 [kcal/mol]    -140.07891251 [kJ/mol]
      Elst10,r                    -54.42260973 [mEh]     -34.15070319 [kcal/mol]    -142.88654215 [kJ/mol]
      Elst12,r                      1.06936966 [mEh]       0.67103959 [kcal/mol]       2.80762965 [kJ/mol]

    Exchange                       58.38528348 [mEh]      36.63731852 [kcal/mol]     153.29054067 [kJ/mol]
      Exch10                       55.34309141 [mEh]      34.72831417 [kcal/mol]     145.30326648 [kJ/mol]
      Exch10(S^2)                  54.07723764 [mEh]      33.93397893 [kcal/mol]     141.97976786 [kJ/mol]
      Exch11(S^2)                   0.15819306 [mEh]       0.09926765 [kcal/mol]       0.41533583 [kJ/mol]
      Exch12(S^2)                   2.88399901 [mEh]       1.80973670 [kcal/mol]       7.57193836 [kJ/mol]

    Induction                     -14.55821537 [mEh]      -9.13541807 [kcal/mol]     -38.22258919 [kJ/mol]
      Ind20,r                     -58.01193794 [mEh]     -36.40304065 [kcal/mol]    -152.31032207 [kJ/mol]
      Ind22                        -7.11986824 [mEh]      -4.46778477 [kcal/mol]     -18.69321149 [kJ/mol]
      Exch-Ind20,r                 45.55194913 [mEh]      28.58427963 [kcal/mol]     119.59662596 [kJ/mol]
      Exch-Ind22                    5.59064026 [mEh]       3.50817973 [kcal/mol]      14.67822398 [kJ/mol]
      delta HF,r (2)               -0.56899859 [mEh]      -0.35705200 [kcal/mol]      -1.49390559 [kJ/mol]

    Dispersion                     -6.19159428 [mEh]      -3.88528407 [kcal/mol]     -16.25602854 [kJ/mol]
      Disp20                       -8.00843539 [mEh]      -5.02536908 [kcal/mol]     -21.02614423 [kJ/mol]
      Disp21                        1.01188274 [mEh]       0.63496600 [kcal/mol]       2.65669776 [kJ/mol]
      Disp22 (SDQ)                 -0.05967736 [mEh]      -0.03744811 [kcal/mol]      -0.15668289 [kJ/mol]
      Disp22 (T)                   -0.70077328 [mEh]      -0.43974187 [kcal/mol]      -1.83988000 [kJ/mol]
      Est. Disp22 (T)              -0.77674018 [mEh]      -0.48741182 [kcal/mol]      -2.03933106 [kJ/mol]
      Exch-Disp20                   1.64137592 [mEh]       1.02997894 [kcal/mol]       4.30943188 [kJ/mol]

  Total HF                        -12.10850571 [mEh]      -7.59820205 [kcal/mol]     -31.79087737 [kJ/mol]
  Total SAPT0                     -18.47556518 [mEh]     -11.59359219 [kcal/mol]     -48.50758971 [kJ/mol]
  Total SAPT2                     -15.89323143 [mEh]      -9.97315329 [kcal/mol]     -41.72767337 [kJ/mol]
  Total SAPT2+                    -15.71776624 [mEh]      -9.86304722 [kcal/mol]     -41.26698957 [kJ/mol]

  Special recipe for scaled SAPT0 (see Manual):
    Electrostatics sSAPT0         -54.42260973 [mEh]     -34.15070319 [kcal/mol]    -142.88654215 [kJ/mol]
    Exchange sSAPT0                55.34309141 [mEh]      34.72831417 [kcal/mol]     145.30326648 [kJ/mol]
    Induction sSAPT0               -9.75464812 [mEh]      -6.12113411 [kcal/mol]     -25.61082510 [kJ/mol]
    Dispersion sSAPT0              -6.24907502 [mEh]      -3.92135378 [kcal/mol]     -16.40694421 [kJ/mol]
  Total sSAPT0                    -15.08324146 [mEh]      -9.46487691 [kcal/mol]     -39.60104499 [kJ/mol]
  --------------------------------------------------------------------------------------------------------

*** Psi4 exiting successfully. Buy a developer a beer!
