                               Psi4 1.9 release

  ==> Input File <==

--------------------------------------------------------------------------
MEMORY 60 GB

molecule dimer {
0 1
O      0.000000     0.000000     0.000000
H     -0.591931     0.756733     0.000000
H     -0.591931    -0.756733     0.000000
--
1 1
K      3.699333     0.000000     0.000000

units ang
no_reorient
no_com
symmetry c1
}

set {
basis        aug-cc-pVTZ
scf_type     df
}

energy("sapt2+")
--------------------------------------------------------------------------

  //              Dimer HF             //
    Molecular point group: c1
  Charge       = 1
  Multiplicity = 1
  Basis Set: AUG-CC-PVTZ
    Blend: AUG-CC-PVTZ
  Basis Set: (AUG-CC-PVTZ AUX)
    Blend: AUG-CC-PVTZ-JKFIT + DEF2-UNIVERSAL-JKFIT
  @DF-RHF Final Energy:  -675.09464871920625
    Total Energy =                       -675.0946487192063614
 Dipole X            :       -124.5737169          130.5866232            6.0129063
 Dipole Y            :         -0.0000000            0.0000000           -0.0000000
 Dipole Z            :         -0.0000000            0.0000000           -0.0000000
 Magnitude           :                                                    6.0129063
  //            Monomer A HF           //
    Molecular point group: c1
  Multiplicity = 1
  Basis Set: AUG-CC-PVTZ
    Blend: AUG-CC-PVTZ
  Basis Set: (AUG-CC-PVTZ AUX)
    Blend: AUG-CC-PVTZ-JKFIT + DEF2-UNIVERSAL-JKFIT
  @DF-RHF Final Energy:   -76.06031711914990
    Total Energy =                        -76.0603171191499001
  //            Monomer B HF           //
    Molecular point group: c1

    Geometry (in Angstrom), charge = 1, multiplicity = 1:

       Center              X                  Y                   Z               Mass
    ------------   -----------------  -----------------  -----------------  -----------------
      Gh(O)           0.000000000000     0.000000000000     0.000000000000    15.994914619570
      Gh(H)          -0.591931000000     0.756733000000     0.000000000000     1.007825032230
      Gh(H)          -0.591931000000    -0.756733000000     0.000000000000     1.007825032230
         K            3.699333000000     0.000000000000     0.000000000000    38.963706486400

  Charge       = 1
  Multiplicity = 1
  Basis Set: AUG-CC-PVTZ
    Blend: AUG-CC-PVTZ
  Basis Set: (AUG-CC-PVTZ AUX)
    Blend: AUG-CC-PVTZ-JKFIT + DEF2-UNIVERSAL-JKFIT

    Orbital Energies [Eh]
    ---------------------

    Doubly Occupied:

       1A   -133.753841     2A    -14.709271     3A    -11.739334
       4A    -11.739331     5A    -11.739331     6A     -1.964398
       7A     -1.170988     8A     -1.170958     9A     -1.170957

  @DF-RHF Final Energy:  -599.01750700997832

   => Energetics <=

    Nuclear Repulsion Energy =              0.0000000000000000
    One-Electron Energy =                -819.7181980724529922
    Two-Electron Energy =                 220.7006910624747320
    Total Energy =                       -599.0175070099783170
 Dipole X            :       -125.8334590          132.8237981            6.9903391
 Dipole Y            :          0.0000000            0.0000000            0.0000000
 Dipole Z            :          0.0000000            0.0000000            0.0000000
 Magnitude           :                                                    6.9903391

    SAPT Results
  --------------------------------------------------------------------------------------------------------
    Electrostatics                -14.27062318 [mEh]      -8.95495124 [kcal/mol]     -37.46751599 [kJ/mol]
      Elst10,r                    -15.19968903 [mEh]      -9.53794887 [kcal/mol]     -39.90677806 [kJ/mol]
      Elst12,r                      0.92906585 [mEh]       0.58299763 [kcal/mol]       2.43926207 [kJ/mol]

    Exchange                        0.19887250 [mEh]       0.12479438 [kcal/mol]       0.52213968 [kJ/mol]
      Exch10                        0.15996247 [mEh]       0.10037797 [kcal/mol]       0.41998142 [kJ/mol]
      Exch10(S^2)                   0.15994443 [mEh]       0.10036665 [kcal/mol]       0.41993405 [kJ/mol]
      Exch11(S^2)                   0.00138250 [mEh]       0.00086753 [kcal/mol]       0.00362975 [kJ/mol]
      Exch12(S^2)                   0.03752753 [mEh]       0.02354888 [kcal/mol]       0.09852851 [kJ/mol]

    Induction                      -1.97708243 [mEh]      -1.24063796 [kcal/mol]      -5.19082921 [kJ/mol]
      Ind20,r                      -1.83546740 [mEh]      -1.15177318 [kcal/mol]      -4.81901899 [kJ/mol]
      Ind22                        -0.20593937 [mEh]      -0.12922890 [kcal/mol]      -0.54069373 [kJ/mol]
      Exch-Ind20,r                  0.12228574 [mEh]       0.07673546 [kcal/mol]       0.32106117 [kJ/mol]
      Exch-Ind22                    0.01372046 [mEh]       0.00860972 [kcal/mol]       0.03602305 [kJ/mol]
      delta HF,r (2)               -0.07168186 [mEh]      -0.04498105 [kcal/mol]      -0.18820070 [kJ/mol]

    Dispersion                     -0.29709536 [mEh]      -0.18643016 [kcal/mol]      -0.78002377 [kJ/mol]
      Disp20                       -0.30862874 [mEh]      -0.19366746 [kcal/mol]      -0.81030463 [kJ/mol]
      Disp21                        0.04481028 [mEh]       0.02811887 [kcal/mol]       0.11764937 [kJ/mol]
      Disp22 (SDQ)                 -0.00425928 [mEh]      -0.00267274 [kcal/mol]      -0.01118274 [kJ/mol]
      Disp22 (T)                   -0.03303311 [mEh]      -0.02072859 [kcal/mol]      -0.08672843 [kJ/mol]
      Est. Disp22 (T)              -0.03515549 [mEh]      -0.02206040 [kcal/mol]      -0.09230073 [kJ/mol]
      Exch-Disp20                   0.00613786 [mEh]       0.00385157 [kcal/mol]       0.01611496 [kJ/mol]

  Total HF                        -16.82459008 [mEh]     -10.55758967 [kcal/mol]     -44.17295516 [kJ/mol]
  Total SAPT0                     -17.12708095 [mEh]     -10.74740555 [kcal/mol]     -44.96714484 [kJ/mol]
  Total SAPT2                     -16.35132398 [mEh]     -10.26061071 [kcal/mol]     -42.93039519 [kJ/mol]
  Total SAPT2+                    -16.34592847 [mEh]     -10.25722497 [kcal/mol]     -42.91622929 [kJ/mol]

  Special recipe for scaled SAPT0 (see Manual):
    Electrostatics sSAPT0         -15.19968903 [mEh]      -9.53794887 [kcal/mol]     -39.90677806 [kJ/mol]
    Exchange sSAPT0                 0.15996247 [mEh]       0.10037797 [kcal/mol]       0.41998142 [kJ/mol]
    Induction sSAPT0               -1.78482213 [mEh]      -1.11999280 [kcal/mol]      -4.68604986 [kJ/mol]
    Dispersion sSAPT0              -0.30248879 [mEh]      -0.18981458 [kcal/mol]      -0.79418422 [kJ/mol]
  Total sSAPT0                    -17.12703748 [mEh]     -10.74737828 [kcal/mol]     -44.96703071 [kJ/mol]
  --------------------------------------------------------------------------------------------------------

*** Psi4 exiting successfully. Buy a developer a beer!
