                               Psi4 1.9 release

  ==> Input File <==

--------------------------------------------------------------------------
MEMORY 60 GB

molecule dimer {
0 1
O      0.000000     0.000000     0.000000
H     -0.159063     0.944263     0.000000
H      1.060028    -0.036721     0.000000
--
-1 1
F      1.941111     0.000000     0.000000

units ang
no_reorient
no_com
symmetry c1
}

set {
basis        aug-cc-pVTZ
scf_type     df
}

energy("sapt2+")
--------------------------------------------------------------------------

  //              Dimer HF             //
    Molecular point group: c1
  Charge       = -1
  Multiplicity = 1
  Basis Set: AUG-CC-PVTZ
    Blend: AUG-CC-PVTZ
  Basis Set: (AUG-CC-PVTZ AUX)
    Blend: AUG-CC-PVTZ-JKFIT
  @DF-RHF Final Energy:  -175.47064318146823
    Total Energy =                       -175.4706431814682333
 Dipole X            :        -36.2898189           34.7160906           -1.5737282
 Dipole Y            :         -1.2681491            1.7150058            0.4468567
 Dipole Z            :          0.0000000            0.0000000            0.0000000
 Magnitude           :                                                    1.6359406
  //            Monomer A HF           //
    Molecular point group: c1
  Multiplicity = 1
  Basis Set: AUG-CC-PVTZ
    Blend: AUG-CC-PVTZ
  Basis Set: (AUG-CC-PVTZ AUX)
    Blend: AUG-CC-PVTZ-JKFIT
  @DF-RHF Final Energy:   -76.04865231954888
    Total Energy =                        -76.0486523195488928
  //            Monomer B HF           //
    Molecular point group: c1

    Geometry (in Angstrom), charge = -1, multiplicity = 1:

       Center              X                  Y                   Z               Mass
    ------------   -----------------  -----------------  -----------------  -----------------
      Gh(O)           0.000000000000     0.000000000000     0.000000000000    15.994914619570
      Gh(H)          -0.159063000000     0.944263000000     0.000000000000     1.007825032230
      Gh(H)           1.060028000000    -0.036721000000     0.000000000000     1.007825032230
         F            1.941111000000     0.000000000000     0.000000000000    18.998403162730

  Charge       = -1
  Multiplicity = 1
  Basis Set: AUG-CC-PVTZ
    Blend: AUG-CC-PVTZ
  Basis Set: (AUG-CC-PVTZ AUX)
    Blend: AUG-CC-PVTZ-JKFIT

    Orbital Energies [Eh]
    ---------------------

    Doubly Occupied:

       1A    -25.833746     2A     -1.075939     3A     -0.180995
       4A     -0.180873     5A     -0.180870

  @DF-RHF Final Energy:   -99.45098102538805

   => Energetics <=

    Nuclear Repulsion Energy =              0.0000000000000000
    One-Electron Energy =                -143.9971171472991216
    Two-Electron Energy =                  44.5461361219110756
    Total Energy =                        -99.4509810253880460
 Dipole X            :        -36.6813542           33.0135135           -3.6678407
 Dipole Y            :          0.0002383            0.0000000            0.0002383
 Dipole Z            :          0.0000000            0.0000000            0.0000000
 Magnitude           :                                                    3.6678407

    SAPT Results
  --------------------------------------------------------------------------------------------------------
    Electrostatics               -150.16230669 [mEh]     -94.22827005 [kcal/mol]    -394.25108190 [kJ/mol]
      Elst10,r                   -153.79595442 [mEh]     -96.50841842 [kcal/mol]    -403.79122269 [kJ/mol]
      Elst12,r                      3.63364772 [mEh]       2.28014837 [kcal/mol]       9.54014079 [kJ/mol]

    Exchange                      383.15712305 [mEh]     240.43472466 [kcal/mol]    1005.97888798 [kJ/mol]
      Exch10                      357.13249993 [mEh]     224.10402710 [kcal/mol]     937.65124940 [kJ/mol]
      Exch10(S^2)                 312.23587811 [mEh]     195.93097156 [kcal/mol]     819.77518503 [kJ/mol]
      Exch11(S^2)                  -1.14204142 [mEh]      -0.71664181 [kcal/mol]      -2.99842934 [kJ/mol]
      Exch12(S^2)                  27.16666454 [mEh]      17.04733937 [kcal/mol]      71.32606793 [kJ/mol]

    Induction                    -195.03523090 [mEh]    -122.38645511 [kcal/mol]    -512.06492818 [kJ/mol]
      Ind20,r                    -288.05221149 [mEh]    -180.75549165 [kcal/mol]    -756.28097707 [kJ/mol]
      Ind22                       -43.53516285 [mEh]     -27.31872713 [kcal/mol]    -114.30155432 [kJ/mol]
      Exch-Ind20,r                151.16358460 [mEh]      94.85658142 [kcal/mol]     396.87993668 [kJ/mol]
      Exch-Ind22                   22.84631400 [mEh]      14.33627848 [kcal/mol]      59.98298915 [kJ/mol]
      delta HF,r (2)              -37.45775516 [mEh]     -23.50509623 [kcal/mol]     -98.34532262 [kJ/mol]

    Dispersion                    -42.04967324 [mEh]     -26.38656833 [kcal/mol]    -110.40140187 [kJ/mol]
      Disp20                      -52.45374429 [mEh]     -32.91522147 [kcal/mol]    -137.71728665 [kJ/mol]
      Disp21                        8.60105204 [mEh]       5.39724164 [kcal/mol]      22.58205901 [kJ/mol]
      Disp22 (SDQ)                 -5.14197281 [mEh]      -3.22663665 [kcal/mol]     -13.50024776 [kJ/mol]
      Disp22 (T)                   -8.02971688 [mEh]      -5.03872342 [kcal/mol]     -21.08201877 [kJ/mol]
      Est. Disp22 (T)              -8.64005688 [mEh]      -5.42171754 [kcal/mol]     -22.68446620 [kJ/mol]
      Exch-Disp20                  15.58504870 [mEh]       9.77976571 [kcal/mol]      40.91853973 [kJ/mol]

  Total HF                         28.99016347 [mEh]      18.19160222 [kcal/mol]      76.11366370 [kJ/mol]
  Total SAPT0                      -7.87853212 [mEh]      -4.94385354 [kcal/mol]     -20.68508322 [kJ/mol]
  Total SAPT2                       1.09088988 [mEh]       0.68454373 [kcal/mol]       2.86413098 [kJ/mol]
  Total SAPT2+                     -4.09008777 [mEh]      -2.56656883 [kcal/mol]     -10.73852397 [kJ/mol]

  Special recipe for scaled SAPT0 (see Manual):
    Electrostatics sSAPT0        -153.79595442 [mEh]     -96.50841842 [kcal/mol]    -403.79122269 [kJ/mol]
    Exchange sSAPT0               357.13249993 [mEh]     224.10402710 [kcal/mol]     937.65124940 [kJ/mol]
    Induction sSAPT0              -99.31294188 [mEh]     -62.31981190 [kcal/mol]    -260.74609298 [kJ/mol]
    Dispersion sSAPT0             -29.13270664 [mEh]     -18.28104941 [kcal/mol]     -76.48791074 [kJ/mol]
  Total sSAPT0                     74.89089700 [mEh]      46.99474737 [kcal/mol]     196.62602299 [kJ/mol]
  --------------------------------------------------------------------------------------------------------

*** Psi4 exiting successfully. Buy a developer a beer!
