                               Psi4 1.9 release

  ==> Input File <==

--------------------------------------------------------------------------
MEMORY 60 GB

molecule dimer {
0 1
O      0.000000     0.000000     0.000000
H     -0.159063     0.944263     0.000000
H      1.060028    -0.036721     0.000000
--
-1 1
F      3.639583     0.000000     0.000000

units ang
no_reorient
no_com
symmetry c1
}

set {
basis        aug-cc-pVTZ
scf_type     df
}

energy("sapt2+")
--------------------------------------------------------------------------

  //              Dimer HF             //
    Molecular point group: c1
  Charge       = -1
  Multiplicity = 1
  Basis Set: AUG-CC-PVTZ
    Blend: AUG-CC-PVTZ
  Basis Set: (AUG-CC-PVTZ AUX)
    Blend: AUG-CC-PVTZ-JKFIT
  @DF-RHF Final Energy:  -175.52150384242941
    Total Energy =                       -175.5215038424294391
 Dipole X            :        -69.5785225           63.6029128           -5.9756097
 Dipole Y            :         -1.1517813            1.7150058            0.5632245
 Dipole Z            :         -0.0000000            0.0000000           -0.0000000
 Magnitude           :                                                    6.0020940
  //            Monomer A HF           //
    Molecular point group: c1
  Multiplicity = 1
  Basis Set: AUG-CC-PVTZ
    Blend: AUG-CC-PVTZ
  Basis Set: (AUG-CC-PVTZ AUX)
    Blend: AUG-CC-PVTZ-JKFIT
  @DF-RHF Final Energy:   -76.04858163428014
    Total Energy =                        -76.0485816342801400
  //            Monomer B HF           //
    Molecular point group: c1

    Geometry (in Angstrom), charge = -1, multiplicity = 1:

       Center              X                  Y                   Z               Mass
    ------------   -----------------  -----------------  -----------------  -----------------
      Gh(O)           0.000000000000     0.000000000000     0.000000000000    15.994914619570
      Gh(H)          -0.159063000000     0.944263000000     0.000000000000     1.007825032230
      Gh(H)           1.060028000000    -0.036721000000     0.000000000000     1.007825032230
         F            3.639583000000     0.000000000000     0.000000000000    18.998403162730

  Charge       = -1
  Multiplicity = 1
  Basis Set: AUG-CC-PVTZ
    Blend: AUG-CC-PVTZ
  Basis Set: (AUG-CC-PVTZ AUX)
    Blend: AUG-CC-PVTZ-JKFIT

    Orbital Energies [Eh]
    ---------------------

    Doubly Occupied:

       1A    -25.833720     2A     -1.076017     3A     -0.180982
       4A     -0.180944     5A     -0.180941

  @DF-RHF Final Energy:   -99.45083735760939

   => Energetics <=

    Nuclear Repulsion Energy =              0.0000000000000000
    One-Electron Energy =                -143.9964659542358731
    Two-Electron Energy =                  44.5456285966264858
    Total Energy =                        -99.4508373576093874
 Dipole X            :        -68.7769824           61.9003357           -6.8766466
 Dipole Y            :         -0.0000057            0.0000000           -0.0000057
 Dipole Z            :         -0.0000000            0.0000000           -0.0000000
 Magnitude           :                                                    6.8766466

    SAPT Results
  --------------------------------------------------------------------------------------------------------
    Electrostatics                -18.58990440 [mEh]     -11.66534113 [kcal/mol]     -48.80778728 [kJ/mol]
      Elst10,r                    -19.12327148 [mEh]     -12.00003403 [kcal/mol]     -50.20814236 [kJ/mol]
      Elst12,r                      0.53336708 [mEh]       0.33469290 [kcal/mol]       1.40035509 [kJ/mol]

    Exchange                        2.17669987 [mEh]       1.36589979 [kcal/mol]       5.71492473 [kJ/mol]
      Exch10                        1.39120621 [mEh]       0.87299508 [kcal/mol]       3.65261140 [kJ/mol]
      Exch10(S^2)                   1.38963857 [mEh]       0.87201137 [kcal/mol]       3.64849556 [kJ/mol]
      Exch11(S^2)                   0.04337848 [mEh]       0.02722041 [kcal/mol]       0.11389018 [kJ/mol]
      Exch12(S^2)                   0.74211518 [mEh]       0.46568431 [kcal/mol]       1.94842314 [kJ/mol]

    Induction                      -4.96585348 [mEh]      -3.11612010 [kcal/mol]     -13.03784652 [kJ/mol]
      Ind20,r                      -4.54541094 [mEh]      -2.85228843 [kcal/mol]     -11.93397479 [kJ/mol]
      Ind22                        -0.68724814 [mEh]      -0.43125472 [kcal/mol]      -1.80436974 [kJ/mol]
      Exch-Ind20,r                  0.49062080 [mEh]       0.30786920 [kcal/mol]       1.28812474 [kJ/mol]
      Exch-Ind22                    0.07417992 [mEh]       0.04654860 [kcal/mol]       0.19475936 [kJ/mol]
      delta HF,r (2)               -0.29799513 [mEh]      -0.18699477 [kcal/mol]      -0.78238610 [kJ/mol]

    Dispersion                     -1.51280365 [mEh]      -0.94929862 [kcal/mol]      -3.97186543 [kJ/mol]
      Disp20                       -1.16565821 [mEh]      -0.73146157 [kcal/mol]      -3.06043522 [kJ/mol]
      Disp21                       -0.04880963 [mEh]      -0.03062850 [kcal/mol]      -0.12814965 [kJ/mol]
      Disp22 (SDQ)                 -0.17945608 [mEh]      -0.11261039 [kcal/mol]      -0.47116187 [kJ/mol]
      Disp22 (T)                   -0.24838050 [mEh]      -0.15586111 [kcal/mol]      -0.65212290 [kJ/mol]
      Est. Disp22 (T)              -0.29577891 [mEh]      -0.18560407 [kcal/mol]      -0.77656742 [kJ/mol]
      Exch-Disp20                   0.17689918 [mEh]       0.11100591 [kcal/mol]       0.46444874 [kJ/mol]

  Total HF                        -22.08485054 [mEh]     -13.85845294 [kcal/mol]     -57.98376710 [kJ/mol]
  Total SAPT0                     -23.07360957 [mEh]     -14.47890860 [kcal/mol]     -60.57975358 [kJ/mol]
  Total SAPT2                     -22.36781704 [mEh]     -14.03601710 [kcal/mol]     -58.72669555 [kJ/mol]
  Total SAPT2+                    -22.89186166 [mEh]     -14.36486006 [kcal/mol]     -60.10257450 [kJ/mol]

  Special recipe for scaled SAPT0 (see Manual):
    Electrostatics sSAPT0         -19.12327148 [mEh]     -12.00003403 [kcal/mol]     -50.20814236 [kJ/mol]
    Exchange sSAPT0                 1.39120621 [mEh]       0.87299508 [kcal/mol]       3.65261140 [kJ/mol]
    Induction sSAPT0               -4.35112300 [mEh]      -2.73037090 [kcal/mol]     -11.42387185 [kJ/mol]
    Dispersion sSAPT0              -0.98815968 [mEh]      -0.62007956 [kcal/mol]      -2.59441288 [kJ/mol]
  Total sSAPT0                    -23.07134795 [mEh]     -14.47748941 [kcal/mol]     -60.57381570 [kJ/mol]
  --------------------------------------------------------------------------------------------------------

*** Psi4 exiting successfully. Buy a developer a beer!
