                               Psi4 1.9 release

  ==> Input File <==

--------------------------------------------------------------------------
MEMORY 60 GB

molecule dimer {
0 1
O      0.000000     0.000000     0.000000
H     -0.159063     0.944263     0.000000
H      1.060028    -0.036721     0.000000
--
-1 1
F      2.305070     0.000000     0.000000

units ang
no_reorient
no_com
symmetry c1
}

set {
basis        aug-cc-pVTZ
scf_type     df
}

energy("sapt2+")
--------------------------------------------------------------------------

  //              Dimer HF             //
    Molecular point group: c1
  Charge       = -1
  Multiplicity = 1
  Basis Set: AUG-CC-PVTZ
    Blend: AUG-CC-PVTZ
  Basis Set: (AUG-CC-PVTZ AUX)
    Blend: AUG-CC-PVTZ-JKFIT
  @DF-RHF Final Energy:  -175.54576379514981
    Total Energy =                       -175.5457637951498100
 Dipole X            :        -43.6224950           40.9061361           -2.7163589
 Dipole Y            :         -1.2188035            1.7150058            0.4962023
 Dipole Z            :          0.0000000            0.0000000            0.0000000
 Magnitude           :                                                    2.7613081
  //            Monomer A HF           //
    Molecular point group: c1
  Multiplicity = 1
  Basis Set: AUG-CC-PVTZ
    Blend: AUG-CC-PVTZ
  Basis Set: (AUG-CC-PVTZ AUX)
    Blend: AUG-CC-PVTZ-JKFIT
  @DF-RHF Final Energy:   -76.04862644759130
    Total Energy =                        -76.0486264475913032
  //            Monomer B HF           //
    Molecular point group: c1

    Geometry (in Angstrom), charge = -1, multiplicity = 1:

       Center              X                  Y                   Z               Mass
    ------------   -----------------  -----------------  -----------------  -----------------
      Gh(O)           0.000000000000     0.000000000000     0.000000000000    15.994914619570
      Gh(H)          -0.159063000000     0.944263000000     0.000000000000     1.007825032230
      Gh(H)           1.060028000000    -0.036721000000     0.000000000000     1.007825032230
         F            2.305070000000     0.000000000000     0.000000000000    18.998403162730

  Charge       = -1
  Multiplicity = 1
  Basis Set: AUG-CC-PVTZ
    Blend: AUG-CC-PVTZ
  Basis Set: (AUG-CC-PVTZ AUX)
    Blend: AUG-CC-PVTZ-JKFIT

    Orbital Energies [Eh]
    ---------------------

    Doubly Occupied:

       1A    -25.833739     2A     -1.075974     3A     -0.181022
       4A     -0.180912     5A     -0.180902

  @DF-RHF Final Energy:   -99.45094085396630

   => Energetics <=

    Nuclear Repulsion Energy =              0.0000000000000000
    One-Electron Energy =                -143.9967848034514759
    Two-Electron Energy =                  44.5458439494851888
    Total Energy =                        -99.4509408539662871
 Dipole X            :        -43.5586737           39.2035590           -4.3551147
 Dipole Y            :          0.0005229            0.0000000            0.0005229
 Dipole Z            :          0.0000000            0.0000000            0.0000000
 Magnitude           :                                                    4.3551147

    SAPT Results
  --------------------------------------------------------------------------------------------------------
    Electrostatics                -92.17376703 [mEh]     -57.83991204 [kcal/mol]    -242.00219199 [kJ/mol]
      Elst10,r                    -92.66948544 [mEh]     -58.15098005 [kcal/mol]    -243.30370051 [kJ/mol]
      Elst12,r                      0.49571842 [mEh]       0.31106800 [kcal/mol]       1.30150853 [kJ/mol]

    Exchange                      126.94726835 [mEh]      79.66061356 [kcal/mol]     333.30000713 [kJ/mol]
      Exch10                      110.23454380 [mEh]      69.17322057 [kcal/mol]     289.42075488 [kJ/mol]
      Exch10(S^2)                 104.85531481 [mEh]      65.79770342 [kcal/mol]     275.29759112 [kJ/mol]
      Exch11(S^2)                   0.82288082 [mEh]       0.51636551 [kcal/mol]       2.16047330 [kJ/mol]
      Exch12(S^2)                  15.88984372 [mEh]       9.97102747 [kcal/mol]      41.71877895 [kJ/mol]

    Induction                     -70.45489671 [mEh]     -44.21111516 [kcal/mol]    -184.97930584 [kJ/mol]
      Ind20,r                     -74.67038743 [mEh]     -46.85637553 [kcal/mol]    -196.04707520 [kJ/mol]
      Ind22                       -13.28884117 [mEh]      -8.33887373 [kcal/mol]     -34.88984768 [kJ/mol]
      Exch-Ind20,r                 37.06028731 [mEh]      23.25568139 [kcal/mol]      97.30177093 [kJ/mol]
      Exch-Ind22                    6.59549640 [mEh]       4.13873648 [kcal/mol]      17.31647342 [kJ/mol]
      delta HF,r (2)              -26.15145183 [mEh]     -16.41028377 [kcal/mol]     -68.66062731 [kJ/mol]

    Dispersion                    -19.08399548 [mEh]     -11.97538796 [kcal/mol]     -50.10502322 [kJ/mol]
      Disp20                      -21.86680906 [mEh]     -13.72162984 [kcal/mol]     -57.41129927 [kJ/mol]
      Disp21                        1.85915304 [mEh]       1.16663614 [kcal/mol]       4.88120562 [kJ/mol]
      Disp22 (SDQ)                 -1.99445937 [mEh]      -1.25154215 [kcal/mol]      -5.23645235 [kJ/mol]
      Disp22 (T)                   -3.61309273 [mEh]      -2.26724992 [kcal/mol]      -9.48617366 [kJ/mol]
      Est. Disp22 (T)              -4.10162911 [mEh]      -2.57381112 [kcal/mol]     -10.76882573 [kJ/mol]
      Exch-Disp20                   7.01974902 [mEh]       4.40495901 [kcal/mol]      18.43034850 [kJ/mol]

  Total HF                        -46.19649359 [mEh]     -28.98873738 [kcal/mol]    -121.28887722 [kJ/mol]
  Total SAPT0                     -61.04355363 [mEh]     -38.30540822 [kcal/mol]    -160.26982799 [kJ/mol]
  Total SAPT2                     -50.52845544 [mEh]     -31.70708448 [kcal/mol]    -132.66244147 [kJ/mol]
  Total SAPT2+                    -54.76539087 [mEh]     -34.36580161 [kcal/mol]    -143.78651392 [kJ/mol]

  Special recipe for scaled SAPT0 (see Manual):
    Electrostatics sSAPT0         -92.66948544 [mEh]     -58.15098005 [kcal/mol]    -243.30370051 [kJ/mol]
    Exchange sSAPT0               110.23454380 [mEh]      69.17322057 [kcal/mol]     289.42075488 [kJ/mol]
    Induction sSAPT0              -57.76019947 [mEh]     -36.24507237 [kcal/mol]    -151.64938281 [kJ/mol]
    Dispersion sSAPT0             -13.71031796 [mEh]      -8.60335441 [kcal/mol]     -35.99643484 [kJ/mol]
  Total sSAPT0                    -53.90545907 [mEh]     -33.82618625 [kcal/mol]    -141.52876328 [kJ/mol]
  --------------------------------------------------------------------------------------------------------

*** Psi4 exiting successfully. Buy a developer a beer!
