                               Psi4 1.9 release

  ==> Input File <==

--------------------------------------------------------------------------
MEMORY 60 GB

molecule dimer {
0 1
O      0.000000     0.000000     0.000000
H     -0.159063     0.944263     0.000000
H      1.060028    -0.036721     0.000000
--
-1 1
F      3.154306     0.000000     0.000000

units ang
no_reorient
no_com
symmetry c1
}

set {
basis        aug-cc-pVTZ
scf_type     df
}

energy("sapt2+")
--------------------------------------------------------------------------

  //              Dimer HF             //
    Molecular point group: c1
  Charge       = -1
  Multiplicity = 1
  Basis Set: AUG-CC-PVTZ
    Blend: AUG-CC-PVTZ
  Basis Set: (AUG-CC-PVTZ AUX)
    Blend: AUG-CC-PVTZ-JKFIT
  @DF-RHF Final Energy:  -175.53149750527024
    Total Energy =                       -175.5314975052702380
 Dipole X            :        -60.2601957           55.3495472           -4.9106485
 Dipole Y            :         -1.1642724            1.7150058            0.5507334
 Dipole Z            :          0.0000000            0.0000000            0.0000000
 Magnitude           :                                                    4.9414346
  //            Monomer A HF           //
    Molecular point group: c1
  Multiplicity = 1
  Basis Set: AUG-CC-PVTZ
    Blend: AUG-CC-PVTZ
  Basis Set: (AUG-CC-PVTZ AUX)
    Blend: AUG-CC-PVTZ-JKFIT
  @DF-RHF Final Energy:   -76.04858782255232
    Total Energy =                        -76.0485878225523351
  //            Monomer B HF           //
    Molecular point group: c1

    Geometry (in Angstrom), charge = -1, multiplicity = 1:

       Center              X                  Y                   Z               Mass
    ------------   -----------------  -----------------  -----------------  -----------------
      Gh(O)           0.000000000000     0.000000000000     0.000000000000    15.994914619570
      Gh(H)          -0.159063000000     0.944263000000     0.000000000000     1.007825032230
      Gh(H)           1.060028000000    -0.036721000000     0.000000000000     1.007825032230
         F            3.154306000000     0.000000000000     0.000000000000    18.998403162730

  Charge       = -1
  Multiplicity = 1
  Basis Set: AUG-CC-PVTZ
    Blend: AUG-CC-PVTZ
  Basis Set: (AUG-CC-PVTZ AUX)
    Blend: AUG-CC-PVTZ-JKFIT

    Orbital Energies [Eh]
    ---------------------

    Doubly Occupied:

       1A    -25.833737     2A     -1.076018     3A     -0.180998
       4A     -0.180944     5A     -0.180941

  @DF-RHF Final Energy:   -99.45085897969854

   => Energetics <=

    Nuclear Repulsion Energy =              0.0000000000000000
    One-Electron Energy =                -143.9964422375172148
    Two-Electron Energy =                  44.5455832578186772
    Total Energy =                        -99.4508589796985376
 Dipole X            :        -59.6072381           53.6469701           -5.9602680
 Dipole Y            :          0.0002338            0.0000000            0.0002338
 Dipole Z            :         -0.0000000            0.0000000           -0.0000000
 Magnitude           :                                                    5.9602680

    SAPT Results
  --------------------------------------------------------------------------------------------------------
    Electrostatics                -28.69836570 [mEh]     -18.00849636 [kcal/mol]     -75.34754875 [kJ/mol]
      Elst10,r                    -29.13776645 [mEh]     -18.28422449 [kcal/mol]     -76.50119528 [kJ/mol]
      Elst12,r                      0.43940076 [mEh]       0.27572814 [kcal/mol]       1.15364653 [kJ/mol]

    Exchange                        9.14921274 [mEh]       5.74121767 [kcal/mol]      24.02125475 [kJ/mol]
      Exch10                        6.56626746 [mEh]       4.12039504 [kcal/mol]      17.23973284 [kJ/mol]
      Exch10(S^2)                   6.53751520 [mEh]       4.10235272 [kcal/mol]      17.16424379 [kJ/mol]
      Exch11(S^2)                   0.15312512 [mEh]       0.09608746 [kcal/mol]       0.40202994 [kJ/mol]
      Exch12(S^2)                   2.42982016 [mEh]       1.52473517 [kcal/mol]       6.37949196 [kJ/mol]

    Induction                     -10.81117037 [mEh]      -6.78411183 [kcal/mol]     -28.38472390 [kJ/mol]
      Ind20,r                      -9.79297308 [mEh]      -6.14518338 [kcal/mol]     -25.71144727 [kJ/mol]
      Ind22                        -1.67419799 [mEh]      -1.05057510 [kcal/mol]      -4.39560622 [kJ/mol]
      Exch-Ind20,r                  2.00183331 [mEh]       1.25616937 [kcal/mol]       5.25581263 [kJ/mol]
      Exch-Ind22                    0.34223165 [mEh]       0.21475360 [kcal/mol]       0.89852907 [kJ/mol]
      delta HF,r (2)               -1.68806426 [mEh]      -1.05927632 [kcal/mol]      -4.43201211 [kJ/mol]

    Dispersion                     -3.66950244 [mEh]      -2.30264755 [kcal/mol]      -9.63427733 [kJ/mol]
      Disp20                       -3.15764308 [mEh]      -1.98145095 [kcal/mol]      -8.29039076 [kJ/mol]
      Disp21                       -0.06482467 [mEh]      -0.04067809 [kcal/mol]      -0.17019715 [kJ/mol]
      Disp22 (SDQ)                 -0.39338776 [mEh]      -0.24685455 [kcal/mol]      -1.03283942 [kJ/mol]
      Disp22 (T)                   -0.61234255 [mEh]      -0.38425075 [kcal/mol]      -1.60770513 [kJ/mol]
      Est. Disp22 (T)              -0.74098023 [mEh]      -0.46497211 [kcal/mol]      -1.94544331 [kJ/mol]
      Exch-Disp20                   0.68733329 [mEh]       0.43130815 [kcal/mol]       1.80459331 [kJ/mol]

  Total HF                        -32.05070302 [mEh]     -20.11211979 [kcal/mol]     -84.14910918 [kJ/mol]
  Total SAPT0                     -34.52101280 [mEh]     -21.66226258 [kcal/mol]     -90.63490663 [kJ/mol]
  Total SAPT2                     -32.83063311 [mEh]     -20.60153331 [kcal/mol]     -86.19681535 [kJ/mol]
  Total SAPT2+                    -34.02982576 [mEh]     -21.35403806 [kcal/mol]     -89.34529523 [kJ/mol]

  Special recipe for scaled SAPT0 (see Manual):
    Electrostatics sSAPT0         -29.13776645 [mEh]     -18.28422449 [kcal/mol]     -76.50119528 [kJ/mol]
    Exchange sSAPT0                 6.56626746 [mEh]       4.12039504 [kcal/mol]      17.23973284 [kJ/mol]
    Induction sSAPT0               -9.45267526 [mEh]      -5.93164328 [kcal/mol]     -24.81799547 [kJ/mol]
    Dispersion sSAPT0              -2.46120108 [mEh]      -1.54442700 [kcal/mol]      -6.46188255 [kJ/mol]
  Total sSAPT0                    -34.48537533 [mEh]     -21.63989973 [kcal/mol]     -90.54134046 [kJ/mol]
  --------------------------------------------------------------------------------------------------------

*** Psi4 exiting successfully. Buy a developer a beer!
