                               Psi4 1.9 release

  ==> Input File <==

--------------------------------------------------------------------------
MEMORY 60 GB

molecule dimer {
0 1
O      0.000000     0.000000     0.000000
H     -0.159063     0.944263     0.000000
H      1.060028    -0.036721     0.000000
--
-1 1
F      2.183750     0.000000     0.000000

units ang
no_reorient
no_com
symmetry c1
}

set {
basis        aug-cc-pVTZ
scf_type     df
}

energy("sapt2+")
--------------------------------------------------------------------------

  //              Dimer HF             //
    Molecular point group: c1
  Charge       = -1
  Multiplicity = 1
  Basis Set: AUG-CC-PVTZ
    Blend: AUG-CC-PVTZ
  Basis Set: (AUG-CC-PVTZ AUX)
    Blend: AUG-CC-PVTZ-JKFIT
  @DF-RHF Final Energy:  -175.53716162373570
    Total Energy =                       -175.5371616237356989
 Dipole X            :        -41.1884810           38.8427819           -2.3456990
 Dipole Y            :         -1.2334658            1.7150058            0.4815400
 Dipole Z            :          0.0000000            0.0000000            0.0000000
 Magnitude           :                                                    2.3946158
  //            Monomer A HF           //
    Molecular point group: c1
  Multiplicity = 1
  Basis Set: AUG-CC-PVTZ
    Blend: AUG-CC-PVTZ
  Basis Set: (AUG-CC-PVTZ AUX)
    Blend: AUG-CC-PVTZ-JKFIT
  @DF-RHF Final Energy:   -76.04863739085535
    Total Energy =                        -76.0486373908553333
  //            Monomer B HF           //
    Molecular point group: c1

    Geometry (in Angstrom), charge = -1, multiplicity = 1:

       Center              X                  Y                   Z               Mass
    ------------   -----------------  -----------------  -----------------  -----------------
      Gh(O)           0.000000000000     0.000000000000     0.000000000000    15.994914619570
      Gh(H)          -0.159063000000     0.944263000000     0.000000000000     1.007825032230
      Gh(H)           1.060028000000    -0.036721000000     0.000000000000     1.007825032230
         F            2.183750000000     0.000000000000     0.000000000000    18.998403162730

  Charge       = -1
  Multiplicity = 1
  Basis Set: AUG-CC-PVTZ
    Blend: AUG-CC-PVTZ
  Basis Set: (AUG-CC-PVTZ AUX)
    Blend: AUG-CC-PVTZ-JKFIT

    Orbital Energies [Eh]
    ---------------------

    Doubly Occupied:

       1A    -25.833765     2A     -1.075958     3A     -0.181021
       4A     -0.180894     5A     -0.180885

  @DF-RHF Final Energy:   -99.45096557683233

   => Energetics <=

    Nuclear Repulsion Energy =              0.0000000000000000
    One-Electron Energy =                -143.9968852131856920
    Two-Electron Energy =                  44.5459196363533749
    Total Energy =                        -99.4509655768323171
 Dipole X            :        -41.2660084           37.1402048           -4.1258035
 Dipole Y            :          0.0004734            0.0000000            0.0004734
 Dipole Z            :          0.0000000            0.0000000            0.0000000
 Magnitude           :                                                    4.1258036

    SAPT Results
  --------------------------------------------------------------------------------------------------------
    Electrostatics               -112.16011702 [mEh]     -70.38153601 [kcal/mol]    -294.47634667 [kJ/mol]
      Elst10,r                   -113.21387151 [mEh]     -71.04277693 [kcal/mol]    -297.24297869 [kJ/mol]
      Elst12,r                      1.05375449 [mEh]       0.66124092 [kcal/mol]       2.76663202 [kJ/mol]

    Exchange                      184.74944943 [mEh]     115.93202979 [kcal/mol]     485.05961265 [kJ/mol]
      Exch10                      164.47843899 [mEh]     103.21177870 [kcal/mol]     431.83808207 [kJ/mol]
      Exch10(S^2)                 153.34034585 [mEh]      96.22251973 [kcal/mol]     402.59502257 [kJ/mol]
      Exch11(S^2)                   0.68815743 [mEh]       0.43182530 [kcal/mol]       1.80675707 [kJ/mol]
      Exch12(S^2)                  19.58285302 [mEh]      12.28842579 [kcal/mol]      51.41477351 [kJ/mol]

    Induction                     -98.07848813 [mEh]     -61.54518047 [kcal/mol]    -257.50503510 [kJ/mol]
      Ind20,r                    -113.23964719 [mEh]     -71.05895142 [kcal/mol]    -297.31065273 [kJ/mol]
      Ind22                       -19.42484028 [mEh]     -12.18927130 [kcal/mol]     -50.99991112 [kJ/mol]
      Exch-Ind20,r                 59.28487162 [mEh]      37.20181859 [kcal/mol]     155.65240898 [kJ/mol]
      Exch-Ind22                   10.16957568 [mEh]       6.38150508 [kcal/mol]      26.70021727 [kJ/mol]
      delta HF,r (2)              -34.86844796 [mEh]     -21.88028143 [kcal/mol]     -91.54709750 [kJ/mol]

    Dispersion                    -24.59252751 [mEh]     -15.43204400 [kcal/mol]     -64.56767209 [kJ/mol]
      Disp20                      -29.25988226 [mEh]     -18.36085332 [kcal/mol]     -76.82181030 [kJ/mol]
      Disp21                        3.19419804 [mEh]       2.00438953 [kcal/mol]       8.38636580 [kJ/mol]
      Disp22 (SDQ)                 -2.68826257 [mEh]      -1.68691023 [kcal/mol]      -7.05803241 [kJ/mol]
      Disp22 (T)                   -4.72203024 [mEh]      -2.96311871 [kcal/mol]     -12.39768869 [kJ/mol]
      Est. Disp22 (T)              -5.26523963 [mEh]      -3.30398775 [kcal/mol]     -13.82388474 [kJ/mol]
      Exch-Disp20                   9.42665891 [mEh]       5.91531777 [kcal/mol]      24.74968956 [kJ/mol]

  Total HF                        -37.55865605 [mEh]     -23.56841249 [kcal/mol]     -98.61023787 [kJ/mol]
  Total SAPT0                     -57.39187940 [mEh]     -36.01394804 [kcal/mol]    -150.68235860 [kJ/mol]
  Total SAPT2                     -45.32237907 [mEh]     -28.44022224 [kcal/mol]    -118.99388985 [kJ/mol]
  Total SAPT2+                    -50.08168323 [mEh]     -31.42673069 [kcal/mol]    -131.48944120 [kJ/mol]

  Special recipe for scaled SAPT0 (see Manual):
    Electrostatics sSAPT0        -113.21387151 [mEh]     -71.04277693 [kcal/mol]    -297.24297869 [kJ/mol]
    Exchange sSAPT0               164.47843899 [mEh]     103.21177870 [kcal/mol]     431.83808207 [kJ/mol]
    Induction sSAPT0              -74.94341217 [mEh]     -47.02770114 [kcal/mol]    -196.76390155 [kJ/mol]
    Dispersion sSAPT0             -17.62624805 [mEh]     -11.06063764 [kcal/mol]     -46.27770788 [kJ/mol]
  Total sSAPT0                    -41.30509274 [mEh]     -25.91933701 [kcal/mol]    -108.44650605 [kJ/mol]
  --------------------------------------------------------------------------------------------------------

*** Psi4 exiting successfully. Buy a developer a beer!
