                               Psi4 1.9 release

  ==> Input File <==

--------------------------------------------------------------------------
MEMORY 60 GB

molecule dimer {
0 1
O      0.000000     0.000000     0.000000
H     -0.159063     0.944263     0.000000
H      1.060028    -0.036721     0.000000
--
-1 1
F      2.669028     0.000000     0.000000

units ang
no_reorient
no_com
symmetry c1
}

set {
basis        aug-cc-pVTZ
scf_type     df
}

energy("sapt2+")
--------------------------------------------------------------------------

  //              Dimer HF             //
    Molecular point group: c1
  Charge       = -1
  Multiplicity = 1
  Basis Set: AUG-CC-PVTZ
    Blend: AUG-CC-PVTZ
  Basis Set: (AUG-CC-PVTZ AUX)
    Blend: AUG-CC-PVTZ-JKFIT
  @DF-RHF Final Energy:  -175.54462478484163
    Total Energy =                       -175.5446247848416306
 Dipole X            :        -50.8296459           47.0961646           -3.7334814
 Dipole Y            :         -1.1870859            1.7150058            0.5279199
 Dipole Z            :         -0.0000000            0.0000000           -0.0000000
 Magnitude           :                                                    3.7706210
  //            Monomer A HF           //
    Molecular point group: c1
  Multiplicity = 1
  Basis Set: AUG-CC-PVTZ
    Blend: AUG-CC-PVTZ
  Basis Set: (AUG-CC-PVTZ AUX)
    Blend: AUG-CC-PVTZ-JKFIT
  @DF-RHF Final Energy:   -76.04860539543611
    Total Energy =                        -76.0486053954361125
  //            Monomer B HF           //
    Molecular point group: c1

    Geometry (in Angstrom), charge = -1, multiplicity = 1:

       Center              X                  Y                   Z               Mass
    ------------   -----------------  -----------------  -----------------  -----------------
      Gh(O)           0.000000000000     0.000000000000     0.000000000000    15.994914619570
      Gh(H)          -0.159063000000     0.944263000000     0.000000000000     1.007825032230
      Gh(H)           1.060028000000    -0.036721000000     0.000000000000     1.007825032230
         F            2.669028000000     0.000000000000     0.000000000000    18.998403162730

  Charge       = -1
  Multiplicity = 1
  Basis Set: AUG-CC-PVTZ
    Blend: AUG-CC-PVTZ
  Basis Set: (AUG-CC-PVTZ AUX)
    Blend: AUG-CC-PVTZ-JKFIT

    Orbital Energies [Eh]
    ---------------------

    Doubly Occupied:

       1A    -25.833781     2A     -1.076013     3A     -0.181007
       4A     -0.180945     5A     -0.180939

  @DF-RHF Final Energy:   -99.45088658095223

   => Energetics <=

    Nuclear Repulsion Energy =              0.0000000000000000
    One-Electron Energy =                -143.9964028843920119
    Two-Electron Energy =                  44.5455163034397899
    Total Energy =                        -99.4508865809522149
 Dipole X            :        -50.4371341           45.3935875           -5.0435466
 Dipole Y            :          0.0004784            0.0000000            0.0004784
 Dipole Z            :         -0.0000000            0.0000000           -0.0000000
 Magnitude           :                                                    5.0435466

    SAPT Results
  --------------------------------------------------------------------------------------------------------
    Electrostatics                -52.09415870 [mEh]     -32.68957811 [kcal/mol]    -136.77319482 [kJ/mol]
      Elst10,r                    -52.27272043 [mEh]     -32.80162729 [kcal/mol]    -137.24200859 [kJ/mol]
      Elst12,r                      0.17856173 [mEh]       0.11204918 [kcal/mol]       0.46881377 [kJ/mol]

    Exchange                       40.75299026 [mEh]      25.57288747 [kcal/mol]     106.99696118 [kJ/mol]
      Exch10                       32.70904033 [mEh]      20.52523269 [kcal/mol]      85.87757355 [kJ/mol]
      Exch10(S^2)                  32.13475400 [mEh]      20.16486257 [kcal/mol]      84.36978500 [kJ/mol]
      Exch11(S^2)                   0.49883000 [mEh]       0.31302055 [kcal/mol]       1.30967800 [kJ/mol]
      Exch12(S^2)                   7.54511992 [mEh]       4.73463423 [kcal/mol]      19.80970963 [kJ/mol]

    Induction                     -28.67201496 [mEh]     -17.99196102 [kcal/mol]     -75.27836491 [kJ/mol]
      Ind20,r                     -26.59636850 [mEh]     -16.68947320 [kcal/mol]     -69.82875589 [kJ/mol]
      Ind22                        -4.88244439 [mEh]      -3.06378011 [kcal/mol]     -12.81885599 [kJ/mol]
      Exch-Ind20,r                  9.69386864 [mEh]       6.08299441 [kcal/mol]      25.45124861 [kJ/mol]
      Exch-Ind22                    1.77955778 [mEh]       1.11668937 [kcal/mol]       4.67222832 [kJ/mol]
      delta HF,r (2)               -8.66662849 [mEh]      -5.43839148 [kcal/mol]     -22.75422996 [kJ/mol]

    Dispersion                     -9.21378596 [mEh]      -5.78173798 [kcal/mol]     -24.19079171 [kJ/mol]
      Disp20                       -9.27516287 [mEh]      -5.82025257 [kcal/mol]     -24.35193675 [kJ/mol]
      Disp21                        0.25274836 [mEh]       0.15860199 [kcal/mol]       0.66359072 [kJ/mol]
      Disp22 (SDQ)                 -0.91872185 [mEh]      -0.57650666 [kcal/mol]      -2.41210389 [kJ/mol]
      Disp22 (T)                   -1.65005814 [mEh]      -1.03542712 [kcal/mol]      -4.33222706 [kJ/mol]
      Est. Disp22 (T)              -1.94118865 [mEh]      -1.21811427 [kcal/mol]      -5.09659011 [kJ/mol]
      Exch-Disp20                   2.66853905 [mEh]       1.67453354 [kcal/mol]       7.00624831 [kJ/mol]

  Total HF                        -45.13280845 [mEh]     -28.32126488 [kcal/mol]    -118.49617227 [kJ/mol]
  Total SAPT0                     -51.73943227 [mEh]     -32.46698392 [kcal/mol]    -135.84186071 [kJ/mol]
  Total SAPT2                     -46.61980722 [mEh]     -29.25437069 [kcal/mol]    -122.40028698 [kJ/mol]
  Total SAPT2+                    -49.22696936 [mEh]     -30.89038964 [kcal/mol]    -129.24539025 [kJ/mol]

  Special recipe for scaled SAPT0 (see Manual):
    Electrostatics sSAPT0         -52.27272043 [mEh]     -32.80162729 [kcal/mol]    -137.24200859 [kJ/mol]
    Exchange sSAPT0                32.70904033 [mEh]      20.52523269 [kcal/mol]      85.87757355 [kJ/mol]
    Induction sSAPT0              -25.04006202 [mEh]     -15.71287614 [kcal/mol]     -65.74267377 [kJ/mol]
    Dispersion sSAPT0              -6.46098184 [mEh]      -4.05432731 [kcal/mol]     -16.96330549 [kJ/mol]
  Total sSAPT0                    -51.06472396 [mEh]     -32.04359806 [kcal/mol]    -134.07041428 [kJ/mol]
  --------------------------------------------------------------------------------------------------------

*** Psi4 exiting successfully. Buy a developer a beer!
