                               Psi4 1.9 release

  ==> Input File <==

--------------------------------------------------------------------------
MEMORY 60 GB

molecule dimer {
0 1
O      0.000000     0.000000     0.000000
H     -0.159063     0.944263     0.000000
H      1.060028    -0.036721     0.000000
--
-1 1
F      4.852778     0.000000     0.000000

units ang
no_reorient
no_com
symmetry c1
}

set {
basis        aug-cc-pVTZ
scf_type     df
}

energy("sapt2+")
--------------------------------------------------------------------------

  //              Dimer HF             //
    Molecular point group: c1
  Charge       = -1
  Multiplicity = 1
  Basis Set: AUG-CC-PVTZ
    Blend: AUG-CC-PVTZ
  Basis Set: (AUG-CC-PVTZ AUX)
    Blend: AUG-CC-PVTZ-JKFIT
  @DF-RHF Final Energy:  -175.50961512500010
    Total Energy =                       -175.5096151250000958
 Dipole X            :        -92.6801233           84.2363694           -8.4437538
 Dipole Y            :         -1.1361573            1.7150058            0.5788485
 Dipole Z            :          0.0000000            0.0000000            0.0000000
 Magnitude           :                                                    8.4635716
  //            Monomer A HF           //
    Molecular point group: c1
  Multiplicity = 1
  Basis Set: AUG-CC-PVTZ
    Blend: AUG-CC-PVTZ
  Basis Set: (AUG-CC-PVTZ AUX)
    Blend: AUG-CC-PVTZ-JKFIT
  @DF-RHF Final Energy:   -76.04857582350500
    Total Energy =                        -76.0485758235050042
  //            Monomer B HF           //
    Molecular point group: c1

    Geometry (in Angstrom), charge = -1, multiplicity = 1:

       Center              X                  Y                   Z               Mass
    ------------   -----------------  -----------------  -----------------  -----------------
      Gh(O)           0.000000000000     0.000000000000     0.000000000000    15.994914619570
      Gh(H)          -0.159063000000     0.944263000000     0.000000000000     1.007825032230
      Gh(H)           1.060028000000    -0.036721000000     0.000000000000     1.007825032230
         F            4.852778000000     0.000000000000     0.000000000000    18.998403162730

  Charge       = -1
  Multiplicity = 1
  Basis Set: AUG-CC-PVTZ
    Blend: AUG-CC-PVTZ
  Basis Set: (AUG-CC-PVTZ AUX)
    Blend: AUG-CC-PVTZ-JKFIT

    Orbital Energies [Eh]
    ---------------------

    Doubly Occupied:

       1A    -25.833735     2A     -1.076042     3A     -0.180974
       4A     -0.180971     5A     -0.180966

  @DF-RHF Final Energy:   -99.45081351051469

   => Energetics <=

    Nuclear Repulsion Energy =              0.0000000000000000
    One-Electron Energy =                -143.9962503385468722
    Two-Electron Energy =                  44.5454368280321731
    Total Energy =                        -99.4508135105147062
 Dipole X            :        -91.7040111           82.5337923           -9.1702188
 Dipole Y            :          0.0002803            0.0000000            0.0002803
 Dipole Z            :          0.0000000            0.0000000            0.0000000
 Magnitude           :                                                    9.1702188

    SAPT Results
  --------------------------------------------------------------------------------------------------------
    Electrostatics                 -8.80152520 [mEh]      -5.52304045 [kcal/mol]     -23.10840124 [kJ/mol]
      Elst10,r                     -9.19817634 [mEh]      -5.77194280 [kcal/mol]     -24.14980866 [kJ/mol]
      Elst12,r                      0.39665114 [mEh]       0.24890235 [kcal/mol]       1.04140742 [kJ/mol]

    Exchange                        0.07718991 [mEh]       0.04843740 [kcal/mol]       0.20266209 [kJ/mol]
      Exch10                        0.03777161 [mEh]       0.02370204 [kcal/mol]       0.09916936 [kJ/mol]
      Exch10(S^2)                   0.03776984 [mEh]       0.02370093 [kcal/mol]       0.09916469 [kJ/mol]
      Exch11(S^2)                   0.00182949 [mEh]       0.00114803 [kcal/mol]       0.00480334 [kJ/mol]
      Exch12(S^2)                   0.03758880 [mEh]       0.02358733 [kcal/mol]       0.09868939 [kJ/mol]

    Induction                      -1.18103603 [mEh]      -0.74111130 [kcal/mol]      -3.10080968 [kJ/mol]
      Ind20,r                      -1.09426477 [mEh]      -0.68666151 [kcal/mol]      -2.87299175 [kJ/mol]
      Ind22                        -0.11765721 [mEh]      -0.07383102 [kcal/mol]      -0.30890897 [kJ/mol]
      Exch-Ind20,r                  0.01867000 [mEh]       0.01171560 [kcal/mol]       0.04901807 [kJ/mol]
      Exch-Ind22                    0.00200743 [mEh]       0.00125968 [kcal/mol]       0.00527051 [kJ/mol]
      delta HF,r (2)                0.01020852 [mEh]       0.00640594 [kcal/mol]       0.02680247 [kJ/mol]

    Dispersion                     -0.18961084 [mEh]      -0.11898260 [kcal/mol]      -0.49782318 [kJ/mol]
      Disp20                       -0.13291186 [mEh]      -0.08340345 [kcal/mol]      -0.34896004 [kJ/mol]
      Disp21                       -0.00447754 [mEh]      -0.00280970 [kcal/mol]      -0.01175577 [kJ/mol]
      Disp22 (SDQ)                 -0.02392485 [mEh]      -0.01501307 [kcal/mol]      -0.06281468 [kJ/mol]
      Disp22 (T)                   -0.02974356 [mEh]      -0.01866437 [kcal/mol]      -0.07809171 [kJ/mol]
      Est. Disp22 (T)              -0.03448788 [mEh]      -0.02164147 [kcal/mol]      -0.09054793 [kJ/mol]
      Exch-Disp20                   0.00619129 [mEh]       0.00388509 [kcal/mol]       0.01625524 [kJ/mol]

  Total HF                        -10.22579098 [mEh]      -6.41678072 [kcal/mol]     -26.84781052 [kJ/mol]
  Total SAPT0                     -10.35251155 [mEh]      -6.49629907 [kcal/mol]     -27.18051532 [kJ/mol]
  Total SAPT2                     -10.03209189 [mEh]      -6.29523270 [kcal/mol]     -26.33925363 [kJ/mol]
  Total SAPT2+                    -10.09498216 [mEh]      -6.33469694 [kcal/mol]     -26.50437201 [kJ/mol]

  Special recipe for scaled SAPT0 (see Manual):
    Electrostatics sSAPT0          -9.19817634 [mEh]      -5.77194280 [kcal/mol]     -24.14980866 [kJ/mol]
    Exchange sSAPT0                 0.03777161 [mEh]       0.02370204 [kcal/mol]       0.09916936 [kJ/mol]
    Induction sSAPT0               -1.06538362 [mEh]      -0.66853831 [kcal/mol]      -2.79716430 [kJ/mol]
    Dispersion sSAPT0              -0.12671969 [mEh]      -0.07951781 [kcal/mol]      -0.33270251 [kJ/mol]
  Total sSAPT0                    -10.35250804 [mEh]      -6.49629687 [kcal/mol]     -27.18050611 [kJ/mol]
  --------------------------------------------------------------------------------------------------------

*** Psi4 exiting successfully. Buy a developer a beer!
