                               Psi4 1.9 release

  ==> Input File <==

--------------------------------------------------------------------------
MEMORY 60 GB

molecule dimer {
0 1
O      0.000000     0.000000     0.000000
H     -0.159063     0.944263     0.000000
H      1.060028    -0.036721     0.000000
--
-1 1
F      2.911667     0.000000     0.000000

units ang
no_reorient
no_com
symmetry c1
}

set {
basis        aug-cc-pVTZ
scf_type     df
}

energy("sapt2+")
--------------------------------------------------------------------------

  //              Dimer HF             //
    Molecular point group: c1
  Charge       = -1
  Multiplicity = 1
  Basis Set: AUG-CC-PVTZ
    Blend: AUG-CC-PVTZ
  Basis Set: (AUG-CC-PVTZ AUX)
    Blend: AUG-CC-PVTZ-JKFIT
  @DF-RHF Final Energy:  -175.53798478437614
    Total Energy =                       -175.5379847843761354
 Dipole X            :        -55.5646526           51.2228559           -4.3417968
 Dipole Y            :         -1.1737412            1.7150058            0.5412646
 Dipole Z            :          0.0000000            0.0000000            0.0000000
 Magnitude           :                                                    4.3754047
  //            Monomer A HF           //
    Molecular point group: c1
  Multiplicity = 1
  Basis Set: AUG-CC-PVTZ
    Blend: AUG-CC-PVTZ
  Basis Set: (AUG-CC-PVTZ AUX)
    Blend: AUG-CC-PVTZ-JKFIT
  @DF-RHF Final Energy:   -76.04859431454545
    Total Energy =                        -76.0485943145454542
  //            Monomer B HF           //
    Molecular point group: c1

    Geometry (in Angstrom), charge = -1, multiplicity = 1:

       Center              X                  Y                   Z               Mass
    ------------   -----------------  -----------------  -----------------  -----------------
      Gh(O)           0.000000000000     0.000000000000     0.000000000000    15.994914619570
      Gh(H)          -0.159063000000     0.944263000000     0.000000000000     1.007825032230
      Gh(H)           1.060028000000    -0.036721000000     0.000000000000     1.007825032230
         F            2.911667000000     0.000000000000     0.000000000000    18.998403162730

  Charge       = -1
  Multiplicity = 1
  Basis Set: AUG-CC-PVTZ
    Blend: AUG-CC-PVTZ
  Basis Set: (AUG-CC-PVTZ AUX)
    Blend: AUG-CC-PVTZ-JKFIT

    Orbital Energies [Eh]
    ---------------------

    Doubly Occupied:

       1A    -25.833763     2A     -1.076024     3A     -0.181000
       4A     -0.180955     5A     -0.180950

  @DF-RHF Final Energy:   -99.45086304177126

   => Energetics <=

    Nuclear Repulsion Energy =              0.0000000000000000
    One-Electron Energy =                -143.9963400155600652
    Two-Electron Energy =                  44.5454769737888086
    Total Energy =                        -99.4508630417712567
 Dipole X            :        -55.0224630           49.5202788           -5.5021842
 Dipole Y            :          0.0003895            0.0000000            0.0003895
 Dipole Z            :          0.0000000            0.0000000            0.0000000
 Magnitude           :                                                    5.5021842

    SAPT Results
  --------------------------------------------------------------------------------------------------------
    Electrostatics                -37.71552193 [mEh]     -23.66684732 [kcal/mol]     -99.02208918 [kJ/mol]
      Elst10,r                    -38.02911657 [mEh]     -23.86363093 [kcal/mol]     -99.84543179 [kJ/mol]
      Elst12,r                      0.31359464 [mEh]       0.19678361 [kcal/mol]       0.82334261 [kJ/mol]

    Exchange                       19.20006329 [mEh]      12.04822161 [kcal/mol]      50.40975922 [kJ/mol]
      Exch10                       14.58678811 [mEh]       9.15334773 [kcal/mol]      38.29760690 [kJ/mol]
      Exch10(S^2)                  14.45897874 [mEh]       9.07314614 [kcal/mol]      37.96204346 [kJ/mol]
      Exch11(S^2)                   0.28260081 [mEh]       0.17733469 [kcal/mol]       0.74196833 [kJ/mol]
      Exch12(S^2)                   4.33067437 [mEh]       2.71753919 [kcal/mol]      11.37018399 [kJ/mol]

    Induction                     -17.09270354 [mEh]     -10.72583340 [kcal/mol]     -44.87688696 [kJ/mol]
      Ind20,r                     -15.51163999 [mEh]      -9.73370105 [kcal/mol]     -40.72580519 [kJ/mol]
      Ind22                        -2.77542514 [mEh]      -1.74160557 [kcal/mol]      -7.28687769 [kJ/mol]
      Exch-Ind20,r                  4.29129428 [mEh]       2.69282782 [kcal/mol]      11.26679159 [kJ/mol]
      Exch-Ind22                    0.76782120 [mEh]       0.48181508 [kcal/mol]       2.01591428 [kJ/mol]
      delta HF,r (2)               -3.86475389 [mEh]      -2.42516968 [kcal/mol]     -10.14690995 [kJ/mol]

    Dispersion                     -5.78286021 [mEh]      -3.62879957 [kcal/mol]     -15.18289738 [kJ/mol]
      Disp20                       -5.35269893 [mEh]      -3.35886929 [kcal/mol]     -14.05350910 [kJ/mol]
      Disp21                       -0.00212212 [mEh]      -0.00133165 [kcal/mol]      -0.00557163 [kJ/mol]
      Disp22 (SDQ)                 -0.59147608 [mEh]      -0.37115685 [kcal/mol]      -1.55292025 [kJ/mol]
      Disp22 (T)                   -0.99443087 [mEh]      -0.62401479 [kcal/mol]      -2.61087790 [kJ/mol]
      Est. Disp22 (T)              -1.19410308 [mEh]      -0.74931099 [kcal/mol]      -3.13511719 [kJ/mol]
      Exch-Disp20                   1.35754000 [mEh]       0.85186921 [kcal/mol]       3.56422078 [kJ/mol]

  Total HF                        -38.52742806 [mEh]     -24.17632611 [kcal/mol]    -101.15374843 [kJ/mol]
  Total SAPT0                     -42.52258698 [mEh]     -26.68332618 [kcal/mol]    -111.64303675 [kJ/mol]
  Total SAPT2                     -39.60332110 [mEh]     -24.85145918 [kcal/mol]    -103.97850523 [kJ/mol]
  Total SAPT2+                    -41.39102238 [mEh]     -25.97325868 [kcal/mol]    -108.67211430 [kJ/mol]

  Special recipe for scaled SAPT0 (see Manual):
    Electrostatics sSAPT0         -38.02911657 [mEh]     -23.86363093 [kcal/mol]     -99.84543179 [kJ/mol]
    Exchange sSAPT0                14.58678811 [mEh]       9.15334773 [kcal/mol]      38.29760690 [kJ/mol]
    Induction sSAPT0              -14.97029273 [mEh]      -9.39400051 [kcal/mol]     -39.30449815 [kJ/mol]
    Dispersion sSAPT0              -3.95884006 [mEh]      -2.48420965 [kcal/mol]     -10.39393316 [kJ/mol]
  Total sSAPT0                    -42.37146125 [mEh]     -26.58849335 [kcal/mol]    -111.24625619 [kJ/mol]
  --------------------------------------------------------------------------------------------------------

*** Psi4 exiting successfully. Buy a developer a beer!
