                               Psi4 1.9 release

  ==> Input File <==

--------------------------------------------------------------------------
MEMORY 60 GB

molecule dimer {
0 1
O      0.000000     0.000000     0.000000
H     -0.159063     0.944263     0.000000
H      1.060028    -0.036721     0.000000
--
-1 1
F      3.396945     0.000000     0.000000

units ang
no_reorient
no_com
symmetry c1
}

set {
basis        aug-cc-pVTZ
scf_type     df
}

energy("sapt2+")
--------------------------------------------------------------------------

  //              Dimer HF             //
    Molecular point group: c1
  Charge       = -1
  Multiplicity = 1
  Basis Set: AUG-CC-PVTZ
    Blend: AUG-CC-PVTZ
  Basis Set: (AUG-CC-PVTZ AUX)
    Blend: AUG-CC-PVTZ-JKFIT
  @DF-RHF Final Energy:  -175.52597225068902
    Total Energy =                       -175.5259722506890228
 Dipole X            :        -64.9287020           59.4762385           -5.4524635
 Dipole Y            :         -1.1572740            1.7150058            0.5577318
 Dipole Z            :         -0.0000000            0.0000000           -0.0000000
 Magnitude           :                                                    5.4809144
  //            Monomer A HF           //
    Molecular point group: c1
  Multiplicity = 1
  Basis Set: AUG-CC-PVTZ
    Blend: AUG-CC-PVTZ
  Basis Set: (AUG-CC-PVTZ AUX)
    Blend: AUG-CC-PVTZ-JKFIT
  @DF-RHF Final Energy:   -76.04858405717968
    Total Energy =                        -76.0485840571796814
  //            Monomer B HF           //
    Molecular point group: c1

    Geometry (in Angstrom), charge = -1, multiplicity = 1:

       Center              X                  Y                   Z               Mass
    ------------   -----------------  -----------------  -----------------  -----------------
      Gh(O)           0.000000000000     0.000000000000     0.000000000000    15.994914619570
      Gh(H)          -0.159063000000     0.944263000000     0.000000000000     1.007825032230
      Gh(H)           1.060028000000    -0.036721000000     0.000000000000     1.007825032230
         F            3.396945000000     0.000000000000     0.000000000000    18.998403162730

  Charge       = -1
  Multiplicity = 1
  Basis Set: AUG-CC-PVTZ
    Blend: AUG-CC-PVTZ
  Basis Set: (AUG-CC-PVTZ AUX)
    Blend: AUG-CC-PVTZ-JKFIT

    Orbital Energies [Eh]
    ---------------------

    Doubly Occupied:

       1A    -25.833719     2A     -1.076013     3A     -0.180992
       4A     -0.180938     5A     -0.180935

  @DF-RHF Final Energy:   -99.45084813805366

   => Energetics <=

    Nuclear Repulsion Energy =              0.0000000000000000
    One-Electron Energy =                -143.9965033931473215
    Two-Electron Energy =                  44.5456552550936706
    Total Energy =                        -99.4508481380536580
 Dipole X            :        -64.1919661           57.7736614           -6.4183046
 Dipole Y            :          0.0000497            0.0000000            0.0000497
 Dipole Z            :         -0.0000000            0.0000000           -0.0000000
 Magnitude           :                                                    6.4183046

    SAPT Results
  --------------------------------------------------------------------------------------------------------
    Electrostatics                -22.74318949 [mEh]     -14.27156687 [kcal/mol]     -59.71223577 [kJ/mol]
      Elst10,r                    -23.25348851 [mEh]     -14.59178434 [kcal/mol]     -61.05202567 [kJ/mol]
      Elst12,r                      0.51029902 [mEh]       0.32021747 [kcal/mol]       1.33978990 [kJ/mol]

    Exchange                        4.42603263 [mEh]       2.77737741 [kcal/mol]      11.62054706 [kJ/mol]
      Exch10                        2.99761792 [mEh]       1.88103364 [kcal/mol]       7.87024476 [kJ/mol]
      Exch10(S^2)                   2.99100149 [mEh]       1.87688177 [kcal/mol]       7.85287332 [kJ/mol]
      Exch11(S^2)                   0.08166990 [mEh]       0.05124864 [kcal/mol]       0.21442430 [kJ/mol]
      Exch12(S^2)                   1.34674481 [mEh]       0.84509512 [kcal/mol]       3.53587800 [kJ/mol]

    Induction                      -7.18197222 [mEh]      -4.50675561 [kcal/mol]     -18.85626547 [kJ/mol]
      Ind20,r                      -6.53678843 [mEh]      -4.10189667 [kcal/mol]     -17.16233565 [kJ/mol]
      Ind22                        -1.05511702 [mEh]      -0.66209592 [kcal/mol]      -2.77020934 [kJ/mol]
      Exch-Ind20,r                  0.97470772 [mEh]       0.61163833 [kcal/mol]       2.55909476 [kJ/mol]
      Exch-Ind22                    0.15732966 [mEh]       0.09872585 [kcal/mol]       0.41306896 [kJ/mol]
      delta HF,r (2)               -0.72210415 [mEh]      -0.45312720 [kcal/mol]      -1.89588419 [kJ/mol]

    Dispersion                     -2.34868322 [mEh]      -1.47382097 [kcal/mol]      -6.16646694 [kJ/mol]
      Disp20                       -1.90095511 [mEh]      -1.19286734 [kcal/mol]      -4.99095694 [kJ/mol]
      Disp21                       -0.06462562 [mEh]      -0.04055319 [kcal/mol]      -0.16967453 [kJ/mol]
      Disp22 (SDQ)                 -0.26536565 [mEh]      -0.16651946 [kcal/mol]      -0.69671743 [kJ/mol]
      Disp22 (T)                   -0.38930225 [mEh]      -0.24429085 [kcal/mol]      -1.02211293 [kJ/mol]
      Est. Disp22 (T)              -0.46607981 [mEh]      -0.29246950 [kcal/mol]      -1.22369237 [kJ/mol]
      Exch-Disp20                   0.34834297 [mEh]       0.21858851 [kcal/mol]       0.91457434 [kJ/mol]

  Total HF                        -26.54005546 [mEh]     -16.65413623 [kcal/mol]     -69.68090600 [kJ/mol]
  Total SAPT0                     -28.09266759 [mEh]     -17.62841506 [kcal/mol]     -73.75728861 [kJ/mol]
  Total SAPT2                     -27.05174122 [mEh]     -16.97522390 [kcal/mol]     -71.02433679 [kJ/mol]
  Total SAPT2+                    -27.84781230 [mEh]     -17.47476604 [kcal/mol]     -73.11442112 [kJ/mol]

  Special recipe for scaled SAPT0 (see Manual):
    Electrostatics sSAPT0         -23.25348851 [mEh]     -14.59178434 [kcal/mol]     -61.05202567 [kJ/mol]
    Exchange sSAPT0                 2.99761792 [mEh]       1.88103364 [kcal/mol]       7.87024476 [kJ/mol]
    Induction sSAPT0               -6.27770206 [mEh]      -3.93931751 [kcal/mol]     -16.48210447 [kJ/mol]
    Dispersion sSAPT0              -1.55029530 [mEh]      -0.97282499 [kcal/mol]      -4.07029975 [kJ/mol]
  Total sSAPT0                    -28.08386794 [mEh]     -17.62289319 [kcal/mol]     -73.73418513 [kJ/mol]
  --------------------------------------------------------------------------------------------------------

*** Psi4 exiting successfully. Buy a developer a beer!
