                               Psi4 1.9 release

  ==> Input File <==

--------------------------------------------------------------------------
MEMORY 60 GB

molecule dimer {
0 1
O      0.000000     0.000000     0.000000
H     -0.073994     0.955205     0.000000
H      0.981943    -0.112425     0.000000
--
-1 1
Cl     3.223870     0.000000     0.000000

units ang
no_reorient
no_com
symmetry c1
}

set {
basis        aug-cc-pVTZ
scf_type     df
}

energy("sapt2+")
--------------------------------------------------------------------------

  //              Dimer HF             //
    Molecular point group: c1
  Charge       = -1
  Multiplicity = 1
  Basis Set: AUG-CC-PVTZ
    Blend: AUG-CC-PVTZ
  Basis Set: (AUG-CC-PVTZ AUX)
    Blend: AUG-CC-PVTZ-JKFIT
  @DF-RHF Final Energy:  -535.65200433392238
    Total Energy =                       -535.6520043339223776
 Dipole X            :       -110.2854581          105.2837081           -5.0017500
 Dipole Y            :         -1.0883318            1.5926234            0.5042916
 Dipole Z            :         -0.0000000            0.0000000           -0.0000000
 Magnitude           :                                                    5.0271078
  //            Monomer A HF           //
    Molecular point group: c1
  Multiplicity = 1
  Basis Set: AUG-CC-PVTZ
    Blend: AUG-CC-PVTZ
  Basis Set: (AUG-CC-PVTZ AUX)
    Blend: AUG-CC-PVTZ-JKFIT
  @DF-RHF Final Energy:   -76.05822943986279
    Total Energy =                        -76.0582294398627852
  //            Monomer B HF           //
    Molecular point group: c1

    Geometry (in Angstrom), charge = -1, multiplicity = 1:

       Center              X                  Y                   Z               Mass
    ------------   -----------------  -----------------  -----------------  -----------------
      Gh(O)           0.000000000000     0.000000000000     0.000000000000    15.994914619570
      Gh(H)          -0.073994000000     0.955205000000     0.000000000000     1.007825032230
      Gh(H)           0.981943000000    -0.112425000000     0.000000000000     1.007825032230
         CL           3.223870000000     0.000000000000     0.000000000000    34.968852682000

  Charge       = -1
  Multiplicity = 1
  Basis Set: AUG-CC-PVTZ
    Blend: AUG-CC-PVTZ
  Basis Set: (AUG-CC-PVTZ AUX)
    Blend: AUG-CC-PVTZ-JKFIT

    Orbital Energies [Eh]
    ---------------------

    Doubly Occupied:

       1A   -104.506310     2A    -10.229826     3A     -7.695885
       4A     -7.695883     5A     -7.695838     6A     -0.733503
       7A     -0.150335     8A     -0.150330     9A     -0.150330

  @DF-RHF Final Energy:  -459.57350525757386

   => Energetics <=

    Nuclear Repulsion Energy =              0.0000000000000000
    One-Electron Energy =                -641.1305285707883286
    Two-Electron Energy =                 181.5570233132144722
    Total Energy =                       -459.5735052575738564
 Dipole X            :       -109.6608736          103.5679332           -6.0929405
 Dipole Y            :         -0.0001875            0.0000000           -0.0001875
 Dipole Z            :         -0.0000000            0.0000000           -0.0000000
 Magnitude           :                                                    6.0929405

    SAPT Results
  --------------------------------------------------------------------------------------------------------
    Electrostatics                -27.29951134 [mEh]     -17.13070200 [kcal/mol]     -71.67485715 [kJ/mol]
      Elst10,r                    -27.42441789 [mEh]     -17.20908204 [kcal/mol]     -72.00279926 [kJ/mol]
      Elst12,r                      0.12490655 [mEh]       0.07838004 [kcal/mol]       0.32794211 [kJ/mol]

    Exchange                       18.63410263 [mEh]      11.69307594 [kcal/mol]      48.92382972 [kJ/mol]
      Exch10                       16.59543379 [mEh]      10.41379193 [kcal/mol]      43.57130542 [kJ/mol]
      Exch10(S^2)                  16.40505914 [mEh]      10.29433003 [kcal/mol]      43.07147684 [kJ/mol]
      Exch11(S^2)                   0.68728278 [mEh]       0.43127645 [kcal/mol]       1.80446069 [kJ/mol]
      Exch12(S^2)                   1.35138606 [mEh]       0.84800756 [kcal/mol]       3.54806361 [kJ/mol]

    Induction                     -10.15985580 [mEh]      -6.37540577 [kcal/mol]     -26.67469773 [kJ/mol]
      Ind20,r                     -14.21659821 [mEh]      -8.92105006 [kcal/mol]     -37.32567347 [kJ/mol]
      Ind22                        -1.64187172 [mEh]      -1.03029006 [kcal/mol]      -4.31073362 [kJ/mol]
      Exch-Ind20,r                  7.98917750 [mEh]       5.01328457 [kcal/mol]      20.97558263 [kJ/mol]
      Exch-Ind22                    0.92266831 [mEh]       0.57898311 [kcal/mol]       2.42246531 [kJ/mol]
      delta HF,r (2)               -3.21323167 [mEh]      -2.01633331 [kcal/mol]      -8.43633858 [kJ/mol]

    Dispersion                     -6.01817121 [mEh]      -3.77645945 [kcal/mol]     -15.80070634 [kJ/mol]
      Disp20                       -6.78663700 [mEh]      -4.25867902 [kcal/mol]     -17.81831300 [kJ/mol]
      Disp21                        0.36011122 [mEh]       0.22597320 [kcal/mol]       0.94547187 [kJ/mol]
      Disp22 (SDQ)                  0.01981394 [mEh]       0.01243343 [kcal/mol]       0.05202149 [kJ/mol]
      Disp22 (T)                   -1.06128875 [mEh]      -0.66596875 [kcal/mol]      -2.78641324 [kJ/mol]
      Est. Disp22 (T)              -1.22068334 [mEh]      -0.76599036 [kcal/mol]      -3.20490367 [kJ/mol]
      Exch-Disp20                   1.60922397 [mEh]       1.00980329 [kcal/mol]       4.22501696 [kJ/mol]

  Total HF                        -20.26963649 [mEh]     -12.71938892 [kcal/mol]     -53.21792326 [kJ/mol]
  Total SAPT0                     -25.44704951 [mEh]     -15.96826465 [kcal/mol]     -66.81121930 [kJ/mol]
  Total SAPT2                     -24.00267754 [mEh]     -15.06190755 [kcal/mol]     -63.01902120 [kJ/mol]
  Total SAPT2+                    -24.84343572 [mEh]     -15.58949128 [kcal/mol]     -65.22643151 [kJ/mol]

  Special recipe for scaled SAPT0 (see Manual):
    Electrostatics sSAPT0         -27.42441789 [mEh]     -17.20908204 [kcal/mol]     -72.00279926 [kJ/mol]
    Exchange sSAPT0                16.59543379 [mEh]      10.41379193 [kcal/mol]      43.57130542 [kJ/mol]
    Induction sSAPT0               -9.15927789 [mEh]      -5.74753365 [kcal/mol]     -24.04768078 [kJ/mol]
    Dispersion sSAPT0              -5.12073703 [mEh]      -3.21331100 [kcal/mol]     -13.44449323 [kJ/mol]
  Total sSAPT0                    -25.10899902 [mEh]     -15.75613476 [kcal/mol]     -65.92366785 [kJ/mol]
  --------------------------------------------------------------------------------------------------------

*** Psi4 exiting successfully. Buy a developer a beer!
