                               Psi4 1.9 release

  ==> Input File <==

--------------------------------------------------------------------------
MEMORY 60 GB

molecule dimer {
0 1
O      0.000000     0.000000     0.000000
H     -0.073994     0.955205     0.000000
H      0.981943    -0.112425     0.000000
--
-1 1
Cl     3.991458     0.000000     0.000000

units ang
no_reorient
no_com
symmetry c1
}

set {
basis        aug-cc-pVTZ
scf_type     df
}

energy("sapt2+")
--------------------------------------------------------------------------

  //              Dimer HF             //
    Molecular point group: c1
  Charge       = -1
  Multiplicity = 1
  Basis Set: AUG-CC-PVTZ
    Blend: AUG-CC-PVTZ
  Basis Set: (AUG-CC-PVTZ AUX)
    Blend: AUG-CC-PVTZ-JKFIT
  @DF-RHF Final Energy:  -535.64708494699823
    Total Energy =                       -535.6470849469982340
 Dipole X            :       -136.5798054          129.9427368           -6.6370687
 Dipole Y            :         -1.0707501            1.5926234            0.5218733
 Dipole Z            :         -0.0000000            0.0000000           -0.0000000
 Magnitude           :                                                    6.6575545
  //            Monomer A HF           //
    Molecular point group: c1
  Multiplicity = 1
  Basis Set: AUG-CC-PVTZ
    Blend: AUG-CC-PVTZ
  Basis Set: (AUG-CC-PVTZ AUX)
    Blend: AUG-CC-PVTZ-JKFIT
  @DF-RHF Final Energy:   -76.05821511570112
    Total Energy =                        -76.0582151157011168
  //            Monomer B HF           //
    Molecular point group: c1

    Geometry (in Angstrom), charge = -1, multiplicity = 1:

       Center              X                  Y                   Z               Mass
    ------------   -----------------  -----------------  -----------------  -----------------
      Gh(O)           0.000000000000     0.000000000000     0.000000000000    15.994914619570
      Gh(H)          -0.073994000000     0.955205000000     0.000000000000     1.007825032230
      Gh(H)           0.981943000000    -0.112425000000     0.000000000000     1.007825032230
         CL           3.991458000000     0.000000000000     0.000000000000    34.968852682000

  Charge       = -1
  Multiplicity = 1
  Basis Set: AUG-CC-PVTZ
    Blend: AUG-CC-PVTZ
  Basis Set: (AUG-CC-PVTZ AUX)
    Blend: AUG-CC-PVTZ-JKFIT

    Orbital Energies [Eh]
    ---------------------

    Doubly Occupied:

       1A   -104.506099     2A    -10.229773     3A     -7.695813
       4A     -7.695812     5A     -7.695797     6A     -0.733506
       7A     -0.150337     8A     -0.150330     9A     -0.150329

  @DF-RHF Final Energy:  -459.57349256558518

   => Energetics <=

    Nuclear Repulsion Energy =              0.0000000000000000
    One-Electron Energy =                -641.1313926639519423
    Two-Electron Energy =                 181.5579000983667584
    Total Energy =                       -459.5734925655851839
 Dipole X            :       -135.7697572          128.2269618           -7.5427954
 Dipole Y            :         -0.0000321            0.0000000           -0.0000321
 Dipole Z            :         -0.0000000            0.0000000           -0.0000000
 Magnitude           :                                                    7.5427954

    SAPT Results
  --------------------------------------------------------------------------------------------------------
    Electrostatics                -13.97417897 [mEh]      -8.76892969 [kcal/mol]     -36.68920184 [kJ/mol]
      Elst10,r                    -14.47613747 [mEh]      -9.08391340 [kcal/mol]     -38.00709368 [kJ/mol]
      Elst12,r                      0.50195849 [mEh]       0.31498371 [kcal/mol]       1.31789184 [kJ/mol]

    Exchange                        2.20660177 [mEh]       1.38466351 [kcal/mol]       5.79343215 [kJ/mol]
      Exch10                        1.85422048 [mEh]       1.16354092 [kcal/mol]       4.86825521 [kJ/mol]
      Exch10(S^2)                   1.85117961 [mEh]       1.16163274 [kcal/mol]       4.86027140 [kJ/mol]
      Exch11(S^2)                   0.09517834 [mEh]       0.05972531 [kcal/mol]       0.24989069 [kJ/mol]
      Exch12(S^2)                   0.25720295 [mEh]       0.16139729 [kcal/mol]       0.67528625 [kJ/mol]

    Induction                      -3.01951426 [mEh]      -1.89477380 [kcal/mol]      -7.92773360 [kJ/mol]
      Ind20,r                      -3.36458887 [mEh]      -2.11131139 [kcal/mol]      -8.83372686 [kJ/mol]
      Ind22                        -0.37663187 [mEh]      -0.23634006 [kcal/mol]      -0.98884683 [kJ/mol]
      Exch-Ind20,r                  1.00470250 [mEh]       0.63046034 [kcal/mol]       2.63784606 [kJ/mol]
      Exch-Ind22                    0.11246634 [mEh]       0.07057369 [kcal/mol]       0.29528032 [kJ/mol]
      delta HF,r (2)               -0.39546236 [mEh]      -0.24815638 [kcal/mol]      -1.03828629 [kJ/mol]

    Dispersion                     -1.66869107 [mEh]      -1.04711945 [kcal/mol]      -4.38114780 [kJ/mol]
      Disp20                       -1.62472635 [mEh]      -1.01953118 [kcal/mol]      -4.26571845 [kJ/mol]
      Disp21                        0.06062956 [mEh]       0.03804562 [kcal/mol]       0.15918288 [kJ/mol]
      Disp22 (SDQ)                 -0.01787954 [mEh]      -0.01121958 [kcal/mol]      -0.04694272 [kJ/mol]
      Disp22 (T)                   -0.27833313 [mEh]      -0.17465667 [kcal/mol]      -0.73076352 [kJ/mol]
      Est. Disp22 (T)              -0.32797769 [mEh]      -0.20580911 [kcal/mol]      -0.86110532 [kJ/mol]
      Exch-Disp20                   0.24126296 [mEh]       0.15139479 [kcal/mol]       0.63343582 [kJ/mol]

  Total HF                        -15.37726571 [mEh]      -9.64937992 [kcal/mol]     -40.37300556 [kJ/mol]
  Total SAPT0                     -16.76072910 [mEh]     -10.51751630 [kcal/mol]     -44.00528820 [kJ/mol]
  Total SAPT2                     -16.17055485 [mEh]     -10.14717637 [kcal/mol]     -42.45578592 [kJ/mol]
  Total SAPT2+                    -16.45578253 [mEh]     -10.32615944 [kcal/mol]     -43.20465108 [kJ/mol]

  Special recipe for scaled SAPT0 (see Manual):
    Electrostatics sSAPT0         -14.47613747 [mEh]      -9.08391340 [kcal/mol]     -38.00709368 [kJ/mol]
    Exchange sSAPT0                 1.85422048 [mEh]       1.16354092 [kcal/mol]       4.86825521 [kJ/mol]
    Induction sSAPT0               -2.75038942 [mEh]      -1.72589542 [kcal/mol]      -7.22114642 [kJ/mol]
    Dispersion sSAPT0              -1.38227249 [mEh]      -0.86738909 [kcal/mol]      -3.62915593 [kJ/mol]
  Total sSAPT0                    -16.75457889 [mEh]     -10.51365699 [kcal/mol]     -43.98914083 [kJ/mol]
  --------------------------------------------------------------------------------------------------------

*** Psi4 exiting successfully. Buy a developer a beer!
