                               Psi4 1.9 release

  ==> Input File <==

--------------------------------------------------------------------------
MEMORY 60 GB

molecule dimer {
0 1
O      0.000000     0.000000     0.000000
H     -0.073994     0.955205     0.000000
H      0.981943    -0.112425     0.000000
--
-1 1
Cl     6.140704     0.000000     0.000000

units ang
no_reorient
no_com
symmetry c1
}

set {
basis        aug-cc-pVTZ
scf_type     df
}

energy("sapt2+")
--------------------------------------------------------------------------

  //              Dimer HF             //
    Molecular point group: c1
  Charge       = -1
  Multiplicity = 1
  Basis Set: AUG-CC-PVTZ
    Blend: AUG-CC-PVTZ
  Basis Set: (AUG-CC-PVTZ AUX)
    Blend: AUG-CC-PVTZ-JKFIT
  @DF-RHF Final Energy:  -535.63724607113966
    Total Energy =                       -535.6372460711396570
 Dipole X            :       -209.8987326          198.9880042          -10.9107284
 Dipole Y            :         -1.0504858            1.5926234            0.5421376
 Dipole Z            :          0.0000000            0.0000000            0.0000000
 Magnitude           :                                                   10.9241891
  //            Monomer A HF           //
    Molecular point group: c1
  Multiplicity = 1
  Basis Set: AUG-CC-PVTZ
    Blend: AUG-CC-PVTZ
  Basis Set: (AUG-CC-PVTZ AUX)
    Blend: AUG-CC-PVTZ-JKFIT
  @DF-RHF Final Energy:   -76.05820666526814
    Total Energy =                        -76.0582066652681448
  //            Monomer B HF           //
    Molecular point group: c1

    Geometry (in Angstrom), charge = -1, multiplicity = 1:

       Center              X                  Y                   Z               Mass
    ------------   -----------------  -----------------  -----------------  -----------------
      Gh(O)           0.000000000000     0.000000000000     0.000000000000    15.994914619570
      Gh(H)          -0.073994000000     0.955205000000     0.000000000000     1.007825032230
      Gh(H)           0.981943000000    -0.112425000000     0.000000000000     1.007825032230
         CL           6.140704000000     0.000000000000     0.000000000000    34.968852682000

  Charge       = -1
  Multiplicity = 1
  Basis Set: AUG-CC-PVTZ
    Blend: AUG-CC-PVTZ
  Basis Set: (AUG-CC-PVTZ AUX)
    Blend: AUG-CC-PVTZ-JKFIT

    Orbital Energies [Eh]
    ---------------------

    Doubly Occupied:

       1A   -104.505975     2A    -10.229745     3A     -7.695776
       4A     -7.695776     5A     -7.695774     6A     -0.733512
       7A     -0.150337     8A     -0.150337     9A     -0.150336

  @DF-RHF Final Energy:  -459.57348301672022

   => Energetics <=

    Nuclear Repulsion Energy =              0.0000000000000000
    One-Electron Energy =                -641.1318327445300156
    Two-Electron Energy =                 181.5583497278097980
    Total Energy =                       -459.5734830167202176
 Dipole X            :       -208.8765466          197.2722292          -11.6043174
 Dipole Y            :         -0.0000103            0.0000000           -0.0000103
 Dipole Z            :          0.0000000            0.0000000            0.0000000
 Magnitude           :                                                   11.6043174

    SAPT Results
  --------------------------------------------------------------------------------------------------------
    Electrostatics                 -4.94929841 [mEh]      -3.10573164 [kcal/mol]     -12.99438119 [kJ/mol]
      Elst10,r                     -5.23007784 [mEh]      -3.28192339 [kcal/mol]     -13.73156748 [kJ/mol]
      Elst12,r                      0.28077943 [mEh]       0.17619175 [kcal/mol]       0.73718629 [kJ/mol]

    Exchange                        0.00948680 [mEh]       0.00595306 [kcal/mol]       0.02490760 [kJ/mol]
      Exch10                        0.00683185 [mEh]       0.00428705 [kcal/mol]       0.01793701 [kJ/mol]
      Exch10(S^2)                   0.00683178 [mEh]       0.00428701 [kcal/mol]       0.01793685 [kJ/mol]
      Exch11(S^2)                   0.00034873 [mEh]       0.00021883 [kcal/mol]       0.00091558 [kJ/mol]
      Exch12(S^2)                   0.00230623 [mEh]       0.00144718 [kcal/mol]       0.00605501 [kJ/mol]

    Induction                      -0.36480076 [mEh]      -0.22891593 [kcal/mol]      -0.95778426 [kJ/mol]
      Ind20,r                      -0.33708428 [mEh]      -0.21152358 [kcal/mol]      -0.88501466 [kJ/mol]
      Ind22                        -0.03210981 [mEh]      -0.02014921 [kcal/mol]      -0.08430430 [kJ/mol]
      Exch-Ind20,r                  0.00474726 [mEh]       0.00297895 [kcal/mol]       0.01246393 [kJ/mol]
      Exch-Ind22                    0.00045221 [mEh]       0.00028377 [kcal/mol]       0.00118728 [kJ/mol]
      delta HF,r (2)               -0.00080614 [mEh]      -0.00050586 [kcal/mol]      -0.00211652 [kJ/mol]

    Dispersion                     -0.07802411 [mEh]      -0.04896087 [kcal/mol]      -0.20485227 [kJ/mol]
      Disp20                       -0.06975128 [mEh]      -0.04376959 [kcal/mol]      -0.18313196 [kJ/mol]
      Disp21                        0.00625673 [mEh]       0.00392616 [kcal/mol]       0.01642705 [kJ/mol]
      Disp22 (SDQ)                 -0.00091753 [mEh]      -0.00057576 [kcal/mol]      -0.00240897 [kJ/mol]
      Disp22 (T)                   -0.01364495 [mEh]      -0.00856234 [kcal/mol]      -0.03582481 [kJ/mol]
      Est. Disp22 (T)              -0.01476938 [mEh]      -0.00926793 [kcal/mol]      -0.03877701 [kJ/mol]
      Exch-Disp20                   0.00115735 [mEh]       0.00072625 [kcal/mol]       0.00303862 [kJ/mol]

  Total HF                         -5.55638915 [mEh]      -3.48668683 [kcal/mol]     -14.58829771 [kJ/mol]
  Total SAPT0                      -5.62498308 [mEh]      -3.52973018 [kcal/mol]     -14.76839105 [kJ/mol]
  Total SAPT2                      -5.37320630 [mEh]      -3.37173786 [kcal/mol]     -14.10735120 [kJ/mol]
  Total SAPT2+                     -5.38263648 [mEh]      -3.37765538 [kcal/mol]     -14.13211012 [kJ/mol]

  Special recipe for scaled SAPT0 (see Manual):
    Electrostatics sSAPT0          -5.23007784 [mEh]      -3.28192339 [kcal/mol]     -13.73156748 [kJ/mol]
    Exchange sSAPT0                 0.00683185 [mEh]       0.00428705 [kcal/mol]       0.01793701 [kJ/mol]
    Induction sSAPT0               -0.33314316 [mEh]      -0.20905049 [kcal/mol]      -0.87466724 [kJ/mol]
    Dispersion sSAPT0              -0.06859393 [mEh]      -0.04304334 [kcal/mol]      -0.18009335 [kJ/mol]
  Total sSAPT0                     -5.62498308 [mEh]      -3.52973018 [kcal/mol]     -14.76839105 [kJ/mol]
  --------------------------------------------------------------------------------------------------------

*** Psi4 exiting successfully. Buy a developer a beer!
