                               Psi4 1.9 release

  ==> Input File <==

--------------------------------------------------------------------------
MEMORY 60 GB

molecule dimer {
0 1
O      0.000000     0.000000     0.000000
H     -0.073994     0.955205     0.000000
H      0.981943    -0.112425     0.000000
--
-1 1
Cl     2.763317     0.000000     0.000000

units ang
no_reorient
no_com
symmetry c1
}

set {
basis        aug-cc-pVTZ
scf_type     df
}

energy("sapt2+")
--------------------------------------------------------------------------

  //              Dimer HF             //
    Molecular point group: c1
  Charge       = -1
  Multiplicity = 1
  Basis Set: AUG-CC-PVTZ
    Blend: AUG-CC-PVTZ
  Basis Set: (AUG-CC-PVTZ AUX)
    Blend: AUG-CC-PVTZ-JKFIT
  @DF-RHF Final Energy:  -535.64082437105685
    Total Energy =                       -535.6408243710568513
 Dipole X            :        -94.4486645           90.4882845           -3.9603800
 Dipole Y            :         -1.1069816            1.5926234            0.4856418
 Dipole Z            :         -0.0000000            0.0000000           -0.0000000
 Magnitude           :                                                    3.9900448
  //            Monomer A HF           //
    Molecular point group: c1
  Multiplicity = 1
  Basis Set: AUG-CC-PVTZ
    Blend: AUG-CC-PVTZ
  Basis Set: (AUG-CC-PVTZ AUX)
    Blend: AUG-CC-PVTZ-JKFIT
  @DF-RHF Final Energy:   -76.05825412128850
    Total Energy =                        -76.0582541212884991
  //            Monomer B HF           //
    Molecular point group: c1

    Geometry (in Angstrom), charge = -1, multiplicity = 1:

       Center              X                  Y                   Z               Mass
    ------------   -----------------  -----------------  -----------------  -----------------
      Gh(O)           0.000000000000     0.000000000000     0.000000000000    15.994914619570
      Gh(H)          -0.073994000000     0.955205000000     0.000000000000     1.007825032230
      Gh(H)           0.981943000000    -0.112425000000     0.000000000000     1.007825032230
         CL           2.763317000000     0.000000000000     0.000000000000    34.968852682000

  Charge       = -1
  Multiplicity = 1
  Basis Set: AUG-CC-PVTZ
    Blend: AUG-CC-PVTZ
  Basis Set: (AUG-CC-PVTZ AUX)
    Blend: AUG-CC-PVTZ-JKFIT

    Orbital Energies [Eh]
    ---------------------

    Doubly Occupied:

       1A   -104.506650     2A    -10.229923     3A     -7.695999
       4A     -7.695995     5A     -7.695926     6A     -0.733502
       7A     -0.150333     8A     -0.150332     9A     -0.150331

  @DF-RHF Final Energy:  -459.57351814582336

   => Energetics <=

    Nuclear Repulsion Energy =              0.0000000000000000
    One-Electron Energy =                -641.1290540754022231
    Two-Electron Energy =                 181.5555359295788662
    Total Energy =                       -459.5735181458233569
 Dipole X            :        -93.9953414           88.7725096           -5.2228318
 Dipole Y            :         -0.0004658            0.0000000           -0.0004658
 Dipole Z            :         -0.0000000            0.0000000           -0.0000000
 Magnitude           :                                                    5.2228318

    SAPT Results
  --------------------------------------------------------------------------------------------------------
    Electrostatics                -49.59350322 [mEh]     -31.12039311 [kcal/mol]    -130.20772478 [kJ/mol]
      Elst10,r                    -48.44626777 [mEh]     -30.40049199 [kcal/mol]    -127.19565849 [kJ/mol]
      Elst12,r                     -1.14723546 [mEh]      -0.71990112 [kcal/mol]      -3.01206628 [kJ/mol]

    Exchange                       69.42397347 [mEh]      43.56420106 [kcal/mol]     182.27261724 [kJ/mol]
      Exch10                       64.31464426 [mEh]      40.35804857 [kcal/mol]     168.85807523 [kJ/mol]
      Exch10(S^2)                  61.95281495 [mEh]      38.87597831 [kcal/mol]     162.65709324 [kJ/mol]
      Exch11(S^2)                   1.74976080 [mEh]       1.09799148 [kcal/mol]       4.59399635 [kJ/mol]
      Exch12(S^2)                   3.35956841 [mEh]       2.10816101 [kcal/mol]       8.82054565 [kJ/mol]

    Induction                     -26.69381936 [mEh]     -16.75062454 [kcal/mol]     -70.08461307 [kJ/mol]
      Ind20,r                     -47.05646072 [mEh]     -29.52837490 [kcal/mol]    -123.54672059 [kJ/mol]
      Ind22                        -5.52238846 [mEh]      -3.46535108 [kcal/mol]     -14.49902891 [kJ/mol]
      Exch-Ind20,r                 31.94577921 [mEh]      20.04627910 [kcal/mol]      83.87363175 [kJ/mol]
      Exch-Ind22                    3.74904954 [mEh]       2.35256411 [kcal/mol]       9.84312822 [kJ/mol]
      delta HF,r (2)               -9.80979893 [mEh]      -6.15574176 [kcal/mol]     -25.75562354 [kJ/mol]

    Dispersion                    -13.56618798 [mEh]      -8.51291148 [kcal/mol]     -35.61802163 [kJ/mol]
      Disp20                      -16.96982961 [mEh]     -10.64872885 [kcal/mol]     -44.55428151 [kJ/mol]
      Disp21                        1.33302558 [mEh]       0.83648618 [kcal/mol]       3.49985817 [kJ/mol]
      Disp22 (SDQ)                  0.17253656 [mEh]       0.10826833 [kcal/mol]       0.45299468 [kJ/mol]
      Disp22 (T)                   -2.46109746 [mEh]      -1.54436197 [kcal/mol]      -6.46161050 [kJ/mol]
      Est. Disp22 (T)              -2.78092043 [mEh]      -1.74505392 [kcal/mol]      -7.30130559 [kJ/mol]
      Exch-Disp20                   4.67899993 [mEh]       2.93611678 [kcal/mol]      12.28471262 [kJ/mol]

  Total HF                         -9.05210395 [mEh]      -5.68028098 [kcal/mol]     -23.76629563 [kJ/mol]
  Total SAPT0                     -21.34293363 [mEh]     -13.39289305 [kcal/mol]     -56.03586453 [kJ/mol]
  Total SAPT2                     -19.15417879 [mEh]     -12.01942866 [kcal/mol]     -50.28928950 [kJ/mol]
  Total SAPT2+                    -20.42953709 [mEh]     -12.81972807 [kcal/mol]     -53.63774223 [kJ/mol]

  Special recipe for scaled SAPT0 (see Manual):
    Electrostatics sSAPT0         -48.44626777 [mEh]     -30.40049199 [kcal/mol]    -127.19565849 [kJ/mol]
    Exchange sSAPT0                64.31464426 [mEh]      40.35804857 [kcal/mol]     168.85807523 [kJ/mol]
    Induction sSAPT0              -21.12581358 [mEh]     -13.25664816 [kcal/mol]     -55.46581592 [kJ/mol]
    Dispersion sSAPT0             -11.73503651 [mEh]      -7.36384659 [kcal/mol]     -30.81033412 [kJ/mol]
  Total sSAPT0                    -16.99247360 [mEh]     -10.66293817 [kcal/mol]     -44.61373330 [kJ/mol]
  --------------------------------------------------------------------------------------------------------

*** Psi4 exiting successfully. Buy a developer a beer!
