                               Psi4 1.9 release

  ==> Input File <==

--------------------------------------------------------------------------
MEMORY 60 GB

molecule dimer {
0 1
O      0.000000     0.000000     0.000000
H     -0.073994     0.955205     0.000000
H      0.981943    -0.112425     0.000000
--
-1 1
Cl     3.684422     0.000000     0.000000

units ang
no_reorient
no_com
symmetry c1
}

set {
basis        aug-cc-pVTZ
scf_type     df
}

energy("sapt2+")
--------------------------------------------------------------------------

  //              Dimer HF             //
    Molecular point group: c1
  Charge       = -1
  Multiplicity = 1
  Basis Set: AUG-CC-PVTZ
    Blend: AUG-CC-PVTZ
  Basis Set: (AUG-CC-PVTZ AUX)
    Blend: AUG-CC-PVTZ-JKFIT
  @DF-RHF Final Energy:  -535.64965762472286
    Total Energy =                       -535.6496576247227495
 Dipole X            :       -126.0734761          120.0790996           -5.9943765
 Dipole Y            :         -1.0765817            1.5926234            0.5160417
 Dipole Z            :         -0.0000000            0.0000000           -0.0000000
 Magnitude           :                                                    6.0165479
  //            Monomer A HF           //
    Molecular point group: c1
  Multiplicity = 1
  Basis Set: AUG-CC-PVTZ
    Blend: AUG-CC-PVTZ
  Basis Set: (AUG-CC-PVTZ AUX)
    Blend: AUG-CC-PVTZ-JKFIT
  @DF-RHF Final Energy:   -76.05821951538623
    Total Energy =                        -76.0582195153862273
  //            Monomer B HF           //
    Molecular point group: c1

    Geometry (in Angstrom), charge = -1, multiplicity = 1:

       Center              X                  Y                   Z               Mass
    ------------   -----------------  -----------------  -----------------  -----------------
      Gh(O)           0.000000000000     0.000000000000     0.000000000000    15.994914619570
      Gh(H)          -0.073994000000     0.955205000000     0.000000000000     1.007825032230
      Gh(H)           0.981943000000    -0.112425000000     0.000000000000     1.007825032230
         CL           3.684422000000     0.000000000000     0.000000000000    34.968852682000

  Charge       = -1
  Multiplicity = 1
  Basis Set: AUG-CC-PVTZ
    Blend: AUG-CC-PVTZ
  Basis Set: (AUG-CC-PVTZ AUX)
    Blend: AUG-CC-PVTZ-JKFIT

    Orbital Energies [Eh]
    ---------------------

    Doubly Occupied:

       1A   -104.506157     2A    -10.229787     3A     -7.695833
       4A     -7.695831     5A     -7.695808     6A     -0.733504
       7A     -0.150336     8A     -0.150330     9A     -0.150328

  @DF-RHF Final Energy:  -459.57349655063143

   => Energetics <=

    Nuclear Repulsion Energy =              0.0000000000000000
    One-Electron Energy =                -641.1311650389862962
    Two-Electron Energy =                 181.5576684883548353
    Total Energy =                       -459.5734965506314893
 Dipole X            :       -125.3263479          118.3633247           -6.9630233
 Dipole Y            :         -0.0000908            0.0000000           -0.0000908
 Dipole Z            :         -0.0000000            0.0000000           -0.0000000
 Magnitude           :                                                    6.9630233

    SAPT Results
  --------------------------------------------------------------------------------------------------------
    Electrostatics                -17.58874102 [mEh]     -11.03710162 [kcal/mol]     -46.17923318 [kJ/mol]
      Elst10,r                    -18.04792118 [mEh]     -11.32524152 [kcal/mol]     -47.38481053 [kJ/mol]
      Elst12,r                      0.45918016 [mEh]       0.28813990 [kcal/mol]       1.20557735 [kJ/mol]

    Exchange                        5.11789349 [mEh]       3.21152665 [kcal/mol]      13.43702751 [kJ/mol]
      Exch10                        4.39872606 [mEh]       2.76024228 [kcal/mol]      11.54885369 [kJ/mol]
      Exch10(S^2)                   4.38310599 [mEh]       2.75044053 [kcal/mol]      11.50784318 [kJ/mol]
      Exch11(S^2)                   0.21467192 [mEh]       0.13470867 [kcal/mol]       0.56362106 [kJ/mol]
      Exch12(S^2)                   0.50449550 [mEh]       0.31657571 [kcal/mol]       1.32455276 [kJ/mol]

    Induction                      -4.67544629 [mEh]      -2.93388684 [kcal/mol]     -12.27538254 [kJ/mol]
      Ind20,r                      -5.63583719 [mEh]      -3.53654123 [kcal/mol]     -14.79688850 [kJ/mol]
      Ind22                        -0.63913316 [mEh]      -0.40106211 [kcal/mol]      -1.67804387 [kJ/mol]
      Exch-Ind20,r                  2.25783730 [mEh]       1.41681430 [kcal/mol]       5.92795102 [kJ/mol]
      Exch-Ind22                    0.25605046 [mEh]       0.16067409 [kcal/mol]       0.67226038 [kJ/mol]
      delta HF,r (2)               -0.91436370 [mEh]      -0.57377188 [kcal/mol]      -2.40066156 [kJ/mol]

    Dispersion                     -2.76658008 [mEh]      -1.73605521 [kcal/mol]      -7.26365501 [kJ/mol]
      Disp20                       -2.83315231 [mEh]      -1.77782991 [kcal/mol]      -7.43844035 [kJ/mol]
      Disp21                        0.11259182 [mEh]       0.07065243 [kcal/mol]       0.29560979 [kJ/mol]
      Disp22 (SDQ)                 -0.01647080 [mEh]      -0.01033559 [kcal/mol]      -0.04324409 [kJ/mol]
      Disp22 (T)                   -0.46744832 [mEh]      -0.29332825 [kcal/mol]      -1.22728540 [kJ/mol]
      Est. Disp22 (T)              -0.54942005 [mEh]      -0.34476629 [kcal/mol]      -1.44250214 [kJ/mol]
      Exch-Disp20                   0.51987125 [mEh]       0.32622414 [kcal/mol]       1.36492179 [kJ/mol]

  Total HF                        -17.94155871 [mEh]     -11.25849806 [kcal/mol]     -47.10555589 [kJ/mol]
  Total SAPT0                     -20.25483976 [mEh]     -12.71010384 [kcal/mol]     -53.17907446 [kJ/mol]
  Total SAPT2                     -19.45957487 [mEh]     -12.21106758 [kcal/mol]     -51.09110678 [kJ/mol]
  Total SAPT2+                    -19.91287390 [mEh]     -12.49551702 [kcal/mol]     -52.28124322 [kJ/mol]

  Special recipe for scaled SAPT0 (see Manual):
    Electrostatics sSAPT0         -18.04792118 [mEh]     -11.32524152 [kcal/mol]     -47.38481053 [kJ/mol]
    Exchange sSAPT0                 4.39872606 [mEh]       2.76024228 [kcal/mol]      11.54885369 [kJ/mol]
    Induction sSAPT0               -4.26813869 [mEh]      -2.67829747 [kcal/mol]     -11.20599660 [kJ/mol]
    Dispersion sSAPT0              -2.30770323 [mEh]      -1.44810564 [kcal/mol]      -6.05887398 [kJ/mol]
  Total sSAPT0                    -20.22503704 [mEh]     -12.69140235 [kcal/mol]     -53.10082743 [kJ/mol]
  --------------------------------------------------------------------------------------------------------

*** Psi4 exiting successfully. Buy a developer a beer!
