                               Psi4 1.9 release

  ==> Input File <==

--------------------------------------------------------------------------
MEMORY 60 GB

molecule dimer {
0 1
O      0.000000     0.000000     0.000000
H     -0.073994     0.955205     0.000000
H      0.981943    -0.112425     0.000000
--
-1 1
Cl     2.916834     0.000000     0.000000

units ang
no_reorient
no_com
symmetry c1
}

set {
basis        aug-cc-pVTZ
scf_type     df
}

energy("sapt2+")
--------------------------------------------------------------------------

  //              Dimer HF             //
    Molecular point group: c1
  Charge       = -1
  Multiplicity = 1
  Basis Set: AUG-CC-PVTZ
    Blend: AUG-CC-PVTZ
  Basis Set: (AUG-CC-PVTZ AUX)
    Blend: AUG-CC-PVTZ-JKFIT
  @DF-RHF Final Energy:  -535.64787582997701
    Total Energy =                       -535.6478758299770107
 Dipole X            :        -99.7342168           95.4200710           -4.3141458
 Dipole Y            :         -1.0996484            1.5926234            0.4929750
 Dipole Z            :          0.0000000            0.0000000            0.0000000
 Magnitude           :                                                    4.3422205
  //            Monomer A HF           //
    Molecular point group: c1
  Multiplicity = 1
  Basis Set: AUG-CC-PVTZ
    Blend: AUG-CC-PVTZ
  Basis Set: (AUG-CC-PVTZ AUX)
    Blend: AUG-CC-PVTZ-JKFIT
  @DF-RHF Final Energy:   -76.05824322494750
    Total Energy =                        -76.0582432249474891
  //            Monomer B HF           //
    Molecular point group: c1

    Geometry (in Angstrom), charge = -1, multiplicity = 1:

       Center              X                  Y                   Z               Mass
    ------------   -----------------  -----------------  -----------------  -----------------
      Gh(O)           0.000000000000     0.000000000000     0.000000000000    15.994914619570
      Gh(H)          -0.073994000000     0.955205000000     0.000000000000     1.007825032230
      Gh(H)           0.981943000000    -0.112425000000     0.000000000000     1.007825032230
         CL           2.916834000000     0.000000000000     0.000000000000    34.968852682000

  Charge       = -1
  Multiplicity = 1
  Basis Set: AUG-CC-PVTZ
    Blend: AUG-CC-PVTZ
  Basis Set: (AUG-CC-PVTZ AUX)
    Blend: AUG-CC-PVTZ-JKFIT

    Orbital Energies [Eh]
    ---------------------

    Doubly Occupied:

       1A   -104.506487     2A    -10.229875     3A     -7.695944
       4A     -7.695941     5A     -7.695880     6A     -0.733502
       7A     -0.150334     8A     -0.150331     9A     -0.150330

  @DF-RHF Final Energy:  -459.57351219933889

   => Energetics <=

    Nuclear Repulsion Energy =              0.0000000000000000
    One-Electron Energy =                -641.1297765109501370
    Two-Electron Energy =                 181.5562643116112440
    Total Energy =                       -459.5735121993388930
 Dipole X            :        -99.2170817           93.7042960           -5.5127856
 Dipole Y            :         -0.0003340            0.0000000           -0.0003340
 Dipole Z            :          0.0000000            0.0000000            0.0000000
 Magnitude           :                                                    5.5127857

    SAPT Results
  --------------------------------------------------------------------------------------------------------
    Electrostatics                -39.88450641 [mEh]     -25.02790563 [kcal/mol]    -104.71675716 [kJ/mol]
      Elst10,r                    -39.34554479 [mEh]     -24.68970211 [kcal/mol]    -103.30171362 [kJ/mol]
      Elst12,r                     -0.53896162 [mEh]      -0.33820352 [kcal/mol]      -1.41504354 [kJ/mol]

    Exchange                       44.73784566 [mEh]      28.07342199 [kcal/mol]     117.45919761 [kJ/mol]
      Exch10                       40.88013223 [mEh]      25.65267027 [kcal/mol]     107.33077239 [kJ/mol]
      Exch10(S^2)                  39.85744074 [mEh]      25.01092166 [kcal/mol]     104.64569624 [kJ/mol]
      Exch11(S^2)                   1.34633468 [mEh]       0.84483777 [kcal/mol]       3.53480121 [kJ/mol]
      Exch12(S^2)                   2.51137875 [mEh]       1.57591396 [kcal/mol]       6.59362400 [kJ/mol]

    Induction                     -18.90106126 [mEh]     -11.86059500 [kcal/mol]     -49.62472950 [kJ/mol]
      Ind20,r                     -30.39365619 [mEh]     -19.07230720 [kcal/mol]     -79.79853333 [kJ/mol]
      Ind22                        -3.56478342 [mEh]      -2.23693537 [kcal/mol]      -9.35933758 [kJ/mol]
      Exch-Ind20,r                 19.76957001 [mEh]      12.40559247 [kcal/mol]      51.90499891 [kJ/mol]
      Exch-Ind22                    2.31871529 [mEh]       1.45501581 [kcal/mol]       6.08778616 [kJ/mol]
      delta HF,r (2)               -7.03090695 [mEh]      -4.41196072 [kcal/mol]     -18.45964366 [kJ/mol]

    Dispersion                    -10.28387183 [mEh]      -6.45322700 [kcal/mol]     -27.00030177 [kJ/mol]
      Disp20                      -12.44830995 [mEh]      -7.81143243 [kcal/mol]     -32.68303328 [kJ/mol]
      Disp21                        0.85559691 [mEh]       0.53689517 [kcal/mol]       2.24636938 [kJ/mol]
      Disp22 (SDQ)                  0.10141327 [mEh]       0.06363779 [kcal/mol]       0.26626050 [kJ/mol]
      Disp22 (T)                   -1.84105087 [mEh]      -1.15527686 [kcal/mol]      -4.83367839 [kJ/mol]
      Est. Disp22 (T)              -2.10744409 [mEh]      -1.32244113 [kcal/mol]      -5.53309370 [kJ/mol]
      Exch-Disp20                   3.31487204 [mEh]       2.08011361 [kcal/mol]       8.70319533 [kJ/mol]

  Total HF                        -16.12040569 [mEh]     -10.11570729 [kcal/mol]     -42.32411931 [kJ/mol]
  Total SAPT0                     -25.25384361 [mEh]     -15.84702611 [kcal/mol]     -66.30395726 [kJ/mol]
  Total SAPT2                     -23.18115993 [mEh]     -14.54639747 [kcal/mol]     -60.86212700 [kJ/mol]
  Total SAPT2+                    -24.33159384 [mEh]     -15.26830565 [kcal/mol]     -63.88259082 [kJ/mol]

  Special recipe for scaled SAPT0 (see Manual):
    Electrostatics sSAPT0         -39.34554479 [mEh]     -24.68970211 [kcal/mol]    -103.30171362 [kJ/mol]
    Exchange sSAPT0                40.88013223 [mEh]      25.65267027 [kcal/mol]     107.33077239 [kJ/mol]
    Induction sSAPT0              -16.09382560 [mEh]     -10.09902803 [kcal/mol]     -42.25433329 [kJ/mol]
    Dispersion sSAPT0              -8.87166841 [mEh]      -5.56705598 [kcal/mol]     -23.29256220 [kJ/mol]
  Total sSAPT0                    -23.43090657 [mEh]     -14.70311585 [kcal/mol]     -61.51783672 [kJ/mol]
  --------------------------------------------------------------------------------------------------------

*** Psi4 exiting successfully. Buy a developer a beer!
