                               Psi4 1.9 release

  ==> Input File <==

--------------------------------------------------------------------------
MEMORY 60 GB

molecule dimer {
0 1
O      0.000000     0.000000     0.000000
H     -0.073994     0.955205     0.000000
H      0.981943    -0.112425     0.000000
--
-1 1
Cl     4.298493     0.000000     0.000000

units ang
no_reorient
no_com
symmetry c1
}

set {
basis        aug-cc-pVTZ
scf_type     df
}

energy("sapt2+")
--------------------------------------------------------------------------

  //              Dimer HF             //
    Molecular point group: c1
  Charge       = -1
  Multiplicity = 1
  Basis Set: AUG-CC-PVTZ
    Blend: AUG-CC-PVTZ
  Basis Set: (AUG-CC-PVTZ AUX)
    Blend: AUG-CC-PVTZ-JKFIT
  @DF-RHF Final Energy:  -535.64473831556882
    Total Energy =                       -535.6447383155688158
 Dipole X            :       -147.0746225          139.8063418           -7.2682806
 Dipole Y            :         -1.0660280            1.5926234            0.5265954
 Dipole Z            :         -0.0000000            0.0000000           -0.0000000
 Magnitude           :                                                    7.2873319
  //            Monomer A HF           //
    Molecular point group: c1
  Multiplicity = 1
  Basis Set: AUG-CC-PVTZ
    Blend: AUG-CC-PVTZ
  Basis Set: (AUG-CC-PVTZ AUX)
    Blend: AUG-CC-PVTZ-JKFIT
  @DF-RHF Final Energy:   -76.05821284060183
    Total Energy =                        -76.0582128406018398
  //            Monomer B HF           //
    Molecular point group: c1

    Geometry (in Angstrom), charge = -1, multiplicity = 1:

       Center              X                  Y                   Z               Mass
    ------------   -----------------  -----------------  -----------------  -----------------
      Gh(O)           0.000000000000     0.000000000000     0.000000000000    15.994914619570
      Gh(H)          -0.073994000000     0.955205000000     0.000000000000     1.007825032230
      Gh(H)           0.981943000000    -0.112425000000     0.000000000000     1.007825032230
         CL           4.298493000000     0.000000000000     0.000000000000    34.968852682000

  Charge       = -1
  Multiplicity = 1
  Basis Set: AUG-CC-PVTZ
    Blend: AUG-CC-PVTZ
  Basis Set: (AUG-CC-PVTZ AUX)
    Blend: AUG-CC-PVTZ-JKFIT

    Orbital Energies [Eh]
    ---------------------

    Doubly Occupied:

       1A   -104.506052     2A    -10.229761     3A     -7.695798
       4A     -7.695797     5A     -7.695787     6A     -0.733506
       7A     -0.150338     8A     -0.150330     9A     -0.150330

  @DF-RHF Final Energy:  -459.57349014994622

   => Energetics <=

    Nuclear Repulsion Energy =              0.0000000000000000
    One-Electron Energy =                -641.1315779260988847
    Two-Electron Energy =                 181.5580877761526608
    Total Energy =                       -459.5734901499462239
 Dipole X            :       -146.2131832          138.0905669           -8.1226163
 Dipole Y            :         -0.0000208            0.0000000           -0.0000208
 Dipole Z            :         -0.0000000            0.0000000           -0.0000000
 Magnitude           :                                                    8.1226163

    SAPT Results
  --------------------------------------------------------------------------------------------------------
    Electrostatics                -11.48107604 [mEh]      -7.20448399 [kcal/mol]     -30.14356100 [kJ/mol]
      Elst10,r                    -11.97145506 [mEh]      -7.51220147 [kcal/mol]     -31.43105094 [kJ/mol]
      Elst12,r                      0.49037902 [mEh]       0.30771748 [kcal/mol]       1.28748994 [kJ/mol]

    Exchange                        0.96886484 [mEh]       0.60797186 [kcal/mol]       2.54375427 [kJ/mol]
      Exch10                        0.79626973 [mEh]       0.49966680 [kcal/mol]       2.09060590 [kJ/mol]
      Exch10(S^2)                   0.79566055 [mEh]       0.49928453 [kcal/mol]       2.08900648 [kJ/mol]
      Exch11(S^2)                   0.04189038 [mEh]       0.02628661 [kcal/mol]       0.10998317 [kJ/mol]
      Exch12(S^2)                   0.13070472 [mEh]       0.08201845 [kcal/mol]       0.34316521 [kJ/mol]

    Induction                      -2.04522832 [mEh]      -1.28340014 [kcal/mol]      -5.36974620 [kJ/mol]
      Ind20,r                      -2.14015328 [mEh]      -1.34296646 [kcal/mol]      -5.61897167 [kJ/mol]
      Ind22                        -0.23483721 [mEh]      -0.14736257 [kcal/mol]      -0.61656501 [kJ/mol]
      Exch-Ind20,r                  0.45337619 [mEh]       0.28449785 [kcal/mol]       1.19033902 [kJ/mol]
      Exch-Ind22                    0.04974859 [mEh]       0.03121771 [kcal/mol]       0.13061489 [kJ/mol]
      delta HF,r (2)               -0.17336260 [mEh]      -0.10878667 [kcal/mol]      -0.45516344 [kJ/mol]

    Dispersion                     -1.01680304 [mEh]      -0.63805354 [kcal/mol]      -2.66961601 [kJ/mol]
      Disp20                       -0.95410079 [mEh]      -0.59870728 [kcal/mol]      -2.50499127 [kJ/mol]
      Disp21                        0.03745706 [mEh]       0.02350466 [kcal/mol]       0.09834350 [kJ/mol]
      Disp22 (SDQ)                 -0.01440007 [mEh]      -0.00903618 [kcal/mol]      -0.03780738 [kJ/mol]
      Disp22 (T)                   -0.16821907 [mEh]      -0.10555906 [kcal/mol]      -0.44165912 [kJ/mol]
      Est. Disp22 (T)              -0.19726047 [mEh]      -0.12378281 [kcal/mol]      -0.51790729 [kJ/mol]
      Exch-Disp20                   0.11150122 [mEh]       0.06996807 [kcal/mol]       0.29274642 [kJ/mol]

  Total HF                        -13.03532502 [mEh]      -8.17978994 [kcal/mol]     -34.22424113 [kJ/mol]
  Total SAPT0                     -13.87792458 [mEh]      -8.70852915 [kcal/mol]     -36.43648597 [kJ/mol]
  Total SAPT2                     -13.40003909 [mEh]      -8.40865147 [kcal/mol]     -35.18179777 [kJ/mol]
  Total SAPT2+                    -13.57424256 [mEh]      -8.51796581 [kcal/mol]     -35.63916894 [kJ/mol]

  Special recipe for scaled SAPT0 (see Manual):
    Electrostatics sSAPT0         -11.97145506 [mEh]      -7.51220147 [kcal/mol]     -31.43105094 [kJ/mol]
    Exchange sSAPT0                 0.79626973 [mEh]       0.49966680 [kcal/mol]       2.09060590 [kJ/mol]
    Induction sSAPT0               -1.85909753 [mEh]      -1.16660131 [kcal/mol]      -4.88105990 [kJ/mol]
    Dispersion sSAPT0              -0.84234326 [mEh]      -0.52857837 [kcal/mol]      -2.21157192 [kJ/mol]
  Total sSAPT0                    -13.87662612 [mEh]      -8.70771435 [kcal/mol]     -36.43307686 [kJ/mol]
  --------------------------------------------------------------------------------------------------------

*** Psi4 exiting successfully. Buy a developer a beer!
