                               Psi4 1.9 release

  ==> Input File <==

--------------------------------------------------------------------------
MEMORY 60 GB

molecule dimer {
0 1
O      0.000000     0.000000     0.000000
H     -0.073994     0.955205     0.000000
H      0.981943    -0.112425     0.000000
--
-1 1
Cl     2.456282     0.000000     0.000000

units ang
no_reorient
no_com
symmetry c1
}

set {
basis        aug-cc-pVTZ
scf_type     df
}

energy("sapt2+")
--------------------------------------------------------------------------

  //              Dimer HF             //
    Molecular point group: c1
  Charge       = -1
  Multiplicity = 1
  Basis Set: AUG-CC-PVTZ
    Blend: AUG-CC-PVTZ
  Basis Set: (AUG-CC-PVTZ AUX)
    Blend: AUG-CC-PVTZ-JKFIT
  @DF-RHF Final Energy:  -535.60186199140173
    Total Energy =                       -535.6018619914016199
 Dipole X            :        -83.8569798           80.6246795           -3.2323004
 Dipole Y            :         -1.1261114            1.5926234            0.4665120
 Dipole Z            :          0.0000000            0.0000000            0.0000000
 Magnitude           :                                                    3.2657922
  //            Monomer A HF           //
    Molecular point group: c1
  Multiplicity = 1
  Basis Set: AUG-CC-PVTZ
    Blend: AUG-CC-PVTZ
  Basis Set: (AUG-CC-PVTZ AUX)
    Blend: AUG-CC-PVTZ-JKFIT
  @DF-RHF Final Energy:   -76.05828280504956
    Total Energy =                        -76.0582828050495436
  //            Monomer B HF           //
    Molecular point group: c1

    Geometry (in Angstrom), charge = -1, multiplicity = 1:

       Center              X                  Y                   Z               Mass
    ------------   -----------------  -----------------  -----------------  -----------------
      Gh(O)           0.000000000000     0.000000000000     0.000000000000    15.994914619570
      Gh(H)          -0.073994000000     0.955205000000     0.000000000000     1.007825032230
      Gh(H)           0.981943000000    -0.112425000000     0.000000000000     1.007825032230
         CL           2.456282000000     0.000000000000     0.000000000000    34.968852682000

  Charge       = -1
  Multiplicity = 1
  Basis Set: AUG-CC-PVTZ
    Blend: AUG-CC-PVTZ
  Basis Set: (AUG-CC-PVTZ AUX)
    Blend: AUG-CC-PVTZ-JKFIT

    Orbital Energies [Eh]
    ---------------------

    Doubly Occupied:

       1A   -104.507094     2A    -10.230047     3A     -7.696131
       4A     -7.696125     5A     -7.696061     6A     -0.733503
       7A     -0.150335     8A     -0.150334     9A     -0.150333

  @DF-RHF Final Energy:  -459.57353650994082

   => Energetics <=

    Nuclear Repulsion Energy =              0.0000000000000000
    One-Electron Energy =                -641.1271483251614427
    Two-Electron Energy =                 181.5536118152206484
    Total Energy =                       -459.5735365099408227
 Dipole X            :        -83.5518263           78.9089045           -4.6429217
 Dipole Y            :         -0.0007425            0.0000000           -0.0007425
 Dipole Z            :          0.0000000            0.0000000            0.0000000
 Magnitude           :                                                    4.6429218

    SAPT Results
  --------------------------------------------------------------------------------------------------------
    Electrostatics                -79.63767645 [mEh]     -49.97339644 [kcal/mol]    -209.08869071 [kJ/mol]
      Elst10,r                    -76.23002790 [mEh]     -47.83506469 [kcal/mol]    -200.14191068 [kJ/mol]
      Elst12,r                     -3.40764855 [mEh]      -2.13833175 [kcal/mol]      -8.94678003 [kJ/mol]

    Exchange                      166.10961973 [mEh]     104.23536007 [kcal/mol]     436.12074653 [kJ/mol]
      Exch10                      158.57885102 [mEh]      99.50973136 [kcal/mol]     416.34871599 [kJ/mol]
      Exch10(S^2)                 146.35586396 [mEh]      91.83969118 [kcal/mol]     384.25726789 [kJ/mol]
      Exch11(S^2)                   1.86439373 [mEh]       1.16992473 [kcal/mol]       4.89496506 [kJ/mol]
      Exch12(S^2)                   5.66637499 [mEh]       3.55570399 [kcal/mol]      14.87706548 [kJ/mol]

    Induction                     -56.92600970 [mEh]     -35.72161039 [kcal/mol]    -149.45921788 [kJ/mol]
      Ind20,r                    -127.46358879 [mEh]     -79.98460953 [kcal/mol]    -334.65560626 [kJ/mol]
      Ind22                       -14.33456235 [mEh]      -8.99507367 [kcal/mol]     -37.63538826 [kJ/mol]
      Exch-Ind20,r                 87.14251545 [mEh]      54.68275401 [kcal/mol]     228.79264278 [kJ/mol]
      Exch-Ind22                    9.80005218 [mEh]       6.14962558 [kcal/mol]      25.73003344 [kJ/mol]
      delta HF,r (2)              -12.07042619 [mEh]      -7.57430679 [kcal/mol]     -31.69089959 [kJ/mol]

    Dispersion                    -24.13743663 [mEh]     -15.14647016 [kcal/mol]     -63.37283113 [kJ/mol]
      Disp20                      -31.77999942 [mEh]     -19.94225071 [kcal/mol]     -83.43837699 [kJ/mol]
      Disp21                        3.24734399 [mEh]       2.03773912 [kcal/mol]       8.52590048 [kJ/mol]
      Disp22 (SDQ)                  0.39724181 [mEh]       0.24927300 [kcal/mol]       1.04295824 [kJ/mol]
      Disp22 (T)                   -4.41922119 [mEh]      -2.77310316 [kcal/mol]     -11.60266363 [kJ/mol]
      Est. Disp22 (T)              -4.80923987 [mEh]      -3.01784358 [kcal/mol]     -12.62665755 [kJ/mol]
      Exch-Disp20                   8.80721686 [mEh]       5.52661202 [kcal/mol]      23.12334469 [kJ/mol]

  Total HF                         29.95732359 [mEh]      18.79850436 [kcal/mol]      78.65294225 [kJ/mol]
  Total SAPT0                       6.98454103 [mEh]       4.38286567 [kcal/mol]      18.33790995 [kJ/mol]
  Total SAPT2                       6.57315103 [mEh]       4.12471454 [kcal/mol]      17.25780564 [kJ/mol]
  Total SAPT2+                      5.40849696 [mEh]       3.39388308 [kcal/mol]      14.20000680 [kJ/mol]

  Special recipe for scaled SAPT0 (see Manual):
    Electrostatics sSAPT0         -76.23002790 [mEh]     -47.83506469 [kcal/mol]    -200.14191068 [kJ/mol]
    Exchange sSAPT0               158.57885102 [mEh]      99.50973136 [kcal/mol]     416.34871599 [kJ/mol]
    Induction sSAPT0              -28.68406299 [mEh]     -17.99952127 [kcal/mol]     -75.30999700 [kJ/mol]
    Dispersion sSAPT0             -20.57674735 [mEh]     -12.91210390 [kcal/mol]     -54.02424273 [kJ/mol]
  Total sSAPT0                     33.08801278 [mEh]      20.76304149 [kcal/mol]      86.87256558 [kJ/mol]
  --------------------------------------------------------------------------------------------------------

*** Psi4 exiting successfully. Buy a developer a beer!
