                               Psi4 1.9 release

  ==> Input File <==

--------------------------------------------------------------------------
MEMORY 60 GB

molecule dimer {
0 1
O      0.000000     0.000000     0.000000
H     -0.073994     0.955205     0.000000
H      0.981943    -0.112425     0.000000
--
-1 1
Cl     4.605528     0.000000     0.000000

units ang
no_reorient
no_com
symmetry c1
}

set {
basis        aug-cc-pVTZ
scf_type     df
}

energy("sapt2+")
--------------------------------------------------------------------------

  //              Dimer HF             //
    Molecular point group: c1
  Charge       = -1
  Multiplicity = 1
  Basis Set: AUG-CC-PVTZ
    Blend: AUG-CC-PVTZ
  Basis Set: (AUG-CC-PVTZ AUX)
    Blend: AUG-CC-PVTZ-JKFIT
  @DF-RHF Final Energy:  -535.64277602816276
    Total Energy =                       -535.6427760281627570
 Dipole X            :       -157.5603375          149.6699469           -7.8903906
 Dipole Y            :         -1.0621778            1.5926234            0.5304455
 Dipole Z            :         -0.0000000            0.0000000           -0.0000000
 Magnitude           :                                                    7.9082006
  //            Monomer A HF           //
    Molecular point group: c1
  Multiplicity = 1
  Basis Set: AUG-CC-PVTZ
    Blend: AUG-CC-PVTZ
  Basis Set: (AUG-CC-PVTZ AUX)
    Blend: AUG-CC-PVTZ-JKFIT
  @DF-RHF Final Energy:   -76.05821209927252
    Total Energy =                        -76.0582120992725095
  //            Monomer B HF           //
    Molecular point group: c1

    Geometry (in Angstrom), charge = -1, multiplicity = 1:

       Center              X                  Y                   Z               Mass
    ------------   -----------------  -----------------  -----------------  -----------------
      Gh(O)           0.000000000000     0.000000000000     0.000000000000    15.994914619570
      Gh(H)          -0.073994000000     0.955205000000     0.000000000000     1.007825032230
      Gh(H)           0.981943000000    -0.112425000000     0.000000000000     1.007825032230
         CL           4.605528000000     0.000000000000     0.000000000000    34.968852682000

  Charge       = -1
  Multiplicity = 1
  Basis Set: AUG-CC-PVTZ
    Blend: AUG-CC-PVTZ
  Basis Set: (AUG-CC-PVTZ AUX)
    Blend: AUG-CC-PVTZ-JKFIT

    Orbital Energies [Eh]
    ---------------------

    Doubly Occupied:

       1A   -104.506021     2A    -10.229754     3A     -7.695789
       4A     -7.695789     5A     -7.695781     6A     -0.733508
       7A     -0.150337     8A     -0.150332     9A     -0.150332

  @DF-RHF Final Energy:  -459.57348783930973

   => Energetics <=

    Nuclear Repulsion Energy =              0.0000000000000000
    One-Electron Energy =                -641.1316900592473758
    Two-Electron Energy =                 181.5582022199376411
    Total Energy =                       -459.5734878393097347
 Dipole X            :       -156.6569509          147.9541719           -8.7027790
 Dipole Y            :         -0.0000495            0.0000000           -0.0000495
 Dipole Z            :         -0.0000000            0.0000000           -0.0000000
 Magnitude           :                                                    8.7027790

    SAPT Results
  --------------------------------------------------------------------------------------------------------
    Electrostatics                 -9.65921391 [mEh]      -6.06124824 [kcal/mol]     -25.36026262 [kJ/mol]
      Elst10,r                    -10.11648692 [mEh]      -6.34819138 [kcal/mol]     -26.56083275 [kJ/mol]
      Elst12,r                      0.45727301 [mEh]       0.28694315 [kcal/mol]       1.20057013 [kJ/mol]

    Exchange                        0.43295197 [mEh]       0.27168146 [kcal/mol]       1.13671524 [kJ/mol]
      Exch10                        0.34804379 [mEh]       0.21840078 [kcal/mol]       0.91378886 [kJ/mol]
      Exch10(S^2)                   0.34791841 [mEh]       0.21832210 [kcal/mol]       0.91345965 [kJ/mol]
      Exch11(S^2)                   0.01847796 [mEh]       0.01159509 [kcal/mol]       0.04851388 [kJ/mol]
      Exch12(S^2)                   0.06643021 [mEh]       0.04168559 [kcal/mol]       0.17441250 [kJ/mol]

    Induction                      -1.43910493 [mEh]      -0.90305198 [kcal/mol]      -3.77836948 [kJ/mol]
      Ind20,r                      -1.43719584 [mEh]      -0.90185400 [kcal/mol]      -3.77335715 [kJ/mol]
      Ind22                        -0.15355291 [mEh]      -0.09635591 [kcal/mol]      -0.40315311 [kJ/mol]
      Exch-Ind20,r                  0.20679532 [mEh]       0.12976602 [kcal/mol]       0.54294105 [kJ/mol]
      Exch-Ind22                    0.02209443 [mEh]       0.01386446 [kcal/mol]       0.05800892 [kJ/mol]
      delta HF,r (2)               -0.07724594 [mEh]      -0.04847256 [kcal/mol]      -0.20280919 [kJ/mol]

    Dispersion                     -0.62939179 [mEh]      -0.39494931 [kcal/mol]      -1.65246791 [kJ/mol]
      Disp20                       -0.57525552 [mEh]      -0.36097829 [kcal/mol]      -1.51033316 [kJ/mol]
      Disp21                        0.02564944 [mEh]       0.01609527 [kcal/mol]       0.06734259 [kJ/mol]
      Disp22 (SDQ)                 -0.01025505 [mEh]      -0.00643514 [kcal/mol]      -0.02692462 [kJ/mol]
      Disp22 (T)                   -0.10542167 [mEh]      -0.06615310 [kcal/mol]      -0.27678455 [kJ/mol]
      Est. Disp22 (T)              -0.12105460 [mEh]      -0.07596291 [kcal/mol]      -0.31782880 [kJ/mol]
      Exch-Disp20                   0.05152394 [mEh]       0.03233176 [kcal/mol]       0.13527609 [kJ/mol]

  Total HF                        -11.07608958 [mEh]      -6.95035114 [kcal/mol]     -29.08026919 [kJ/mol]
  Total SAPT0                     -11.59982116 [mEh]      -7.27899767 [kcal/mol]     -30.45532626 [kJ/mol]
  Total SAPT2                     -11.18909845 [mEh]      -7.02126528 [kcal/mol]     -29.37697393 [kJ/mol]
  Total SAPT2+                    -11.29475866 [mEh]      -7.08756806 [kcal/mol]     -29.65438477 [kJ/mol]

  Special recipe for scaled SAPT0 (see Manual):
    Electrostatics sSAPT0         -10.11648692 [mEh]      -6.34819138 [kcal/mol]     -26.56083275 [kJ/mol]
    Exchange sSAPT0                 0.34804379 [mEh]       0.21840078 [kcal/mol]       0.91378886 [kJ/mol]
    Induction sSAPT0               -1.30742279 [mEh]      -0.82042019 [kcal/mol]      -3.43263806 [kJ/mol]
    Dispersion sSAPT0              -0.52367585 [mEh]      -0.32861156 [kcal/mol]      -1.37491076 [kJ/mol]
  Total sSAPT0                    -11.59954177 [mEh]      -7.27882235 [kcal/mol]     -30.45459272 [kJ/mol]
  --------------------------------------------------------------------------------------------------------

*** Psi4 exiting successfully. Buy a developer a beer!
