                               Psi4 1.9 release

  ==> Input File <==

--------------------------------------------------------------------------
MEMORY 60 GB

molecule dimer {
0 1
O      0.000000     0.000000     0.000000
H     -0.077717     0.955172     0.000000
H      0.978490    -0.109698     0.000000
--
-1 1
Br     2.569653     0.000000     0.000000

units ang
no_reorient
no_com
symmetry c1
}

set {
basis        aug-cc-pVTZ
scf_type     df
}

energy("sapt2+")
--------------------------------------------------------------------------

  //              Dimer HF             //
    Molecular point group: c1
  Charge       = -1
  Multiplicity = 1
  Basis Set: AUG-CC-PVTZ
    Blend: AUG-CC-PVTZ
  Basis Set: (AUG-CC-PVTZ AUX)
    Blend: AUG-CC-PVTZ-JKFIT
  @DF-RHF Final Energy: -2648.55353615588228
    Total Energy =                      -2648.5535361558822842
 Dipole X            :       -175.2355820          171.6601285           -3.5754534
 Dipole Y            :         -1.1327761            1.5977143            0.4649382
 Dipole Z            :          0.0000000            0.0000000            0.0000000
 Magnitude           :                                                    3.6055561
  //            Monomer A HF           //
    Molecular point group: c1
  Multiplicity = 1
  Basis Set: AUG-CC-PVTZ
    Blend: AUG-CC-PVTZ
  Basis Set: (AUG-CC-PVTZ AUX)
    Blend: AUG-CC-PVTZ-JKFIT
  @DF-RHF Final Energy:   -76.05859731686550
    Total Energy =                        -76.0585973168655016
  //            Monomer B HF           //
    Molecular point group: c1

    Geometry (in Angstrom), charge = -1, multiplicity = 1:

       Center              X                  Y                   Z               Mass
    ------------   -----------------  -----------------  -----------------  -----------------
      Gh(O)           0.000000000000     0.000000000000     0.000000000000    15.994914619570
      Gh(H)          -0.077717000000     0.955172000000     0.000000000000     1.007825032230
      Gh(H)           0.978490000000    -0.109698000000     0.000000000000     1.007825032230
         BR           2.569653000000     0.000000000000     0.000000000000    78.918337600000

  Charge       = -1
  Multiplicity = 1
  Basis Set: AUG-CC-PVTZ
    Blend: AUG-CC-PVTZ
  Basis Set: (AUG-CC-PVTZ AUX)
    Blend: AUG-CC-PVTZ-JKFIT

    Orbital Energies [Eh]
    ---------------------

    Doubly Occupied:

       1A   -489.721443     2A    -64.861201     3A    -58.215716
       4A    -58.215716     5A    -58.215715     6A     -9.533088
       7A     -7.140432     8A     -7.140430     9A     -7.140421
      10A     -2.882131    11A     -2.882130    12A     -2.882117
      13A     -2.882114    14A     -2.882098    15A     -0.686001
      16A     -0.139344    17A     -0.139343    18A     -0.139343

  @DF-RHF Final Energy: -2572.53370231786039

   => Energetics <=

    Nuclear Repulsion Energy =              0.0000000000000000
    One-Electron Energy =               -3593.6698320543432601
    Two-Electron Energy =                1021.1361297364825305
    Total Energy =                      -2572.5337023178608433
 Dipole X            :       -174.8138551          169.9579143           -4.8559408
 Dipole Y            :         -0.0003285            0.0000000           -0.0003285
 Dipole Z            :          0.0000000            0.0000000            0.0000000
 Magnitude           :                                                    4.8559408

    SAPT Results
  --------------------------------------------------------------------------------------------------------
    Electrostatics                -72.98548608 [mEh]     -45.79908396 [kcal/mol]    -191.62336731 [kJ/mol]
      Elst10,r                    -68.91991063 [mEh]     -43.24789685 [kcal/mol]    -180.94920043 [kJ/mol]
      Elst12,r                     -4.06557545 [mEh]      -2.55118711 [kcal/mol]     -10.67416688 [kJ/mol]

    Exchange                      159.94296494 [mEh]     100.36572576 [kcal/mol]     419.93019659 [kJ/mol]
      Exch10                      152.75569959 [mEh]      95.85564867 [kcal/mol]     401.06003402 [kJ/mol]
      Exch10(S^2)                 141.11550761 [mEh]      88.55131792 [kcal/mol]     370.49871419 [kJ/mol]
      Exch11(S^2)                   1.45448036 [mEh]       0.91270020 [kcal/mol]       3.81873766 [kJ/mol]
      Exch12(S^2)                   5.73278499 [mEh]       3.59737689 [kcal/mol]      15.05142492 [kJ/mol]

    Induction                     -50.06493394 [mEh]     -31.41622035 [kcal/mol]    -131.44546595 [kJ/mol]
      Ind20,r                    -153.54422030 [mEh]     -96.35045288 [kcal/mol]    -403.13029485 [kJ/mol]
      Ind22                       -19.59739056 [mEh]     -12.29754824 [kcal/mol]     -51.45294184 [kJ/mol]
      Exch-Ind20,r                114.42735269 [mEh]      71.80424787 [kcal/mol]     300.42897309 [kJ/mol]
      Exch-Ind22                   14.60476674 [mEh]       9.16462949 [kcal/mol]      38.34480980 [kJ/mol]
      delta HF,r (2)               -5.95544251 [mEh]      -3.73709659 [kcal/mol]     -15.63601215 [kJ/mol]

    Dispersion                    -23.72567688 [mEh]     -14.88808702 [kcal/mol]     -62.29175607 [kJ/mol]
      Disp20                      -31.30605300 [mEh]     -19.64484485 [kcal/mol]     -82.19403084 [kJ/mol]
      Disp21                        3.11100925 [mEh]       1.95218777 [kcal/mol]       8.16795365 [kJ/mol]
      Disp22 (SDQ)                  0.33070831 [mEh]       0.20752260 [kcal/mol]       0.86827456 [kJ/mol]
      Disp22 (T)                   -4.28276162 [mEh]      -2.68747349 [kcal/mol]     -11.24438908 [kJ/mol]
      Est. Disp22 (T)              -4.67017959 [mEh]      -2.93058193 [kcal/mol]     -12.26155481 [kJ/mol]
      Exch-Disp20                   8.80883815 [mEh]       5.52762939 [kcal/mol]      23.12760137 [kJ/mol]

  Total HF                         38.76347884 [mEh]      24.32445021 [kcal/mol]     101.77349968 [kJ/mol]
  Total SAPT0                      16.26626399 [mEh]      10.20723476 [kcal/mol]      42.70707022 [kJ/mol]
  Total SAPT2                      14.39533006 [mEh]       9.03320599 [kcal/mol]      37.79493387 [kJ/mol]
  Total SAPT2+                     13.16686804 [mEh]       8.26233443 [kcal/mol]      34.56960726 [kJ/mol]

  Special recipe for scaled SAPT0 (see Manual):
    Electrostatics sSAPT0         -68.91991063 [mEh]     -43.24789685 [kcal/mol]    -180.94920043 [kJ/mol]
    Exchange sSAPT0               152.75569959 [mEh]      95.85564867 [kcal/mol]     401.06003402 [kJ/mol]
    Induction sSAPT0              -14.35606165 [mEh]      -9.00856469 [kcal/mol]     -37.69183467 [kJ/mol]
    Dispersion sSAPT0             -20.13261885 [mEh]     -12.63340906 [kcal/mol]     -52.85818350 [kJ/mol]
  Total sSAPT0                     49.34710846 [mEh]      30.96577806 [kcal/mol]     129.56081541 [kJ/mol]
  --------------------------------------------------------------------------------------------------------

*** Psi4 exiting successfully. Buy a developer a beer!
