                               Psi4 1.9 release

  ==> Input File <==

--------------------------------------------------------------------------
MEMORY 60 GB

molecule dimer {
0 1
O      0.000000     0.000000     0.000000
H     -0.077717     0.955172     0.000000
H      0.978490    -0.109698     0.000000
--
-1 1
Br     3.372669     0.000000     0.000000

units ang
no_reorient
no_com
symmetry c1
}

set {
basis        aug-cc-pVTZ
scf_type     df
}

energy("sapt2+")
--------------------------------------------------------------------------

  //              Dimer HF             //
    Molecular point group: c1
  Charge       = -1
  Multiplicity = 1
  Basis Set: AUG-CC-PVTZ
    Blend: AUG-CC-PVTZ
  Basis Set: (AUG-CC-PVTZ AUX)
    Blend: AUG-CC-PVTZ-JKFIT
  @DF-RHF Final Energy: -2648.60894268184938
    Total Energy =                      -2648.6089426818493848
 Dipole X            :       -230.0781490          224.7719395           -5.3062095
 Dipole Y            :         -1.0958982            1.5977143            0.5018161
 Dipole Z            :         -0.0000000            0.0000000           -0.0000000
 Magnitude           :                                                    5.3298854
  //            Monomer A HF           //
    Molecular point group: c1
  Multiplicity = 1
  Basis Set: AUG-CC-PVTZ
    Blend: AUG-CC-PVTZ
  Basis Set: (AUG-CC-PVTZ AUX)
    Blend: AUG-CC-PVTZ-JKFIT
  @DF-RHF Final Energy:   -76.05854646196569
    Total Energy =                        -76.0585464619656904
  //            Monomer B HF           //
    Molecular point group: c1

    Geometry (in Angstrom), charge = -1, multiplicity = 1:

       Center              X                  Y                   Z               Mass
    ------------   -----------------  -----------------  -----------------  -----------------
      Gh(O)           0.000000000000     0.000000000000     0.000000000000    15.994914619570
      Gh(H)          -0.077717000000     0.955172000000     0.000000000000     1.007825032230
      Gh(H)           0.978490000000    -0.109698000000     0.000000000000     1.007825032230
         BR           3.372669000000     0.000000000000     0.000000000000    78.918337600000

  Charge       = -1
  Multiplicity = 1
  Basis Set: AUG-CC-PVTZ
    Blend: AUG-CC-PVTZ
  Basis Set: (AUG-CC-PVTZ AUX)
    Blend: AUG-CC-PVTZ-JKFIT

    Orbital Energies [Eh]
    ---------------------

    Doubly Occupied:

       1A   -489.720801     2A    -64.860759     3A    -58.215249
       4A    -58.215249     5A    -58.215245     6A     -9.532946
       7A     -7.140298     8A     -7.140297     9A     -7.140275
      10A     -2.881972    11A     -2.881971    12A     -2.881967
      13A     -2.881965    14A     -2.881950    15A     -0.686000
      16A     -0.139341    17A     -0.139341    18A     -0.139337

  @DF-RHF Final Energy: -2572.53368148853542

   => Energetics <=

    Nuclear Repulsion Energy =              0.0000000000000000
    One-Electron Energy =               -3593.6774314371591572
    Two-Electron Energy =                1021.1437499486237357
    Total Energy =                      -2572.5336814885354215
 Dipole X            :       -229.4433174          223.0697253           -6.3735921
 Dipole Y            :         -0.0001596            0.0000000           -0.0001596
 Dipole Z            :         -0.0000000            0.0000000           -0.0000000
 Magnitude           :                                                    6.3735921

    SAPT Results
  --------------------------------------------------------------------------------------------------------
    Electrostatics                -24.33771487 [mEh]     -15.27214665 [kcal/mol]     -63.89866158 [kJ/mol]
      Elst10,r                    -24.40977061 [mEh]     -15.31736231 [kcal/mol]     -64.08784391 [kJ/mol]
      Elst12,r                      0.07205575 [mEh]       0.04521566 [kcal/mol]       0.18918233 [kJ/mol]

    Exchange                       17.69058024 [mEh]      11.10100670 [kcal/mol]      46.44661203 [kJ/mol]
      Exch10                       15.88761323 [mEh]       9.96962782 [kcal/mol]      41.71292279 [kJ/mol]
      Exch10(S^2)                  15.70674386 [mEh]       9.85613057 [kcal/mol]      41.23805032 [kJ/mol]
      Exch11(S^2)                   0.68440634 [mEh]       0.42947146 [kcal/mol]       1.79690861 [kJ/mol]
      Exch12(S^2)                   1.11856067 [mEh]       0.70190742 [kcal/mol]       2.93678063 [kJ/mol]

    Induction                      -8.80094067 [mEh]      -5.52267365 [kcal/mol]     -23.10686654 [kJ/mol]
      Ind20,r                     -14.34884014 [mEh]      -9.00403313 [kcal/mol]     -37.67287460 [kJ/mol]
      Ind22                        -1.66604349 [mEh]      -1.04545807 [kcal/mol]      -4.37419657 [kJ/mol]
      Exch-Ind20,r                  9.10926711 [mEh]       5.71615141 [kcal/mol]      23.91637751 [kJ/mol]
      Exch-Ind22                    1.05767679 [mEh]       0.66370220 [kcal/mol]       2.77693002 [kJ/mol]
      delta HF,r (2)               -2.95300094 [mEh]      -1.85303607 [kcal/mol]      -7.75310290 [kJ/mol]

    Dispersion                     -5.93921842 [mEh]      -3.72691582 [kcal/mol]     -15.59341581 [kJ/mol]
      Disp20                       -6.74393022 [mEh]      -4.23188010 [kcal/mol]     -17.70618635 [kJ/mol]
      Disp21                        0.39242530 [mEh]       0.24625059 [kcal/mol]       1.03031248 [kJ/mol]
      Disp22 (SDQ)                  0.01259299 [mEh]       0.00790222 [kcal/mol]       0.03306289 [kJ/mol]
      Disp22 (T)                   -1.04057291 [mEh]      -0.65296936 [kcal/mol]      -2.73202380 [kJ/mol]
      Est. Disp22 (T)              -1.19535949 [mEh]      -0.75009941 [kcal/mol]      -3.13841592 [kJ/mol]
      Exch-Disp20                   1.59505301 [mEh]       1.00091087 [kcal/mol]       4.18781110 [kJ/mol]

  Total HF                        -16.71473135 [mEh]     -10.48865227 [kcal/mol]     -43.88452111 [kJ/mol]
  Total SAPT0                     -21.86360856 [mEh]     -13.71962150 [kcal/mol]     -57.40289636 [kJ/mol]
  Total SAPT2                     -20.59695250 [mEh]     -12.92478282 [kcal/mol]     -54.07729133 [kJ/mol]
  Total SAPT2+                    -21.38729371 [mEh]     -13.42072942 [kcal/mol]     -56.15233189 [kJ/mol]

  Special recipe for scaled SAPT0 (see Manual):
    Electrostatics sSAPT0         -24.40977061 [mEh]     -15.31736231 [kcal/mol]     -64.08784391 [kJ/mol]
    Exchange sSAPT0                15.88761323 [mEh]       9.96962782 [kcal/mol]      41.71292279 [kJ/mol]
    Induction sSAPT0               -7.87424582 [mEh]      -4.94116385 [kcal/mol]     -20.67382956 [kJ/mol]
    Dispersion sSAPT0              -5.09313724 [mEh]      -3.19599187 [kcal/mol]     -13.37202998 [kJ/mol]
  Total sSAPT0                    -21.48954045 [mEh]     -13.48489022 [kcal/mol]     -56.42078067 [kJ/mol]
  --------------------------------------------------------------------------------------------------------

*** Psi4 exiting successfully. Buy a developer a beer!
