                               Psi4 1.9 release

  ==> Input File <==

--------------------------------------------------------------------------
MEMORY 60 GB

molecule dimer {
0 1
O      0.000000     0.000000     0.000000
H     -0.077717     0.955172     0.000000
H      0.978490    -0.109698     0.000000
--
-1 1
Br     3.533273     0.000000     0.000000

units ang
no_reorient
no_com
symmetry c1
}

set {
basis        aug-cc-pVTZ
scf_type     df
}

energy("sapt2+")
--------------------------------------------------------------------------

  //              Dimer HF             //
    Molecular point group: c1
  Charge       = -1
  Multiplicity = 1
  Basis Set: AUG-CC-PVTZ
    Blend: AUG-CC-PVTZ
  Basis Set: (AUG-CC-PVTZ AUX)
    Blend: AUG-CC-PVTZ-JKFIT
  @DF-RHF Final Energy: -2648.60916509496474
    Total Energy =                      -2648.6091650949642826
 Dipole X            :       -241.0423726          235.3943546           -5.6480179
 Dipole Y            :         -1.0913238            1.5977143            0.5063905
 Dipole Z            :          0.0000000            0.0000000            0.0000000
 Magnitude           :                                                    5.6706735
  //            Monomer A HF           //
    Molecular point group: c1
  Multiplicity = 1
  Basis Set: AUG-CC-PVTZ
    Blend: AUG-CC-PVTZ
  Basis Set: (AUG-CC-PVTZ AUX)
    Blend: AUG-CC-PVTZ-JKFIT
  @DF-RHF Final Energy:   -76.05854280785846
    Total Energy =                        -76.0585428078584584
  //            Monomer B HF           //
    Molecular point group: c1

    Geometry (in Angstrom), charge = -1, multiplicity = 1:

       Center              X                  Y                   Z               Mass
    ------------   -----------------  -----------------  -----------------  -----------------
      Gh(O)           0.000000000000     0.000000000000     0.000000000000    15.994914619570
      Gh(H)          -0.077717000000     0.955172000000     0.000000000000     1.007825032230
      Gh(H)           0.978490000000    -0.109698000000     0.000000000000     1.007825032230
         BR           3.533273000000     0.000000000000     0.000000000000    78.918337600000

  Charge       = -1
  Multiplicity = 1
  Basis Set: AUG-CC-PVTZ
    Blend: AUG-CC-PVTZ
  Basis Set: (AUG-CC-PVTZ AUX)
    Blend: AUG-CC-PVTZ-JKFIT

    Orbital Energies [Eh]
    ---------------------

    Doubly Occupied:

       1A   -489.720713     2A    -64.860699     3A    -58.215184
       4A    -58.215184     5A    -58.215182     6A     -9.532927
       7A     -7.140278     8A     -7.140277     9A     -7.140258
      10A     -2.881950    11A     -2.881950    12A     -2.881946
      13A     -2.881945    14A     -2.881928    15A     -0.685999
      16A     -0.139340    17A     -0.139340    18A     -0.139337

  @DF-RHF Final Energy: -2572.53367957904948

   => Energetics <=

    Nuclear Repulsion Energy =              0.0000000000000000
    One-Electron Energy =               -3593.6784795660023519
    Two-Electron Energy =                1021.1447999869529895
    Total Energy =                      -2572.5336795790494762
 Dipole X            :       -240.3693013          233.6921404           -6.6771609
 Dipole Y            :         -0.0001435            0.0000000           -0.0001435
 Dipole Z            :          0.0000000            0.0000000            0.0000000
 Magnitude           :                                                    6.6771609

    SAPT Results
  --------------------------------------------------------------------------------------------------------
    Electrostatics                -20.69722145 [mEh]     -12.98770254 [kcal/mol]     -54.34054744 [kJ/mol]
      Elst10,r                    -20.94586735 [mEh]     -13.14373020 [kcal/mol]     -54.99336716 [kJ/mol]
      Elst12,r                      0.24864590 [mEh]       0.15602766 [kcal/mol]       0.65281972 [kJ/mol]

    Exchange                       11.43167893 [mEh]       7.17348683 [kcal/mol]      30.01386889 [kJ/mol]
      Exch10                       10.16814955 [mEh]       6.38061018 [kcal/mol]      26.69647298 [kJ/mol]
      Exch10(S^2)                  10.08995608 [mEh]       6.33154303 [kcal/mol]      26.49117604 [kJ/mol]
      Exch11(S^2)                   0.47154899 [mEh]       0.29590146 [kcal/mol]       1.23805170 [kJ/mol]
      Exch12(S^2)                   0.79198038 [mEh]       0.49697519 [kcal/mol]       2.07934421 [kJ/mol]

    Induction                      -6.63716896 [mEh]      -4.16488640 [kcal/mol]     -17.42588470 [kJ/mol]
      Ind20,r                     -10.02852862 [mEh]      -6.29299672 [kcal/mol]     -26.32989826 [kJ/mol]
      Ind22                        -1.12768302 [mEh]      -0.70763178 [kcal/mol]      -2.96073137 [kJ/mol]
      Exch-Ind20,r                  5.82942523 [mEh]       3.65801956 [kcal/mol]      15.30515383 [kJ/mol]
      Exch-Ind22                    0.65550432 [mEh]       0.41133517 [kcal/mol]       1.72102637 [kJ/mol]
      delta HF,r (2)               -1.96588687 [mEh]      -1.23361263 [kcal/mol]      -5.16143526 [kJ/mol]

    Dispersion                     -4.56288004 [mEh]      -2.86325045 [kcal/mol]     -11.97983990 [kJ/mol]
      Disp20                       -5.01527326 [mEh]      -3.14713149 [kcal/mol]     -13.16759814 [kJ/mol]
      Disp21                        0.26925495 [mEh]       0.16896003 [kcal/mol]       0.70692877 [kJ/mol]
      Disp22 (SDQ)                 -0.00351019 [mEh]      -0.00220268 [kcal/mol]      -0.00921599 [kJ/mol]
      Disp22 (T)                   -0.79163599 [mEh]      -0.49675908 [kcal/mol]      -2.07844000 [kJ/mol]
      Est. Disp22 (T)              -0.91201413 [mEh]      -0.57229751 [kcal/mol]      -2.39449276 [kJ/mol]
      Exch-Disp20                   1.09866259 [mEh]       0.68942118 [kcal/mol]       2.88453824 [kJ/mol]

  Total HF                        -16.94270806 [mEh]     -10.63170982 [kcal/mol]     -44.48307387 [kJ/mol]
  Total SAPT0                     -20.85931873 [mEh]     -13.08942012 [kcal/mol]     -54.76613378 [kJ/mol]
  Total SAPT2                     -19.81932216 [mEh]     -12.43681242 [kcal/mol]     -52.03562316 [kJ/mol]
  Total SAPT2+                    -20.46559153 [mEh]     -12.84235257 [kcal/mol]     -53.73240315 [kJ/mol]

  Special recipe for scaled SAPT0 (see Manual):
    Electrostatics sSAPT0         -20.94586735 [mEh]     -13.14373020 [kcal/mol]     -54.99336716 [kJ/mol]
    Exchange sSAPT0                10.16814955 [mEh]       6.38061018 [kcal/mol]      26.69647298 [kJ/mol]
    Induction sSAPT0               -6.02840950 [mEh]      -3.78288408 [kcal/mol]     -15.82758697 [kJ/mol]
    Dispersion sSAPT0              -3.89086951 [mEh]      -2.44155748 [kcal/mol]     -10.21547650 [kJ/mol]
  Total sSAPT0                    -20.69699682 [mEh]     -12.98756158 [kcal/mol]     -54.33995765 [kJ/mol]
  --------------------------------------------------------------------------------------------------------

*** Psi4 exiting successfully. Buy a developer a beer!
