                               Psi4 1.9 release

  ==> Input File <==

--------------------------------------------------------------------------
MEMORY 60 GB

molecule dimer {
0 1
O      0.000000     0.000000     0.000000
H     -0.077717     0.955172     0.000000
H      0.978490    -0.109698     0.000000
--
-1 1
Br     4.496892     0.000000     0.000000

units ang
no_reorient
no_com
symmetry c1
}

set {
basis        aug-cc-pVTZ
scf_type     df
}

energy("sapt2+")
--------------------------------------------------------------------------

  //              Dimer HF             //
    Molecular point group: c1
  Charge       = -1
  Multiplicity = 1
  Basis Set: AUG-CC-PVTZ
    Blend: AUG-CC-PVTZ
  Basis Set: (AUG-CC-PVTZ AUX)
    Blend: AUG-CC-PVTZ-JKFIT
  @DF-RHF Final Energy: -2648.60373264201689
    Total Energy =                      -2648.6037326420168938
 Dipole X            :       -306.7753215          299.1285146           -7.6468069
 Dipole Y            :         -1.0721911            1.5977143            0.5255232
 Dipole Z            :          0.0000000            0.0000000            0.0000000
 Magnitude           :                                                    7.6648438
  //            Monomer A HF           //
    Molecular point group: c1
  Multiplicity = 1
  Basis Set: AUG-CC-PVTZ
    Blend: AUG-CC-PVTZ
  Basis Set: (AUG-CC-PVTZ AUX)
    Blend: AUG-CC-PVTZ-JKFIT
  @DF-RHF Final Energy:   -76.05853104735206
    Total Energy =                        -76.0585310473520622
  //            Monomer B HF           //
    Molecular point group: c1

    Geometry (in Angstrom), charge = -1, multiplicity = 1:

       Center              X                  Y                   Z               Mass
    ------------   -----------------  -----------------  -----------------  -----------------
      Gh(O)           0.000000000000     0.000000000000     0.000000000000    15.994914619570
      Gh(H)          -0.077717000000     0.955172000000     0.000000000000     1.007825032230
      Gh(H)           0.978490000000    -0.109698000000     0.000000000000     1.007825032230
         BR           4.496892000000     0.000000000000     0.000000000000    78.918337600000

  Charge       = -1
  Multiplicity = 1
  Basis Set: AUG-CC-PVTZ
    Blend: AUG-CC-PVTZ
  Basis Set: (AUG-CC-PVTZ AUX)
    Blend: AUG-CC-PVTZ-JKFIT

    Orbital Energies [Eh]
    ---------------------

    Doubly Occupied:

       1A   -489.720425     2A    -64.860495     3A    -58.214966
       4A    -58.214966     5A    -58.214966     6A     -9.532864
       7A     -7.140206     8A     -7.140206     9A     -7.140202
      10A     -2.881875    11A     -2.881874    12A     -2.881873
      13A     -2.881873    14A     -2.881868    15A     -0.685999
      16A     -0.139339    17A     -0.139336    18A     -0.139335

  @DF-RHF Final Energy: -2572.53367079542659

   => Energetics <=

    Nuclear Repulsion Energy =              0.0000000000000000
    One-Electron Energy =               -3593.6820010798583098
    Two-Electron Energy =                1021.1483302844321770
    Total Energy =                      -2572.5336707954261328
 Dipole X            :       -305.9241418          297.4263004           -8.4978415
 Dipole Y            :         -0.0000367            0.0000000           -0.0000367
 Dipole Z            :          0.0000000            0.0000000            0.0000000
 Magnitude           :                                                    8.4978415

    SAPT Results
  --------------------------------------------------------------------------------------------------------
    Electrostatics                -10.27310082 [mEh]      -6.44646809 [kcal/mol]     -26.97202248 [kJ/mol]
      Elst10,r                    -10.72216039 [mEh]      -6.72825722 [kcal/mol]     -28.15102823 [kJ/mol]
      Elst12,r                      0.44905957 [mEh]       0.28178914 [kcal/mol]       1.17900574 [kJ/mol]

    Exchange                        0.90559358 [mEh]       0.56826855 [kcal/mol]       2.37763562 [kJ/mol]
      Exch10                        0.76609769 [mEh]       0.48073356 [kcal/mol]       2.01138921 [kJ/mol]
      Exch10(S^2)                   0.76552275 [mEh]       0.48037278 [kcal/mol]       2.00987970 [kJ/mol]
      Exch11(S^2)                   0.04109187 [mEh]       0.02578554 [kcal/mol]       0.10788668 [kJ/mol]
      Exch12(S^2)                   0.09840402 [mEh]       0.06174946 [kcal/mol]       0.25835972 [kJ/mol]

    Induction                      -1.71874100 [mEh]      -1.07852626 [kcal/mol]      -4.51255388 [kJ/mol]
      Ind20,r                      -1.90303987 [mEh]      -1.19417555 [kcal/mol]      -4.99643050 [kJ/mol]
      Ind22                        -0.19382416 [mEh]      -0.12162650 [kcal/mol]      -0.50888526 [kJ/mol]
      Exch-Ind20,r                  0.48914887 [mEh]       0.30694555 [kcal/mol]       1.28426019 [kJ/mol]
      Exch-Ind22                    0.04981970 [mEh]       0.03126233 [kcal/mol]       0.13080159 [kJ/mol]
      delta HF,r (2)               -0.16084554 [mEh]      -0.10093210 [kcal/mol]      -0.42229990 [kJ/mol]

    Dispersion                     -0.98830554 [mEh]      -0.62017109 [kcal/mol]      -2.59479583 [kJ/mol]
      Disp20                       -0.94313055 [mEh]      -0.59182335 [kcal/mol]      -2.47618891 [kJ/mol]
      Disp21                        0.04904970 [mEh]       0.03077915 [kcal/mol]       0.12877998 [kJ/mol]
      Disp22 (SDQ)                 -0.01237959 [mEh]      -0.00776831 [kcal/mol]      -0.03250260 [kJ/mol]
      Disp22 (T)                   -0.16248486 [mEh]      -0.10196079 [kcal/mol]      -0.42660394 [kJ/mol]
      Est. Disp22 (T)              -0.19125706 [mEh]      -0.12001562 [kcal/mol]      -0.50214535 [kJ/mol]
      Exch-Disp20                   0.10941196 [mEh]       0.06865704 [kcal/mol]       0.28726106 [kJ/mol]

  Total HF                        -11.53079924 [mEh]      -7.23568576 [kcal/mol]     -30.27410923 [kJ/mol]
  Total SAPT0                     -12.36451783 [mEh]      -7.75885208 [kcal/mol]     -32.46303708 [kJ/mol]
  Total SAPT2                     -11.91996683 [mEh]      -7.47989211 [kcal/mol]     -31.29586860 [kJ/mol]
  Total SAPT2+                    -12.07455378 [mEh]      -7.57689689 [kcal/mol]     -31.70173657 [kJ/mol]

  Special recipe for scaled SAPT0 (see Manual):
    Electrostatics sSAPT0         -10.72216039 [mEh]      -6.72825722 [kcal/mol]     -28.15102823 [kJ/mol]
    Exchange sSAPT0                 0.76609769 [mEh]       0.48073356 [kcal/mol]       2.01138921 [kJ/mol]
    Induction sSAPT0               -1.57363359 [mEh]      -0.98746999 [kcal/mol]      -4.13157442 [kJ/mol]
    Dispersion sSAPT0              -0.83347188 [mEh]      -0.52301150 [kcal/mol]      -2.18828013 [kJ/mol]
  Total sSAPT0                    -12.36316817 [mEh]      -7.75800515 [kcal/mol]     -32.45949356 [kJ/mol]
  --------------------------------------------------------------------------------------------------------

*** Psi4 exiting successfully. Buy a developer a beer!
