                               Psi4 1.9 release

  ==> Input File <==

--------------------------------------------------------------------------
MEMORY 60 GB

molecule dimer {
0 1
O      0.000000     0.000000     0.000000
H     -0.077717     0.955172     0.000000
H      0.978490    -0.109698     0.000000
--
-1 1
Br     4.818099     0.000000     0.000000

units ang
no_reorient
no_com
symmetry c1
}

set {
basis        aug-cc-pVTZ
scf_type     df
}

energy("sapt2+")
--------------------------------------------------------------------------

  //              Dimer HF             //
    Molecular point group: c1
  Charge       = -1
  Multiplicity = 1
  Basis Set: AUG-CC-PVTZ
    Blend: AUG-CC-PVTZ
  Basis Set: (AUG-CC-PVTZ AUX)
    Blend: AUG-CC-PVTZ-JKFIT
  @DF-RHF Final Energy: -2648.60203548233676
    Total Energy =                      -2648.6020354823363050
 Dipole X            :       -328.6685964          320.3732787           -8.2953177
 Dipole Y            :         -1.0679107            1.5977143            0.5298036
 Dipole Z            :          0.0000000            0.0000000            0.0000000
 Magnitude           :                                                    8.3122191
  //            Monomer A HF           //
    Molecular point group: c1
  Multiplicity = 1
  Basis Set: AUG-CC-PVTZ
    Blend: AUG-CC-PVTZ
  Basis Set: (AUG-CC-PVTZ AUX)
    Blend: AUG-CC-PVTZ-JKFIT
  @DF-RHF Final Energy:   -76.05853036647255
    Total Energy =                        -76.0585303664725529
  //            Monomer B HF           //
    Molecular point group: c1

    Geometry (in Angstrom), charge = -1, multiplicity = 1:

       Center              X                  Y                   Z               Mass
    ------------   -----------------  -----------------  -----------------  -----------------
      Gh(O)           0.000000000000     0.000000000000     0.000000000000    15.994914619570
      Gh(H)          -0.077717000000     0.955172000000     0.000000000000     1.007825032230
      Gh(H)           0.978490000000    -0.109698000000     0.000000000000     1.007825032230
         BR           4.818099000000     0.000000000000     0.000000000000    78.918337600000

  Charge       = -1
  Multiplicity = 1
  Basis Set: AUG-CC-PVTZ
    Blend: AUG-CC-PVTZ
  Basis Set: (AUG-CC-PVTZ AUX)
    Blend: AUG-CC-PVTZ-JKFIT

    Orbital Energies [Eh]
    ---------------------

    Doubly Occupied:

       1A   -489.720395     2A    -64.860475     3A    -58.214944
       4A    -58.214944     5A    -58.214944     6A     -9.532859
       7A     -7.140200     8A     -7.140200     9A     -7.140197
      10A     -2.881868    11A     -2.881867    12A     -2.881866
      13A     -2.881866    14A     -2.881861    15A     -0.685999
      16A     -0.139338    17A     -0.139336    18A     -0.139336

  @DF-RHF Final Energy: -2572.53366997977810

   => Energetics <=

    Nuclear Repulsion Energy =              0.0000000000000000
    One-Electron Energy =               -3593.6823450306605991
    Two-Electron Energy =                1021.1486750508827299
    Total Energy =                      -2572.5336699797780966
 Dipole X            :       -327.7757846          318.6710644           -9.1047201
 Dipole Y            :         -0.0000361            0.0000000           -0.0000361
 Dipole Z            :          0.0000000            0.0000000            0.0000000
 Magnitude           :                                                    9.1047201

    SAPT Results
  --------------------------------------------------------------------------------------------------------
    Electrostatics                 -8.65826109 [mEh]      -5.43314086 [kcal/mol]     -22.73226135 [kJ/mol]
      Elst10,r                     -9.07571317 [mEh]      -5.69509600 [kcal/mol]     -23.82828165 [kJ/mol]
      Elst12,r                      0.41745209 [mEh]       0.26195514 [kcal/mol]       1.09602030 [kJ/mol]

    Exchange                        0.40229054 [mEh]       0.25244112 [kcal/mol]       1.05621367 [kJ/mol]
      Exch10                        0.33502003 [mEh]       0.21022824 [kcal/mol]       0.87959497 [kJ/mol]
      Exch10(S^2)                   0.33490248 [mEh]       0.21015448 [kcal/mol]       0.87928635 [kJ/mol]
      Exch11(S^2)                   0.01791144 [mEh]       0.01123960 [kcal/mol]       0.04702648 [kJ/mol]
      Exch12(S^2)                   0.04935907 [mEh]       0.03097328 [kcal/mol]       0.12959221 [kJ/mol]

    Induction                      -1.19710837 [mEh]      -0.75119684 [kcal/mol]      -3.14300759 [kJ/mol]
      Ind20,r                      -1.25079023 [mEh]      -0.78488272 [kcal/mol]      -3.28394929 [kJ/mol]
      Ind22                        -0.12474665 [mEh]      -0.07827970 [kcal/mol]      -0.32752228 [kJ/mol]
      Exch-Ind20,r                  0.22140057 [mEh]       0.13893096 [kcal/mol]       0.58128713 [kJ/mol]
      Exch-Ind22                    0.02208122 [mEh]       0.01385618 [kcal/mol]       0.05797425 [kJ/mol]
      delta HF,r (2)               -0.06505329 [mEh]      -0.04082156 [kcal/mol]      -0.17079740 [kJ/mol]

    Dispersion                     -0.61016644 [mEh]      -0.38288522 [kcal/mol]      -1.60199176 [kJ/mol]
      Disp20                       -0.56802370 [mEh]      -0.35644025 [kcal/mol]      -1.49134601 [kJ/mol]
      Disp21                        0.03339701 [mEh]       0.02095694 [kcal/mol]       0.08768385 [kJ/mol]
      Disp22 (SDQ)                 -0.00871286 [mEh]      -0.00546741 [kcal/mol]      -0.02287562 [kJ/mol]
      Disp22 (T)                   -0.10082601 [mEh]      -0.06326927 [kcal/mol]      -0.26471864 [kJ/mol]
      Est. Disp22 (T)              -0.11716921 [mEh]      -0.07352479 [kcal/mol]      -0.30762773 [kJ/mol]
      Exch-Disp20                   0.05034232 [mEh]       0.03159028 [kcal/mol]       0.13217375 [kJ/mol]

  Total HF                         -9.83513609 [mEh]      -6.17164107 [kcal/mol]     -25.82214624 [kJ/mol]
  Total SAPT0                     -10.35281746 [mEh]      -6.49649104 [kcal/mol]     -27.18131850 [kJ/mol]
  Total SAPT2                      -9.97076029 [mEh]      -6.25674654 [kcal/mol]     -26.17822753 [kJ/mol]
  Total SAPT2+                    -10.06324535 [mEh]      -6.31478179 [kcal/mol]     -26.42104703 [kJ/mol]

  Special recipe for scaled SAPT0 (see Manual):
    Electrostatics sSAPT0          -9.07571317 [mEh]      -5.69509600 [kcal/mol]     -23.82828165 [kJ/mol]
    Exchange sSAPT0                 0.33502003 [mEh]       0.21022824 [kcal/mol]       0.87959497 [kJ/mol]
    Induction sSAPT0               -1.09420974 [mEh]      -0.68662698 [kcal/mol]      -2.87284727 [kJ/mol]
    Dispersion sSAPT0              -0.51762835 [mEh]      -0.32481669 [kcal/mol]      -1.35903304 [kJ/mol]
  Total sSAPT0                    -10.35253122 [mEh]      -6.49631142 [kcal/mol]     -27.18056699 [kJ/mol]
  --------------------------------------------------------------------------------------------------------

*** Psi4 exiting successfully. Buy a developer a beer!
