                               Psi4 1.9 release

  ==> Input File <==

--------------------------------------------------------------------------
MEMORY 60 GB

molecule dimer {
0 1
O      0.000000     0.000000     0.000000
H     -0.077717     0.955172     0.000000
H      0.978490    -0.109698     0.000000
--
-1 1
Br     3.854479     0.000000     0.000000

units ang
no_reorient
no_com
symmetry c1
}

set {
basis        aug-cc-pVTZ
scf_type     df
}

energy("sapt2+")
--------------------------------------------------------------------------

  //              Dimer HF             //
    Molecular point group: c1
  Charge       = -1
  Multiplicity = 1
  Basis Set: AUG-CC-PVTZ
    Blend: AUG-CC-PVTZ
  Basis Set: (AUG-CC-PVTZ AUX)
    Blend: AUG-CC-PVTZ-JKFIT
  @DF-RHF Final Energy: -2648.60779757598721
    Total Energy =                      -2648.6077975759872061
 Dipole X            :       -262.9630874          256.6390526           -6.3240348
 Dipole Y            :         -1.0836562            1.5977143            0.5140581
 Dipole Z            :         -0.0000000            0.0000000           -0.0000000
 Magnitude           :                                                    6.3448934
  //            Monomer A HF           //
    Molecular point group: c1
  Multiplicity = 1
  Basis Set: AUG-CC-PVTZ
    Blend: AUG-CC-PVTZ
  Basis Set: (AUG-CC-PVTZ AUX)
    Blend: AUG-CC-PVTZ-JKFIT
  @DF-RHF Final Energy:   -76.05853670505938
    Total Energy =                        -76.0585367050593959
  //            Monomer B HF           //
    Molecular point group: c1

    Geometry (in Angstrom), charge = -1, multiplicity = 1:

       Center              X                  Y                   Z               Mass
    ------------   -----------------  -----------------  -----------------  -----------------
      Gh(O)           0.000000000000     0.000000000000     0.000000000000    15.994914619570
      Gh(H)          -0.077717000000     0.955172000000     0.000000000000     1.007825032230
      Gh(H)           0.978490000000    -0.109698000000     0.000000000000     1.007825032230
         BR           3.854479000000     0.000000000000     0.000000000000    78.918337600000

  Charge       = -1
  Multiplicity = 1
  Basis Set: AUG-CC-PVTZ
    Blend: AUG-CC-PVTZ
  Basis Set: (AUG-CC-PVTZ AUX)
    Blend: AUG-CC-PVTZ-JKFIT

    Orbital Energies [Eh]
    ---------------------

    Doubly Occupied:

       1A   -489.720563     2A    -64.860594     3A    -58.215072
       4A    -58.215072     5A    -58.215070     6A     -9.532894
       7A     -7.140241     8A     -7.140241     9A     -7.140229
      10A     -2.881910    11A     -2.881910    12A     -2.881909
      13A     -2.881909    14A     -2.881894    15A     -0.685998
      16A     -0.139337    17A     -0.139337    18A     -0.139337

  @DF-RHF Final Energy: -2572.53367590095513

   => Energetics <=

    Nuclear Repulsion Energy =              0.0000000000000000
    One-Electron Energy =               -3593.6803099310991456
    Two-Electron Energy =                1021.1466340301437867
    Total Energy =                      -2572.5336759009551315
 Dipole X            :       -262.2210494          254.9368383           -7.2842111
 Dipole Y            :         -0.0001252            0.0000000           -0.0001252
 Dipole Z            :          0.0000000            0.0000000            0.0000000
 Magnitude           :                                                    7.2842111

    SAPT Results
  --------------------------------------------------------------------------------------------------------
    Electrostatics                -15.69506540 [mEh]      -9.84880223 [kcal/mol]     -41.20738854 [kJ/mol]
      Elst10,r                    -16.11260783 [mEh]     -10.11081406 [kcal/mol]     -42.30364604 [kJ/mol]
      Elst12,r                      0.41754243 [mEh]       0.26201183 [kcal/mol]       1.09625750 [kJ/mol]

    Exchange                        4.82730423 [mEh]       3.02917913 [kcal/mol]      12.67408550 [kJ/mol]
      Exch10                        4.21757382 [mEh]       2.64656753 [kcal/mol]      11.07323853 [kJ/mol]
      Exch10(S^2)                   4.20274844 [mEh]       2.63726446 [kcal/mol]      11.03431451 [kJ/mol]
      Exch11(S^2)                   0.21411087 [mEh]       0.13435660 [kcal/mol]       0.56214800 [kJ/mol]
      Exch12(S^2)                   0.39561954 [mEh]       0.24825501 [kcal/mol]       1.03869896 [kJ/mol]

    Induction                      -3.99428274 [mEh]      -2.50645026 [kcal/mol]     -10.48698788 [kJ/mol]
      Ind20,r                      -5.31698817 [mEh]      -3.33646045 [kcal/mol]     -13.95975052 [kJ/mol]
      Ind22                        -0.57079025 [mEh]      -0.35817629 [kcal/mol]      -1.49860958 [kJ/mol]
      Exch-Ind20,r                  2.48195685 [mEh]       1.55745143 [kcal/mol]       6.51637680 [kJ/mol]
      Exch-Ind22                    0.26644347 [mEh]       0.16719580 [kcal/mol]       0.69954722 [kJ/mol]
      delta HF,r (2)               -0.85490463 [mEh]      -0.53646075 [kcal/mol]      -2.24455180 [kJ/mol]

    Dispersion                     -2.71374004 [mEh]      -1.70289759 [kcal/mol]      -7.12492351 [kJ/mol]
      Disp20                       -2.81205797 [mEh]      -1.76459301 [kcal/mol]      -7.38305717 [kJ/mol]
      Disp21                        0.13650244 [mEh]       0.08565657 [kcal/mol]       0.35838710 [kJ/mol]
      Disp22 (SDQ)                 -0.01587525 [mEh]      -0.00996187 [kcal/mol]      -0.04168048 [kJ/mol]
      Disp22 (T)                   -0.45856875 [mEh]      -0.28775624 [kcal/mol]      -1.20397209 [kJ/mol]
      Est. Disp22 (T)              -0.53619634 [mEh]      -0.33646828 [kcal/mol]      -1.40778330 [kJ/mol]
      Exch-Disp20                   0.51388708 [mEh]       0.32246901 [kcal/mol]       1.34921034 [kJ/mol]

  Total HF                        -15.58496997 [mEh]      -9.77971631 [kcal/mol]     -40.91833303 [kJ/mol]
  Total SAPT0                     -17.88314086 [mEh]     -11.22184031 [kcal/mol]     -46.95217986 [kJ/mol]
  Total SAPT2                     -17.16021480 [mEh]     -10.76819736 [kcal/mol]     -45.05413775 [kJ/mol]
  Total SAPT2+                    -17.57578396 [mEh]     -11.02897094 [kcal/mol]     -46.14521443 [kJ/mol]

  Special recipe for scaled SAPT0 (see Manual):
    Electrostatics sSAPT0         -16.11260783 [mEh]     -10.11081406 [kcal/mol]     -42.30364604 [kJ/mol]
    Exchange sSAPT0                 4.21757382 [mEh]       2.64656753 [kcal/mol]      11.07323853 [kJ/mol]
    Induction sSAPT0               -3.66357756 [mEh]      -2.29892963 [kcal/mol]      -9.61872157 [kJ/mol]
    Dispersion sSAPT0              -2.29271340 [mEh]      -1.43869938 [kcal/mol]      -6.01951821 [kJ/mol]
  Total sSAPT0                    -17.85132498 [mEh]     -11.20187555 [kcal/mol]     -46.86864729 [kJ/mol]
  --------------------------------------------------------------------------------------------------------

*** Psi4 exiting successfully. Buy a developer a beer!
