                               Psi4 1.9 release

  ==> Input File <==

--------------------------------------------------------------------------
MEMORY 60 GB

molecule dimer {
0 1
O      0.000000     0.000000     0.000000
H     -0.077717     0.955172     0.000000
H      0.978490    -0.109698     0.000000
--
-1 1
Br     3.051463     0.000000     0.000000

units ang
no_reorient
no_com
symmetry c1
}

set {
basis        aug-cc-pVTZ
scf_type     df
}

energy("sapt2+")
--------------------------------------------------------------------------

  //              Dimer HF             //
    Molecular point group: c1
  Charge       = -1
  Multiplicity = 1
  Basis Set: AUG-CC-PVTZ
    Blend: AUG-CC-PVTZ
  Basis Set: (AUG-CC-PVTZ AUX)
    Blend: AUG-CC-PVTZ-JKFIT
  @DF-RHF Final Energy: -2648.60345705556938
    Total Energy =                      -2648.6034570555693790
 Dipole X            :       -208.1428200          203.5272416           -4.6155784
 Dipole Y            :         -1.1072775            1.5977143            0.4904368
 Dipole Z            :          0.0000000            0.0000000            0.0000000
 Magnitude           :                                                    4.6415614
  //            Monomer A HF           //
    Molecular point group: c1
  Multiplicity = 1
  Basis Set: AUG-CC-PVTZ
    Blend: AUG-CC-PVTZ
  Basis Set: (AUG-CC-PVTZ AUX)
    Blend: AUG-CC-PVTZ-JKFIT
  @DF-RHF Final Energy:   -76.05855763773421
    Total Energy =                        -76.0585576377342107
  //            Monomer B HF           //
    Molecular point group: c1

    Geometry (in Angstrom), charge = -1, multiplicity = 1:

       Center              X                  Y                   Z               Mass
    ------------   -----------------  -----------------  -----------------  -----------------
      Gh(O)           0.000000000000     0.000000000000     0.000000000000    15.994914619570
      Gh(H)          -0.077717000000     0.955172000000     0.000000000000     1.007825032230
      Gh(H)           0.978490000000    -0.109698000000     0.000000000000     1.007825032230
         BR           3.051463000000     0.000000000000     0.000000000000    78.918337600000

  Charge       = -1
  Multiplicity = 1
  Basis Set: AUG-CC-PVTZ
    Blend: AUG-CC-PVTZ
  Basis Set: (AUG-CC-PVTZ AUX)
    Blend: AUG-CC-PVTZ-JKFIT

    Orbital Energies [Eh]
    ---------------------

    Doubly Occupied:

       1A   -489.720996     2A    -64.860891     3A    -58.215390
       4A    -58.215389     5A    -58.215386     6A     -9.532987
       7A     -7.140341     8A     -7.140340     9A     -7.140316
      10A     -2.882020    11A     -2.882019    12A     -2.882011
      13A     -2.882009    14A     -2.882000    15A     -0.686000
      16A     -0.139343    17A     -0.139342    18A     -0.139339

  @DF-RHF Final Energy: -2572.53368668476332

   => Energetics <=

    Nuclear Repulsion Energy =              0.0000000000000000
    One-Electron Energy =               -3593.6751302987945564
    Two-Electron Energy =                1021.1414436140311182
    Total Energy =                      -2572.5336866847633246
 Dipole X            :       -207.5915401          201.8250273           -5.7665128
 Dipole Y            :         -0.0002714            0.0000000           -0.0002714
 Dipole Z            :          0.0000000            0.0000000            0.0000000
 Magnitude           :                                                    5.7665128

    SAPT Results
  --------------------------------------------------------------------------------------------------------
    Electrostatics                -35.68723698 [mEh]     -22.39407930 [kcal/mol]     -93.69682779 [kJ/mol]
      Elst10,r                    -35.03414818 [mEh]     -21.98425989 [kcal/mol]     -91.98214338 [kJ/mol]
      Elst12,r                     -0.65308880 [mEh]      -0.40981941 [kcal/mol]      -1.71468440 [kJ/mol]

    Exchange                       42.68797981 [mEh]      26.78711175 [kcal/mol]     112.07727556 [kJ/mol]
      Exch10                       39.17462743 [mEh]      24.58244984 [kcal/mol]     102.85297015 [kJ/mol]
      Exch10(S^2)                  38.20208444 [mEh]      23.97216991 [kcal/mol]     100.29955889 [kJ/mol]
      Exch11(S^2)                   1.31694208 [mEh]       0.82639363 [kcal/mol]       3.45763096 [kJ/mol]
      Exch12(S^2)                   2.19641030 [mEh]       1.37826827 [kcal/mol]       5.76667445 [kJ/mol]

    Induction                     -16.49032699 [mEh]     -10.34783641 [kcal/mol]     -43.29534753 [kJ/mol]
      Ind20,r                     -32.67544539 [mEh]     -20.50415154 [kcal/mol]     -85.78937004 [kJ/mol]
      Ind22                        -4.06802744 [mEh]      -2.55272576 [kcal/mol]     -10.68060458 [kJ/mol]
      Exch-Ind20,r                 23.54184717 [mEh]      14.77273213 [kcal/mol]      61.80911122 [kJ/mol]
      Exch-Ind22                    2.93091278 [mEh]       1.83917553 [kcal/mol]       7.69511043 [kJ/mol]
      delta HF,r (2)               -6.21961410 [mEh]      -3.90286677 [kcal/mol]     -16.32959456 [kJ/mol]

    Dispersion                    -10.16475438 [mEh]      -6.37847967 [kcal/mol]     -26.68755895 [kJ/mol]
      Disp20                      -12.34749123 [mEh]      -7.74816773 [kcal/mol]     -32.41833376 [kJ/mol]
      Disp21                        0.87692754 [mEh]       0.55028034 [kcal/mol]       2.30237293 [kJ/mol]
      Disp22 (SDQ)                  0.08132266 [mEh]       0.05103074 [kcal/mol]       0.21351262 [kJ/mol]
      Disp22 (T)                   -1.81245102 [mEh]      -1.13733019 [kcal/mol]      -4.75858950 [kJ/mol]
      Est. Disp22 (T)              -2.06211344 [mEh]      -1.29399572 [kcal/mol]      -5.41407810 [kJ/mol]
      Exch-Disp20                   3.28660010 [mEh]       2.06237270 [kcal/mol]       8.62896737 [kJ/mol]

  Total HF                        -11.21273307 [mEh]      -7.03609623 [kcal/mol]     -29.43902662 [kJ/mol]
  Total SAPT0                     -20.27362421 [mEh]     -12.72189126 [kcal/mol]     -53.22839302 [kJ/mol]
  Total SAPT2                     -18.55047529 [mEh]     -11.64059899 [kcal/mol]     -48.70426616 [kJ/mol]
  Total SAPT2+                    -19.65433853 [mEh]     -12.33328363 [kcal/mol]     -51.60245871 [kJ/mol]

  Special recipe for scaled SAPT0 (see Manual):
    Electrostatics sSAPT0         -35.03414818 [mEh]     -21.98425989 [kcal/mol]     -91.98214338 [kJ/mol]
    Exchange sSAPT0                39.17462743 [mEh]      24.58244984 [kcal/mol]     102.85297015 [kJ/mol]
    Induction sSAPT0              -13.50907679 [mEh]      -8.47707367 [kcal/mol]     -35.46807623 [kJ/mol]
    Dispersion sSAPT0              -8.80343742 [mEh]      -5.52424038 [kcal/mol]     -23.11342176 [kJ/mol]
  Total sSAPT0                    -18.17203497 [mEh]     -11.40312410 [kcal/mol]     -47.71067123 [kJ/mol]
  --------------------------------------------------------------------------------------------------------

*** Psi4 exiting successfully. Buy a developer a beer!
