                               Psi4 1.9 release

  ==> Input File <==

--------------------------------------------------------------------------
MEMORY 60 GB

molecule dimer {
0 1
O      0.000000     0.000000     0.000000
H     -0.077717     0.955172     0.000000
H      0.978490    -0.109698     0.000000
--
-1 1
Br     2.890859     0.000000     0.000000

units ang
no_reorient
no_com
symmetry c1
}

set {
basis        aug-cc-pVTZ
scf_type     df
}

energy("sapt2+")
--------------------------------------------------------------------------

  //              Dimer HF             //
    Molecular point group: c1
  Charge       = -1
  Multiplicity = 1
  Basis Set: AUG-CC-PVTZ
    Blend: AUG-CC-PVTZ
  Basis Set: (AUG-CC-PVTZ AUX)
    Blend: AUG-CC-PVTZ-JKFIT
  @DF-RHF Final Energy: -2648.59544270771175
    Total Energy =                      -2648.5954427077112996
 Dipole X            :       -197.1724766          192.9048265           -4.2676501
 Dipole Y            :         -1.1144520            1.5977143            0.4832623
 Dipole Z            :         -0.0000000            0.0000000           -0.0000000
 Magnitude           :                                                    4.2949249
  //            Monomer A HF           //
    Molecular point group: c1
  Multiplicity = 1
  Basis Set: AUG-CC-PVTZ
    Blend: AUG-CC-PVTZ
  Basis Set: (AUG-CC-PVTZ AUX)
    Blend: AUG-CC-PVTZ-JKFIT
  @DF-RHF Final Energy:   -76.05856808015790
    Total Energy =                        -76.0585680801578974
  //            Monomer B HF           //
    Molecular point group: c1

    Geometry (in Angstrom), charge = -1, multiplicity = 1:

       Center              X                  Y                   Z               Mass
    ------------   -----------------  -----------------  -----------------  -----------------
      Gh(O)           0.000000000000     0.000000000000     0.000000000000    15.994914619570
      Gh(H)          -0.077717000000     0.955172000000     0.000000000000     1.007825032230
      Gh(H)           0.978490000000    -0.109698000000     0.000000000000     1.007825032230
         BR           2.890859000000     0.000000000000     0.000000000000    78.918337600000

  Charge       = -1
  Multiplicity = 1
  Basis Set: AUG-CC-PVTZ
    Blend: AUG-CC-PVTZ
  Basis Set: (AUG-CC-PVTZ AUX)
    Blend: AUG-CC-PVTZ-JKFIT

    Orbital Energies [Eh]
    ---------------------

    Doubly Occupied:

       1A   -489.721087     2A    -64.860950     3A    -58.215454
       4A    -58.215454     5A    -58.215450     6A     -9.533005
       7A     -7.140359     8A     -7.140358     9A     -7.140336
      10A     -2.882042    11A     -2.882041    12A     -2.882029
      13A     -2.882027    14A     -2.882024    15A     -0.686000
      16A     -0.139343    17A     -0.139343    18A     -0.139340

  @DF-RHF Final Energy: -2572.53368966400603

   => Energetics <=

    Nuclear Repulsion Energy =              0.0000000000000000
    One-Electron Energy =               -3593.6740891464346532
    Two-Electron Energy =                1021.1403994824283927
    Total Energy =                      -2572.5336896640064879
 Dipole X            :       -196.6656445          191.2026122           -5.4630323
 Dipole Y            :         -0.0003480            0.0000000           -0.0003480
 Dipole Z            :          0.0000000            0.0000000            0.0000000
 Magnitude           :                                                    5.4630323

    SAPT Results
  --------------------------------------------------------------------------------------------------------
    Electrostatics                -44.57721509 [mEh]     -27.97262479 [kcal/mol]    -117.03746210 [kJ/mol]
      Elst10,r                    -43.23251012 [mEh]     -27.12880967 [kcal/mol]    -113.50693967 [kJ/mol]
      Elst12,r                     -1.34470498 [mEh]      -0.84381511 [kcal/mol]      -3.53052243 [kJ/mol]

    Exchange                       66.41958798 [mEh]      41.67892070 [kcal/mol]     174.38460422 [kJ/mol]
      Exch10                       61.69664964 [mEh]      38.71523215 [kcal/mol]     161.98453132 [kJ/mol]
      Exch10(S^2)                  59.44975213 [mEh]      37.30528268 [kcal/mol]     156.08530272 [kJ/mol]
      Exch11(S^2)                   1.67398020 [mEh]       1.05043843 [kcal/mol]       4.39503440 [kJ/mol]
      Exch12(S^2)                   3.04895814 [mEh]       1.91325012 [kcal/mol]       8.00503851 [kJ/mol]

    Induction                     -23.35480214 [mEh]     -14.65535960 [kcal/mol]     -61.31802457 [kJ/mol]
      Ind20,r                     -52.45724351 [mEh]     -32.91741727 [kcal/mol]    -137.72647385 [kJ/mol]
      Ind22                        -6.70272461 [mEh]      -4.20602320 [kcal/mol]     -17.59800105 [kJ/mol]
      Exch-Ind20,r                 39.10800474 [mEh]      24.54064347 [kcal/mol]     102.67805229 [kJ/mol]
      Exch-Ind22                    4.99702555 [mEh]       3.13568087 [kcal/mol]      13.11968877 [kJ/mol]
      delta HF,r (2)               -8.29986430 [mEh]      -5.20824348 [kcal/mol]     -21.79129073 [kJ/mol]

    Dispersion                    -13.40093677 [mEh]      -8.40921478 [kcal/mol]     -35.18415464 [kJ/mol]
      Disp20                      -16.80213546 [mEh]     -10.54349918 [kcal/mol]     -44.11400058 [kJ/mol]
      Disp21                        1.33181085 [mEh]       0.83572393 [kcal/mol]       3.49666892 [kJ/mol]
      Disp22 (SDQ)                  0.14201291 [mEh]       0.08911445 [kcal/mol]       0.37285484 [kJ/mol]
      Disp22 (T)                   -2.41318979 [mEh]      -1.51429945 [kcal/mol]      -6.33582892 [kJ/mol]
      Est. Disp22 (T)              -2.71462438 [mEh]      -1.70345252 [kcal/mol]      -7.12724532 [kJ/mol]
      Exch-Disp20                   4.64199931 [mEh]       2.91289855 [kcal/mol]      12.18756751 [kJ/mol]

  Total HF                         -3.18496355 [mEh]      -1.99859480 [kcal/mol]      -8.36212064 [kJ/mol]
  Total SAPT0                     -15.34509970 [mEh]      -9.62919544 [kcal/mol]     -40.28855371 [kJ/mol]
  Total SAPT2                     -13.67256541 [mEh]      -8.57966432 [kcal/mol]     -35.89731553 [kJ/mol]
  Total SAPT2+                    -14.91336602 [mEh]      -9.35827846 [kcal/mol]     -39.15503709 [kJ/mol]

  Special recipe for scaled SAPT0 (see Manual):
    Electrostatics sSAPT0         -43.23251012 [mEh]     -27.12880967 [kcal/mol]    -113.50693967 [kJ/mol]
    Exchange sSAPT0                61.69664964 [mEh]      38.71523215 [kcal/mol]     161.98453132 [kJ/mol]
    Induction sSAPT0              -17.04515015 [mEh]     -10.69599320 [kcal/mol]     -44.75203555 [kJ/mol]
    Dispersion sSAPT0             -11.61366117 [mEh]      -7.28768241 [kcal/mol]     -30.49166319 [kJ/mol]
  Total sSAPT0                    -10.19467179 [mEh]      -6.39725313 [kcal/mol]     -26.76610710 [kJ/mol]
  --------------------------------------------------------------------------------------------------------

*** Psi4 exiting successfully. Buy a developer a beer!
