                               Psi4 1.9 release

  ==> Input File <==

--------------------------------------------------------------------------
MEMORY 60 GB

molecule dimer {
1 1
Li     0.000000     0.000000     0.000000
--
0 1
O      1.670181     0.000000     0.000000
H      2.255185     0.763729     0.000000
H      2.255185    -0.763729     0.000000
O     -1.670181     0.000000     0.000000
H     -2.255184    -0.763729     0.000000
H     -2.255184     0.763729     0.000000

units ang
no_reorient
no_com
symmetry c1
}

set {
basis        aug-cc-pVTZ
scf_type     df
}

energy("sapt2+")
--------------------------------------------------------------------------

  //              Dimer HF             //
    Molecular point group: c1
  Charge       = 1
  Multiplicity = 1
  Basis Set: AUG-CC-PVTZ
    Blend: AUG-CC-PVTZ
  Basis Set: (AUG-CC-PVTZ AUX)
    Blend: AUG-CC-PVTZ-JKFIT + DEF2-UNIVERSAL-JKFIT
  @DF-RHF Final Energy:  -159.45220575426251
    Total Energy =                       -159.4522057542625078
 Dipole X            :         -0.0000025            0.0000038            0.0000013
 Dipole Y            :         -0.0000000            0.0000000           -0.0000000
 Dipole Z            :         -0.0000000            0.0000000           -0.0000000
 Magnitude           :                                                    0.0000013
  //            Monomer A HF           //
    Molecular point group: c1
  Multiplicity = 1
  Basis Set: AUG-CC-PVTZ
    Blend: AUG-CC-PVTZ
  Basis Set: (AUG-CC-PVTZ AUX)
    Blend: AUG-CC-PVTZ-JKFIT + DEF2-UNIVERSAL-JKFIT
  @DF-RHF Final Energy:    -7.23638423970139
    Total Energy =                         -7.2363842397013896
  //            Monomer B HF           //
    Molecular point group: c1

    Geometry (in Angstrom), charge = 0, multiplicity = 1:

       Center              X                  Y                   Z               Mass
    ------------   -----------------  -----------------  -----------------  -----------------
      Gh(LI)          0.000000000000     0.000000000000     0.000000000000     7.016003436600
         O            1.670181000000     0.000000000000     0.000000000000    15.994914619570
         H            2.255185000000     0.763729000000     0.000000000000     1.007825032230
         H            2.255185000000    -0.763729000000     0.000000000000     1.007825032230
         O           -1.670181000000     0.000000000000     0.000000000000    15.994914619570
         H           -2.255184000000    -0.763729000000     0.000000000000     1.007825032230
         H           -2.255184000000     0.763729000000     0.000000000000     1.007825032230

  Charge       = 0
  Multiplicity = 1
  Basis Set: AUG-CC-PVTZ
    Blend: AUG-CC-PVTZ
  Basis Set: (AUG-CC-PVTZ AUX)
    Blend: AUG-CC-PVTZ-JKFIT + DEF2-UNIVERSAL-JKFIT

    Orbital Energies [Eh]
    ---------------------

    Doubly Occupied:

       1A    -20.552415     2A    -20.552414     3A     -1.335859
       4A     -1.335030     5A     -0.701586     6A     -0.700867
       7A     -0.572954     8A     -0.558561     9A     -0.495389
      10A     -0.492881

  @DF-RHF Final Energy:  -152.11655703607562

   => Energetics <=

    Nuclear Repulsion Energy =             33.1250458939689665
    One-Electron Energy =                -275.8872908420346448
    Two-Electron Energy =                  90.6456879119900520
    Total Energy =                       -152.1165570360756192
 Dipole X            :         -0.0000029            0.0000038            0.0000008
 Dipole Y            :         -0.0000000            0.0000000           -0.0000000
 Dipole Z            :         -0.0000000            0.0000000           -0.0000000
 Magnitude           :                                                    0.0000008

    SAPT Results
  --------------------------------------------------------------------------------------------------------
    Electrostatics               -113.13564507 [mEh]     -70.99368910 [kcal/mol]    -297.03759520 [kJ/mol]
      Elst10,r                   -122.91005135 [mEh]     -77.12722164 [kcal/mol]    -322.70029535 [kJ/mol]
      Elst12,r                      9.77440628 [mEh]       6.13353254 [kcal/mol]      25.66270016 [kJ/mol]

    Exchange                       74.73927125 [mEh]      46.89960078 [kcal/mol]     196.22792964 [kJ/mol]
      Exch10                       72.39465323 [mEh]      45.42833075 [kcal/mol]     190.07213587 [kJ/mol]
      Exch10(S^2)                  71.04855057 [mEh]      44.58363858 [kcal/mol]     186.53794382 [kJ/mol]
      Exch11(S^2)                  -0.64485089 [mEh]      -0.40465004 [kcal/mol]      -1.69305578 [kJ/mol]
      Exch12(S^2)                   2.98946891 [mEh]       1.87592007 [kcal/mol]       7.84884955 [kJ/mol]

    Induction                     -52.36865056 [mEh]     -32.86182436 [kcal/mol]    -137.49387311 [kJ/mol]
      Ind20,r                     -86.22801556 [mEh]     -54.10889667 [kcal/mol]    -226.39162366 [kJ/mol]
      Ind22                        -7.01398796 [mEh]      -4.40134389 [kcal/mol]     -18.41522286 [kJ/mol]
      Exch-Ind20,r                 41.73002712 [mEh]      26.18598736 [kcal/mol]     109.56217110 [kJ/mol]
      Exch-Ind22                    3.39441776 [mEh]       2.13002931 [kcal/mol]       8.91204261 [kJ/mol]
      delta HF,r (2)               -4.25109193 [mEh]      -2.66760046 [kcal/mol]     -11.16124032 [kJ/mol]

    Dispersion                     -3.34646859 [mEh]      -2.09994074 [kcal/mol]      -8.78615206 [kJ/mol]
      Disp20                       -3.44809989 [mEh]      -2.16371535 [kcal/mol]      -9.05298501 [kJ/mol]
      Disp21                       -0.12847941 [mEh]      -0.08062204 [kcal/mol]      -0.33732264 [kJ/mol]
      Disp22 (SDQ)                 -0.02632673 [mEh]      -0.01652027 [kcal/mol]      -0.06912082 [kJ/mol]
      Disp22 (T)                   -0.17252390 [mEh]      -0.10826038 [kcal/mol]      -0.45296143 [kJ/mol]
      Est. Disp22 (T)              -0.20539028 [mEh]      -0.12888435 [kcal/mol]      -0.53925210 [kJ/mol]
      Exch-Disp20                   0.46182772 [mEh]       0.28980127 [kcal/mol]       1.21252851 [kJ/mol]

  Total HF                        -99.26447849 [mEh]     -62.28940066 [kcal/mol]    -260.61885236 [kJ/mol]
  Total SAPT0                    -102.25075065 [mEh]     -64.16331474 [kcal/mol]    -268.45930886 [kJ/mol]
  Total SAPT2                     -93.75129655 [mEh]     -58.82982676 [kcal/mol]    -246.14399517 [kJ/mol]
  Total SAPT2+                    -94.11149296 [mEh]     -59.05585342 [kcal/mol]    -247.08969073 [kJ/mol]

  Special recipe for scaled SAPT0 (see Manual):
    Electrostatics sSAPT0        -122.91005135 [mEh]     -77.12722164 [kcal/mol]    -322.70029535 [kJ/mol]
    Exchange sSAPT0                72.39465323 [mEh]      45.42833075 [kcal/mol]     190.07213587 [kJ/mol]
    Induction sSAPT0              -46.33197743 [mEh]     -29.07375477 [kcal/mol]    -121.64458998 [kJ/mol]
    Dispersion sSAPT0              -2.95952200 [mEh]      -1.85712810 [kcal/mol]      -7.77022395 [kJ/mol]
  Total sSAPT0                    -99.80689755 [mEh]     -62.62977376 [kcal/mol]    -262.04297341 [kJ/mol]
  --------------------------------------------------------------------------------------------------------

*** Psi4 exiting successfully. Buy a developer a beer!
