                               Psi4 1.9 release

  ==> Input File <==

--------------------------------------------------------------------------
MEMORY 60 GB

molecule dimer {
1 1
Li     0.000000     0.000000     0.000000
--
0 1
O      2.041333     0.000000     0.000000
H      2.626337     0.763729     0.000000
H      2.626337    -0.763729     0.000000
O     -2.041333     0.000000     0.000000
H     -2.626336    -0.763729     0.000000
H     -2.626336     0.763729     0.000000

units ang
no_reorient
no_com
symmetry c1
}

set {
basis        aug-cc-pVTZ
scf_type     df
}

energy("sapt2+")
--------------------------------------------------------------------------

  //              Dimer HF             //
    Molecular point group: c1
  Charge       = 1
  Multiplicity = 1
  Basis Set: AUG-CC-PVTZ
    Blend: AUG-CC-PVTZ
  Basis Set: (AUG-CC-PVTZ AUX)
    Blend: AUG-CC-PVTZ-JKFIT + DEF2-UNIVERSAL-JKFIT
  @DF-RHF Final Energy:  -159.45735530623716
    Total Energy =                       -159.4573553062371616
 Dipole X            :         -0.0000026            0.0000038            0.0000011
 Dipole Y            :          0.0000000            0.0000000            0.0000000
 Dipole Z            :          0.0000000            0.0000000            0.0000000
 Magnitude           :                                                    0.0000011
  //            Monomer A HF           //
    Molecular point group: c1
  Multiplicity = 1
  Basis Set: AUG-CC-PVTZ
    Blend: AUG-CC-PVTZ
  Basis Set: (AUG-CC-PVTZ AUX)
    Blend: AUG-CC-PVTZ-JKFIT + DEF2-UNIVERSAL-JKFIT
  @DF-RHF Final Energy:    -7.23638386587996
    Total Energy =                         -7.2363838658799553
  //            Monomer B HF           //
    Molecular point group: c1

    Geometry (in Angstrom), charge = 0, multiplicity = 1:

       Center              X                  Y                   Z               Mass
    ------------   -----------------  -----------------  -----------------  -----------------
      Gh(LI)          0.000000000000     0.000000000000     0.000000000000     7.016003436600
         O            2.041333000000     0.000000000000     0.000000000000    15.994914619570
         H            2.626337000000     0.763729000000     0.000000000000     1.007825032230
         H            2.626337000000    -0.763729000000     0.000000000000     1.007825032230
         O           -2.041333000000     0.000000000000     0.000000000000    15.994914619570
         H           -2.626336000000    -0.763729000000     0.000000000000     1.007825032230
         H           -2.626336000000     0.763729000000     0.000000000000     1.007825032230

  Charge       = 0
  Multiplicity = 1
  Basis Set: AUG-CC-PVTZ
    Blend: AUG-CC-PVTZ
  Basis Set: (AUG-CC-PVTZ AUX)
    Blend: AUG-CC-PVTZ-JKFIT + DEF2-UNIVERSAL-JKFIT

    Orbital Energies [Eh]
    ---------------------

    Doubly Occupied:

       1A    -20.556935     2A    -20.556935     3A     -1.339897
       4A     -1.339790     5A     -0.705603     6A     -0.705484
       7A     -0.572716     8A     -0.569194     9A     -0.498990
      10A     -0.498419

  @DF-RHF Final Energy:  -152.11843480457381

   => Energetics <=

    Nuclear Repulsion Energy =             30.5654337844709119
    One-Electron Energy =                -270.6798167969542988
    Two-Electron Energy =                  87.9959482079095778
    Total Energy =                       -152.1184348045738091
 Dipole X            :         -0.0000029            0.0000038            0.0000009
 Dipole Y            :          0.0000000            0.0000000            0.0000000
 Dipole Z            :          0.0000000            0.0000000            0.0000000
 Magnitude           :                                                    0.0000009

    SAPT Results
  --------------------------------------------------------------------------------------------------------
    Electrostatics                -82.54644512 [mEh]     -51.79867634 [kcal/mol]    -216.72566182 [kJ/mol]
      Elst10,r                    -88.90257056 [mEh]     -55.78720527 [kcal/mol]    -233.41366686 [kJ/mol]
      Elst12,r                      6.35612544 [mEh]       3.98852893 [kcal/mol]      16.68800504 [kJ/mol]

    Exchange                       16.57382296 [mEh]      10.40023093 [kcal/mol]      43.51456619 [kJ/mol]
      Exch10                       15.28432926 [mEh]       9.59106141 [kcal/mol]      40.12900094 [kJ/mol]
      Exch10(S^2)                  15.22196880 [mEh]       9.55192963 [kcal/mol]      39.96527357 [kJ/mol]
      Exch11(S^2)                  -0.07975007 [mEh]      -0.05004392 [kcal/mol]      -0.20938377 [kJ/mol]
      Exch12(S^2)                   1.36924377 [mEh]       0.85921344 [kcal/mol]       3.59494902 [kJ/mol]

    Induction                     -31.52616773 [mEh]     -19.78296893 [kcal/mol]     -82.77194198 [kJ/mol]
      Ind20,r                     -39.41212136 [mEh]     -24.73147953 [kcal/mol]    -103.47651037 [kJ/mol]
      Ind22                        -3.68999726 [mEh]      -2.31550824 [kcal/mol]      -9.68808648 [kJ/mol]
      Exch-Ind20,r                 11.55901778 [mEh]       7.25339316 [kcal/mol]      30.34819699 [kJ/mol]
      Exch-Ind22                    1.08222401 [mEh]       0.67910582 [kcal/mol]       2.84137874 [kJ/mol]
      delta HF,r (2)               -1.06529090 [mEh]      -0.66848013 [kcal/mol]      -2.79692087 [kJ/mol]

    Dispersion                     -1.04781037 [mEh]      -0.65751093 [kcal/mol]      -2.75102575 [kJ/mol]
      Disp20                       -1.01133857 [mEh]      -0.63462454 [kcal/mol]      -2.65526906 [kJ/mol]
      Disp21                       -0.05986054 [mEh]      -0.03756306 [kcal/mol]      -0.15716382 [kJ/mol]
      Disp22 (SDQ)                 -0.01659280 [mEh]      -0.01041214 [kcal/mol]      -0.04356438 [kJ/mol]
      Disp22 (T)                   -0.05371307 [mEh]      -0.03370546 [kcal/mol]      -0.14102365 [kJ/mol]
      Est. Disp22 (T)              -0.06782187 [mEh]      -0.04255887 [kcal/mol]      -0.17806630 [kJ/mol]
      Exch-Disp20                   0.10780341 [mEh]       0.06764766 [kcal/mol]       0.28303781 [kJ/mol]

  Total HF                       -102.53663578 [mEh]     -64.34271036 [kcal/mol]    -269.20990016 [kJ/mol]
  Total SAPT0                    -103.44017095 [mEh]     -64.90968724 [kcal/mol]    -271.58213140 [kJ/mol]
  Total SAPT2                     -98.40232506 [mEh]     -61.74839122 [kcal/mol]    -258.35526885 [kJ/mol]
  Total SAPT2+                    -98.54660027 [mEh]     -61.83892528 [kcal/mol]    -258.73406335 [kJ/mol]

  Special recipe for scaled SAPT0 (see Manual):
    Electrostatics sSAPT0         -88.90257056 [mEh]     -55.78720527 [kcal/mol]    -233.41366686 [kJ/mol]
    Exchange sSAPT0                15.28432926 [mEh]       9.59106141 [kcal/mol]      40.12900094 [kJ/mol]
    Induction sSAPT0              -28.77574879 [mEh]     -18.05705498 [kcal/mol]     -75.55071803 [kJ/mol]
    Dispersion sSAPT0              -0.90220480 [mEh]      -0.56614206 [kcal/mol]      -2.36873838 [kJ/mol]
  Total sSAPT0                   -103.29619489 [mEh]     -64.81934090 [kcal/mol]    -271.20412232 [kJ/mol]
  --------------------------------------------------------------------------------------------------------

*** Psi4 exiting successfully. Buy a developer a beer!
