                               Psi4 1.9 release

  ==> Input File <==

--------------------------------------------------------------------------
MEMORY 60 GB

molecule dimer {
1 1
Li     0.000000     0.000000     0.000000
--
0 1
O      2.226908     0.000000     0.000000
H      2.811912     0.763729     0.000000
H      2.811912    -0.763729     0.000000
O     -2.226908     0.000000     0.000000
H     -2.811911    -0.763729     0.000000
H     -2.811911     0.763729     0.000000

units ang
no_reorient
no_com
symmetry c1
}

set {
basis        aug-cc-pVTZ
scf_type     df
}

energy("sapt2+")
--------------------------------------------------------------------------

  //              Dimer HF             //
    Molecular point group: c1
  Charge       = 1
  Multiplicity = 1
  Basis Set: AUG-CC-PVTZ
    Blend: AUG-CC-PVTZ
  Basis Set: (AUG-CC-PVTZ AUX)
    Blend: AUG-CC-PVTZ-JKFIT + DEF2-UNIVERSAL-JKFIT
  @DF-RHF Final Energy:  -159.44750588975558
    Total Energy =                       -159.4475058897555755
 Dipole X            :         -0.0000027            0.0000038            0.0000011
 Dipole Y            :          0.0000000            0.0000000            0.0000000
 Dipole Z            :          0.0000000            0.0000000            0.0000000
 Magnitude           :                                                    0.0000011
  //            Monomer A HF           //
    Molecular point group: c1
  Multiplicity = 1
  Basis Set: AUG-CC-PVTZ
    Blend: AUG-CC-PVTZ
  Basis Set: (AUG-CC-PVTZ AUX)
    Blend: AUG-CC-PVTZ-JKFIT + DEF2-UNIVERSAL-JKFIT
  @DF-RHF Final Energy:    -7.23638377676864
    Total Energy =                         -7.2363837767686352
  //            Monomer B HF           //
    Molecular point group: c1

    Geometry (in Angstrom), charge = 0, multiplicity = 1:

       Center              X                  Y                   Z               Mass
    ------------   -----------------  -----------------  -----------------  -----------------
      Gh(LI)          0.000000000000     0.000000000000     0.000000000000     7.016003436600
         O            2.226908000000     0.000000000000     0.000000000000    15.994914619570
         H            2.811912000000     0.763729000000     0.000000000000     1.007825032230
         H            2.811912000000    -0.763729000000     0.000000000000     1.007825032230
         O           -2.226908000000     0.000000000000     0.000000000000    15.994914619570
         H           -2.811911000000    -0.763729000000     0.000000000000     1.007825032230
         H           -2.811911000000     0.763729000000     0.000000000000     1.007825032230

  Charge       = 0
  Multiplicity = 1
  Basis Set: AUG-CC-PVTZ
    Blend: AUG-CC-PVTZ
  Basis Set: (AUG-CC-PVTZ AUX)
    Blend: AUG-CC-PVTZ-JKFIT + DEF2-UNIVERSAL-JKFIT

    Orbital Energies [Eh]
    ---------------------

    Doubly Occupied:

       1A    -20.558477     2A    -20.558477     3A     -1.341401
       4A     -1.341363     5A     -0.707082     6A     -0.707033
       7A     -0.573605     8A     -0.571874     9A     -0.500424
      10A     -0.500145

  @DF-RHF Final Energy:  -152.11890957187350

   => Energetics <=

    Nuclear Repulsion Energy =             29.5914301397934842
    One-Electron Energy =                -268.7009185350265170
    Two-Electron Energy =                  86.9905788233595274
    Total Energy =                       -152.1189095718735018
 Dipole X            :         -0.0000029            0.0000038            0.0000009
 Dipole Y            :          0.0000000            0.0000000            0.0000000
 Dipole Z            :          0.0000000            0.0000000            0.0000000
 Magnitude           :                                                    0.0000009

    SAPT Results
  --------------------------------------------------------------------------------------------------------
    Electrostatics                -71.21486181 [mEh]     -44.68800046 [kcal/mol]    -186.97459393 [kJ/mol]
      Elst10,r                    -76.51978185 [mEh]     -48.01688804 [kcal/mol]    -200.90265956 [kJ/mol]
      Elst12,r                      5.30492003 [mEh]       3.32888758 [kcal/mol]      13.92806563 [kJ/mol]

    Exchange                        7.80003608 [mEh]       4.89459654 [kcal/mol]      20.47899191 [kJ/mol]
      Exch10                        7.01370590 [mEh]       4.40116690 [kcal/mol]      18.41448230 [kJ/mol]
      Exch10(S^2)                   7.00043760 [mEh]       4.39284091 [kcal/mol]      18.37964638 [kJ/mol]
      Exch11(S^2)                  -0.02673570 [mEh]      -0.01677690 [kcal/mol]      -0.07019457 [kJ/mol]
      Exch12(S^2)                   0.81306588 [mEh]       0.51020654 [kcal/mol]       2.13470418 [kJ/mol]

    Induction                     -24.83271049 [mEh]     -15.58276109 [kcal/mol]     -65.19827240 [kJ/mol]
      Ind20,r                     -27.61630320 [mEh]     -17.32949189 [kcal/mol]     -72.50659407 [kJ/mol]
      Ind22                        -2.69491841 [mEh]      -1.69108683 [kcal/mol]      -7.07550730 [kJ/mol]
      Exch-Ind20,r                  5.82750420 [mEh]       3.65681409 [kcal/mol]      15.30011016 [kJ/mol]
      Exch-Ind22                    0.56867308 [mEh]       0.35684775 [kcal/mol]       1.49305098 [kJ/mol]
      delta HF,r (2)               -0.91766616 [mEh]      -0.57584421 [kcal/mol]      -2.40933217 [kJ/mol]

    Dispersion                     -0.61170844 [mEh]      -0.38385284 [kcal/mol]      -1.60604028 [kJ/mol]
      Disp20                       -0.57561919 [mEh]      -0.36120649 [kcal/mol]      -1.51128796 [kJ/mol]
      Disp21                       -0.03663601 [mEh]      -0.02298945 [kcal/mol]      -0.09618784 [kJ/mol]
      Disp22 (SDQ)                 -0.01184464 [mEh]      -0.00743263 [kcal/mol]      -0.03109811 [kJ/mol]
      Disp22 (T)                   -0.03210942 [mEh]      -0.02014897 [kcal/mol]      -0.08430327 [kJ/mol]
      Est. Disp22 (T)              -0.04038718 [mEh]      -0.02534334 [kcal/mol]      -0.10603652 [kJ/mol]
      Exch-Disp20                   0.05277859 [mEh]       0.03311906 [kcal/mol]       0.13857016 [kJ/mol]

  Total HF                        -92.21254111 [mEh]     -57.86424315 [kcal/mol]    -242.10399334 [kJ/mol]
  Total SAPT0                     -92.73538171 [mEh]     -58.19233058 [kcal/mol]    -243.47671115 [kJ/mol]
  Total SAPT2                     -88.77037682 [mEh]     -55.70425244 [kcal/mol]    -233.06659223 [kJ/mol]
  Total SAPT2+                    -88.85924466 [mEh]     -55.76001785 [kcal/mol]    -233.29991470 [kJ/mol]

  Special recipe for scaled SAPT0 (see Manual):
    Electrostatics sSAPT0         -76.51978185 [mEh]     -48.01688804 [kcal/mol]    -200.90265956 [kJ/mol]
    Exchange sSAPT0                 7.01370590 [mEh]       4.40116690 [kcal/mol]      18.41448230 [kJ/mol]
    Induction sSAPT0              -22.67326679 [mEh]     -14.22768971 [kcal/mol]     -59.52865375 [kJ/mol]
    Dispersion sSAPT0              -0.52253993 [mEh]      -0.32789876 [kcal/mol]      -1.37192839 [kJ/mol]
  Total sSAPT0                    -92.70188267 [mEh]     -58.17130961 [kcal/mol]    -243.38875941 [kJ/mol]
  --------------------------------------------------------------------------------------------------------

*** Psi4 exiting successfully. Buy a developer a beer!
