                               Psi4 1.9 release

  ==> Input File <==

--------------------------------------------------------------------------
MEMORY 60 GB

molecule dimer {
1 1
Li     0.000000     0.000000     0.000000
--
0 1
O      2.412484     0.000000     0.000000
H      2.997488     0.763729     0.000000
H      2.997488    -0.763729     0.000000
O     -2.412484     0.000000     0.000000
H     -2.997487    -0.763729     0.000000
H     -2.997487     0.763729     0.000000

units ang
no_reorient
no_com
symmetry c1
}

set {
basis        aug-cc-pVTZ
scf_type     df
}

energy("sapt2+")
--------------------------------------------------------------------------

  //              Dimer HF             //
    Molecular point group: c1
  Charge       = 1
  Multiplicity = 1
  Basis Set: AUG-CC-PVTZ
    Blend: AUG-CC-PVTZ
  Basis Set: (AUG-CC-PVTZ AUX)
    Blend: AUG-CC-PVTZ-JKFIT + DEF2-UNIVERSAL-JKFIT
  @DF-RHF Final Energy:  -159.43666793288418
    Total Energy =                       -159.4366679328841769
 Dipole X            :         -0.0000027            0.0000038            0.0000010
 Dipole Y            :          0.0000000            0.0000000            0.0000000
 Dipole Z            :         -0.0000000            0.0000000           -0.0000000
 Magnitude           :                                                    0.0000010
  //            Monomer A HF           //
    Molecular point group: c1
  Multiplicity = 1
  Basis Set: AUG-CC-PVTZ
    Blend: AUG-CC-PVTZ
  Basis Set: (AUG-CC-PVTZ AUX)
    Blend: AUG-CC-PVTZ-JKFIT + DEF2-UNIVERSAL-JKFIT
  @DF-RHF Final Energy:    -7.23638374538274
    Total Energy =                         -7.2363837453827369
  //            Monomer B HF           //
    Molecular point group: c1

    Geometry (in Angstrom), charge = 0, multiplicity = 1:

       Center              X                  Y                   Z               Mass
    ------------   -----------------  -----------------  -----------------  -----------------
      Gh(LI)          0.000000000000     0.000000000000     0.000000000000     7.016003436600
         O            2.412484000000     0.000000000000     0.000000000000    15.994914619570
         H            2.997488000000     0.763729000000     0.000000000000     1.007825032230
         H            2.997488000000    -0.763729000000     0.000000000000     1.007825032230
         O           -2.412484000000     0.000000000000     0.000000000000    15.994914619570
         H           -2.997487000000    -0.763729000000     0.000000000000     1.007825032230
         H           -2.997487000000     0.763729000000     0.000000000000     1.007825032230

  Charge       = 0
  Multiplicity = 1
  Basis Set: AUG-CC-PVTZ
    Blend: AUG-CC-PVTZ
  Basis Set: (AUG-CC-PVTZ AUX)
    Blend: AUG-CC-PVTZ-JKFIT + DEF2-UNIVERSAL-JKFIT

    Orbital Energies [Eh]
    ---------------------

    Doubly Occupied:

       1A    -20.559726     2A    -20.559725     3A     -1.342635
       4A     -1.342621     5A     -0.708298     6A     -0.708276
       7A     -0.574589     8A     -0.573737     9A     -0.501627
      10A     -0.501490

  @DF-RHF Final Energy:  -152.11924216233234

   => Energetics <=

    Nuclear Repulsion Energy =             28.7609697722452395
    One-Electron Energy =                -267.0149769062464316
    Two-Electron Energy =                  86.1347649716688579
    Total Energy =                       -152.1192421623323412
 Dipole X            :         -0.0000029            0.0000038            0.0000009
 Dipole Y            :          0.0000000            0.0000000            0.0000000
 Dipole Z            :         -0.0000000            0.0000000           -0.0000000
 Magnitude           :                                                    0.0000009

    SAPT Results
  --------------------------------------------------------------------------------------------------------
    Electrostatics                -61.92191326 [mEh]     -38.85658720 [kcal/mol]    -162.57596086 [kJ/mol]
      Elst10,r                    -66.42664907 [mEh]     -41.68335160 [kcal/mol]    -174.40314311 [kJ/mol]
      Elst12,r                      4.50473581 [mEh]       2.82676440 [kcal/mol]      11.82718225 [kJ/mol]

    Exchange                        3.67350336 [mEh]       2.30515816 [kcal/mol]       9.64478175 [kJ/mol]
      Exch10                        3.22044810 [mEh]       2.02086169 [kcal/mol]       8.45528532 [kJ/mol]
      Exch10(S^2)                   3.21763136 [mEh]       2.01909416 [kcal/mol]       8.44788996 [kJ/mol]
      Exch11(S^2)                  -0.00879508 [mEh]      -0.00551900 [kcal/mol]      -0.02309149 [kJ/mol]
      Exch12(S^2)                   0.46185035 [mEh]       0.28981547 [kcal/mol]       1.21258792 [kJ/mol]

    Induction                     -19.53595987 [mEh]     -12.25899990 [kcal/mol]     -51.29165557 [kJ/mol]
      Ind20,r                     -19.83632430 [mEh]     -12.44748142 [kcal/mol]     -52.08026226 [kJ/mol]
      Ind22                        -1.99044330 [mEh]      -1.24902202 [kcal/mol]      -5.22590815 [kJ/mol]
      Exch-Ind20,r                  2.89314253 [mEh]       1.81547434 [kcal/mol]       7.59594465 [kJ/mol]
      Exch-Ind22                    0.29030762 [mEh]       0.18217078 [kcal/mol]       0.76220256 [kJ/mol]
      delta HF,r (2)               -0.89264243 [mEh]      -0.56014158 [kcal/mol]      -2.34363237 [kJ/mol]

    Dispersion                     -0.36510373 [mEh]      -0.22910605 [kcal/mol]      -0.95857972 [kJ/mol]
      Disp20                       -0.33680180 [mEh]      -0.21134632 [kcal/mol]      -0.88427301 [kJ/mol]
      Disp21                       -0.02184090 [mEh]      -0.01370537 [kcal/mol]      -0.05734329 [kJ/mol]
      Disp22 (SDQ)                 -0.00816349 [mEh]      -0.00512267 [kcal/mol]      -0.02143325 [kJ/mol]
      Disp22 (T)                   -0.01977880 [mEh]      -0.01241138 [kcal/mol]      -0.05192923 [kJ/mol]
      Est. Disp22 (T)              -0.02451918 [mEh]      -0.01538602 [kcal/mol]      -0.06437510 [kJ/mol]
      Exch-Disp20                   0.02622165 [mEh]       0.01645433 [kcal/mol]       0.06884493 [kJ/mol]

  Total HF                        -81.04202517 [mEh]     -50.85463857 [kcal/mol]    -212.77580777 [kJ/mol]
  Total SAPT0                     -81.35260532 [mEh]     -51.04953056 [kcal/mol]    -213.59123585 [kJ/mol]
  Total SAPT2                     -78.09494992 [mEh]     -49.00532093 [kcal/mol]    -205.03826277 [kJ/mol]
  Total SAPT2+                    -78.14947350 [mEh]     -49.03953499 [kcal/mol]    -205.18141441 [kJ/mol]

  Special recipe for scaled SAPT0 (see Manual):
    Electrostatics sSAPT0         -66.42664907 [mEh]     -41.68335160 [kcal/mol]    -174.40314311 [kJ/mol]
    Exchange sSAPT0                 3.22044810 [mEh]       2.02086169 [kcal/mol]       8.45528532 [kJ/mol]
    Induction sSAPT0              -17.82821949 [mEh]     -11.18737663 [kcal/mol]     -46.80798383 [kJ/mol]
    Dispersion sSAPT0              -0.31051123 [mEh]      -0.19484874 [kcal/mol]      -0.81524712 [kJ/mol]
  Total sSAPT0                    -81.34493169 [mEh]     -51.04471528 [kcal/mol]    -213.57108874 [kJ/mol]
  --------------------------------------------------------------------------------------------------------

*** Psi4 exiting successfully. Buy a developer a beer!
