                               Psi4 1.9 release

  ==> Input File <==

--------------------------------------------------------------------------
MEMORY 60 GB

molecule dimer {
1 1
Li     0.000000     0.000000     0.000000
--
0 1
O      2.598060     0.000000     0.000000
H      3.183064     0.763729     0.000000
H      3.183064    -0.763729     0.000000
O     -2.598060     0.000000     0.000000
H     -3.183063    -0.763729     0.000000
H     -3.183063     0.763729     0.000000

units ang
no_reorient
no_com
symmetry c1
}

set {
basis        aug-cc-pVTZ
scf_type     df
}

energy("sapt2+")
--------------------------------------------------------------------------

  //              Dimer HF             //
    Molecular point group: c1
  Charge       = 1
  Multiplicity = 1
  Basis Set: AUG-CC-PVTZ
    Blend: AUG-CC-PVTZ
  Basis Set: (AUG-CC-PVTZ AUX)
    Blend: AUG-CC-PVTZ-JKFIT + DEF2-UNIVERSAL-JKFIT
  @DF-RHF Final Energy:  -159.42651455880713
    Total Energy =                       -159.4265145588070993
 Dipole X            :         -0.0000028            0.0000038            0.0000010
 Dipole Y            :          0.0000000            0.0000000            0.0000000
 Dipole Z            :          0.0000000            0.0000000            0.0000000
 Magnitude           :                                                    0.0000010
  //            Monomer A HF           //
    Molecular point group: c1
  Multiplicity = 1
  Basis Set: AUG-CC-PVTZ
    Blend: AUG-CC-PVTZ
  Basis Set: (AUG-CC-PVTZ AUX)
    Blend: AUG-CC-PVTZ-JKFIT + DEF2-UNIVERSAL-JKFIT
  @DF-RHF Final Energy:    -7.23638368769319
    Total Energy =                         -7.2363836876931931
  //            Monomer B HF           //
    Molecular point group: c1

    Geometry (in Angstrom), charge = 0, multiplicity = 1:

       Center              X                  Y                   Z               Mass
    ------------   -----------------  -----------------  -----------------  -----------------
      Gh(LI)          0.000000000000     0.000000000000     0.000000000000     7.016003436600
         O            2.598060000000     0.000000000000     0.000000000000    15.994914619570
         H            3.183064000000     0.763729000000     0.000000000000     1.007825032230
         H            3.183064000000    -0.763729000000     0.000000000000     1.007825032230
         O           -2.598060000000     0.000000000000     0.000000000000    15.994914619570
         H           -3.183063000000    -0.763729000000     0.000000000000     1.007825032230
         H           -3.183063000000     0.763729000000     0.000000000000     1.007825032230

  Charge       = 0
  Multiplicity = 1
  Basis Set: AUG-CC-PVTZ
    Blend: AUG-CC-PVTZ
  Basis Set: (AUG-CC-PVTZ AUX)
    Blend: AUG-CC-PVTZ-JKFIT + DEF2-UNIVERSAL-JKFIT

    Orbital Energies [Eh]
    ---------------------

    Doubly Occupied:

       1A    -20.560749     2A    -20.560748     3A     -1.343651
       4A     -1.343647     5A     -0.709302     6A     -0.709291
       7A     -0.575521     8A     -0.575105     9A     -0.502633
      10A     -0.502565

  @DF-RHF Final Energy:  -152.11948348837996

   => Energetics <=

    Nuclear Repulsion Energy =             28.0444385755148105
    One-Electron Energy =                -265.5614204479464888
    Two-Electron Energy =                  85.3974983840517012
    Total Energy =                       -152.1194834883799558
 Dipole X            :         -0.0000029            0.0000038            0.0000009
 Dipole Y            :          0.0000000            0.0000000            0.0000000
 Dipole Z            :         -0.0000000            0.0000000           -0.0000000
 Magnitude           :                                                    0.0000009

    SAPT Results
  --------------------------------------------------------------------------------------------------------
    Electrostatics                -54.25751030 [mEh]     -34.04710173 [kcal/mol]    -142.45307366 [kJ/mol]
      Elst10,r                    -58.13856448 [mEh]     -36.48250000 [kcal/mol]    -152.64278000 [kJ/mol]
      Elst12,r                      3.88105418 [mEh]       2.43539827 [kcal/mol]      10.18970634 [kJ/mol]

    Exchange                        1.73177558 [mEh]       1.08670558 [kcal/mol]       4.54677615 [kJ/mol]
      Exch10                        1.48027316 [mEh]       0.92888543 [kcal/mol]       3.88645665 [kJ/mol]
      Exch10(S^2)                   1.47967531 [mEh]       0.92851027 [kcal/mol]       3.88488698 [kJ/mol]
      Exch11(S^2)                  -0.00287334 [mEh]      -0.00180305 [kcal/mol]      -0.00754396 [kJ/mol]
      Exch12(S^2)                   0.25437575 [mEh]       0.15962320 [kcal/mol]       0.66786345 [kJ/mol]

    Induction                     -15.33358508 [mEh]      -9.62196991 [kcal/mol]     -40.25832209 [kJ/mol]
      Ind20,r                     -14.58399195 [mEh]      -9.15159311 [kcal/mol]     -38.29026559 [kJ/mol]
      Ind22                        -1.48966920 [mEh]      -0.93478153 [kcal/mol]      -3.91112594 [kJ/mol]
      Exch-Ind20,r                  1.42128121 [mEh]       0.89186742 [kcal/mol]       3.73157330 [kJ/mol]
      Exch-Ind22                    0.14517554 [mEh]       0.09109902 [kcal/mol]       0.38115832 [kJ/mol]
      delta HF,r (2)               -0.82638068 [mEh]      -0.51856170 [kcal/mol]      -2.16966217 [kJ/mol]

    Dispersion                     -0.22294108 [mEh]      -0.13989764 [kcal/mol]      -0.58533173 [kJ/mol]
      Disp20                       -0.20236602 [mEh]      -0.12698660 [kcal/mol]      -0.53131192 [kJ/mol]
      Disp21                       -0.01294464 [mEh]      -0.00812289 [kcal/mol]      -0.03398616 [kJ/mol]
      Disp22 (SDQ)                 -0.00550701 [mEh]      -0.00345570 [kcal/mol]      -0.01445865 [kJ/mol]
      Disp22 (T)                   -0.01236725 [mEh]      -0.00776056 [kcal/mol]      -0.03247020 [kJ/mol]
      Est. Disp22 (T)              -0.01515886 [mEh]      -0.00951233 [kcal/mol]      -0.03979959 [kJ/mol]
      Exch-Disp20                   0.01303546 [mEh]       0.00817987 [kcal/mol]       0.03422459 [kJ/mol]

  Total HF                        -70.64738273 [mEh]     -44.33190196 [kcal/mol]    -185.48467781 [kJ/mol]
  Total SAPT0                     -70.83671330 [mEh]     -44.45070869 [kcal/mol]    -185.98176515 [kJ/mol]
  Total SAPT2                     -68.04865037 [mEh]     -42.70117278 [kcal/mol]    -178.66170693 [kJ/mol]
  Total SAPT2+                    -68.08226089 [mEh]     -42.72226370 [kcal/mol]    -178.74995133 [kJ/mol]

  Special recipe for scaled SAPT0 (see Manual):
    Electrostatics sSAPT0         -58.13856448 [mEh]     -36.48250000 [kcal/mol]    -152.64278000 [kJ/mol]
    Exchange sSAPT0                 1.48027316 [mEh]       0.92888543 [kcal/mol]       3.88645665 [kJ/mol]
    Induction sSAPT0              -13.98736793 [mEh]      -8.77720589 [kcal/mol]     -36.72382945 [kJ/mol]
    Dispersion sSAPT0              -0.18931476 [mEh]      -0.11879680 [kcal/mol]      -0.49704583 [kJ/mol]
  Total sSAPT0                    -70.83497401 [mEh]     -44.44961726 [kcal/mol]    -185.97719863 [kJ/mol]
  --------------------------------------------------------------------------------------------------------

*** Psi4 exiting successfully. Buy a developer a beer!
