                               Psi4 1.9 release

  ==> Input File <==

--------------------------------------------------------------------------
MEMORY 60 GB

molecule dimer {
1 1
Li     0.000000     0.000000     0.000000
--
0 1
O      1.762969     0.000000     0.000000
H      2.347973     0.763729     0.000000
H      2.347973    -0.763729     0.000000
O     -1.762969     0.000000     0.000000
H     -2.347972    -0.763729     0.000000
H     -2.347972     0.763729     0.000000

units ang
no_reorient
no_com
symmetry c1
}

set {
basis        aug-cc-pVTZ
scf_type     df
}

energy("sapt2+")
--------------------------------------------------------------------------

  //              Dimer HF             //
    Molecular point group: c1
  Charge       = 1
  Multiplicity = 1
  Basis Set: AUG-CC-PVTZ
    Blend: AUG-CC-PVTZ
  Basis Set: (AUG-CC-PVTZ AUX)
    Blend: AUG-CC-PVTZ-JKFIT + DEF2-UNIVERSAL-JKFIT
  @DF-RHF Final Energy:  -159.45991622183220
    Total Energy =                       -159.4599162218322022
 Dipole X            :         -0.0000025            0.0000038            0.0000012
 Dipole Y            :         -0.0000000            0.0000000           -0.0000000
 Dipole Z            :          0.0000000            0.0000000            0.0000000
 Magnitude           :                                                    0.0000012
  //            Monomer A HF           //
    Molecular point group: c1
  Multiplicity = 1
  Basis Set: AUG-CC-PVTZ
    Blend: AUG-CC-PVTZ
  Basis Set: (AUG-CC-PVTZ AUX)
    Blend: AUG-CC-PVTZ-JKFIT + DEF2-UNIVERSAL-JKFIT
  @DF-RHF Final Energy:    -7.23638410471947
    Total Energy =                         -7.2363841047194688
  //            Monomer B HF           //
    Molecular point group: c1

    Geometry (in Angstrom), charge = 0, multiplicity = 1:

       Center              X                  Y                   Z               Mass
    ------------   -----------------  -----------------  -----------------  -----------------
      Gh(LI)          0.000000000000     0.000000000000     0.000000000000     7.016003436600
         O            1.762969000000     0.000000000000     0.000000000000    15.994914619570
         H            2.347973000000     0.763729000000     0.000000000000     1.007825032230
         H            2.347973000000    -0.763729000000     0.000000000000     1.007825032230
         O           -1.762969000000     0.000000000000     0.000000000000    15.994914619570
         H           -2.347972000000    -0.763729000000     0.000000000000     1.007825032230
         H           -2.347972000000     0.763729000000     0.000000000000     1.007825032230

  Charge       = 0
  Multiplicity = 1
  Basis Set: AUG-CC-PVTZ
    Blend: AUG-CC-PVTZ
  Basis Set: (AUG-CC-PVTZ AUX)
    Blend: AUG-CC-PVTZ-JKFIT + DEF2-UNIVERSAL-JKFIT

    Orbital Energies [Eh]
    ---------------------

    Doubly Occupied:

       1A    -20.553796     2A    -20.553795     3A     -1.337006
       4A     -1.336507     5A     -0.702743     6A     -0.702285
       7A     -0.572385     8A     -0.562249     9A     -0.496370
      10A     -0.494646

  @DF-RHF Final Energy:  -152.11722233737578

   => Energetics <=

    Nuclear Repulsion Energy =             32.3895916094435989
    One-Electron Energy =                -274.3900663511399216
    Two-Electron Energy =                  89.8832524043205439
    Total Energy =                       -152.1172223373757788
 Dipole X            :         -0.0000029            0.0000038            0.0000008
 Dipole Y            :         -0.0000000            0.0000000           -0.0000000
 Dipole Z            :          0.0000000            0.0000000            0.0000000
 Magnitude           :                                                    0.0000008

    SAPT Results
  --------------------------------------------------------------------------------------------------------
    Electrostatics               -104.38046747 [mEh]     -65.49973222 [kcal/mol]    -274.05087960 [kJ/mol]
      Elst10,r                   -113.06709512 [mEh]     -70.95067336 [kcal/mol]    -296.85761733 [kJ/mol]
      Elst12,r                      8.68662764 [mEh]       5.45094114 [kcal/mol]      22.80673773 [kJ/mol]

    Exchange                       51.31419920 [mEh]      32.20014614 [kcal/mol]     134.72541143 [kJ/mol]
      Exch10                       49.11496632 [mEh]      30.82010667 [kcal/mol]     128.95132630 [kJ/mol]
      Exch10(S^2)                  48.48741780 [mEh]      30.42631403 [kcal/mol]     127.30369788 [kJ/mol]
      Exch11(S^2)                  -0.38705063 [mEh]      -0.24287794 [kcal/mol]      -1.01620128 [kJ/mol]
      Exch12(S^2)                   2.58628350 [mEh]       1.62291740 [kcal/mol]       6.79028641 [kJ/mol]

    Induction                     -45.72016931 [mEh]     -28.68983938 [kcal/mol]    -120.03828798 [kJ/mol]
      Ind20,r                     -70.31729918 [mEh]     -44.12477141 [kcal/mol]    -184.61804357 [kJ/mol]
      Ind22                        -5.97488086 [mEh]      -3.74929434 [kcal/mol]     -15.68704753 [kJ/mol]
      Exch-Ind20,r                 30.74442474 [mEh]      19.29241779 [kcal/mol]      80.71947604 [kJ/mol]
      Exch-Ind22                    2.61236249 [mEh]       1.63928221 [kcal/mol]       6.85875678 [kJ/mol]
      delta HF,r (2)               -2.78477650 [mEh]      -1.74747364 [kcal/mol]      -7.31142969 [kJ/mol]

    Dispersion                     -2.47718553 [mEh]      -1.55445739 [kcal/mol]      -6.50384971 [kJ/mol]
      Disp20                       -2.50805517 [mEh]      -1.57382838 [kcal/mol]      -6.58489794 [kJ/mol]
      Disp21                       -0.11126783 [mEh]      -0.06982162 [kcal/mol]      -0.29213365 [kJ/mol]
      Disp22 (SDQ)                 -0.02455831 [mEh]      -0.01541057 [kcal/mol]      -0.06447783 [kJ/mol]
      Disp22 (T)                   -0.13272395 [mEh]      -0.08328553 [kcal/mol]      -0.34846668 [kJ/mol]
      Est. Disp22 (T)              -0.15637210 [mEh]      -0.09812497 [kcal/mol]      -0.41055490 [kJ/mol]
      Exch-Disp20                   0.32306788 [mEh]       0.20272816 [kcal/mol]       0.84821460 [kJ/mol]

  Total HF                       -106.30977974 [mEh]     -66.71039394 [kcal/mol]    -279.11628825 [kJ/mol]
  Total SAPT0                    -108.49476703 [mEh]     -68.08149416 [kcal/mol]    -284.85297159 [kJ/mol]
  Total SAPT2                    -100.97142487 [mEh]     -63.36052569 [kcal/mol]    -265.10043948 [kJ/mol]
  Total SAPT2+                   -101.26362311 [mEh]     -63.54388285 [kcal/mol]    -265.86760585 [kJ/mol]

  Special recipe for scaled SAPT0 (see Manual):
    Electrostatics sSAPT0        -113.06709512 [mEh]     -70.95067336 [kcal/mol]    -296.85761733 [kJ/mol]
    Exchange sSAPT0                49.11496632 [mEh]      30.82010667 [kcal/mol]     128.95132630 [kJ/mol]
    Induction sSAPT0              -41.14840506 [mEh]     -25.82101401 [kcal/mol]    -108.03512261 [kJ/mol]
    Dispersion sSAPT0              -2.17228032 [mEh]      -1.36312648 [kcal/mol]      -5.70332119 [kJ/mol]
  Total sSAPT0                   -107.27281418 [mEh]     -67.31470718 [kcal/mol]    -281.64473483 [kJ/mol]
  --------------------------------------------------------------------------------------------------------

*** Psi4 exiting successfully. Buy a developer a beer!
