                               Psi4 1.9 release

  ==> Input File <==

--------------------------------------------------------------------------
MEMORY 60 GB

molecule dimer {
1 1
Li     0.000000     0.000000     0.000000
--
0 1
O      2.783635     0.000000     0.000000
H      3.368640     0.763729     0.000000
H      3.368640    -0.763729     0.000000
O     -2.783635     0.000000     0.000000
H     -3.368638    -0.763729     0.000000
H     -3.368638     0.763729     0.000000

units ang
no_reorient
no_com
symmetry c1
}

set {
basis        aug-cc-pVTZ
scf_type     df
}

energy("sapt2+")
--------------------------------------------------------------------------

  //              Dimer HF             //
    Molecular point group: c1
  Charge       = 1
  Multiplicity = 1
  Basis Set: AUG-CC-PVTZ
    Blend: AUG-CC-PVTZ
  Basis Set: (AUG-CC-PVTZ AUX)
    Blend: AUG-CC-PVTZ-JKFIT + DEF2-UNIVERSAL-JKFIT
  @DF-RHF Final Energy:  -159.41760257038416
    Total Energy =                       -159.4176025703841617
 Dipole X            :         -0.0000056            0.0000076            0.0000020
 Dipole Y            :         -0.0000000            0.0000000           -0.0000000
 Dipole Z            :         -0.0000000            0.0000000           -0.0000000
 Magnitude           :                                                    0.0000020
  //            Monomer A HF           //
    Molecular point group: c1
  Multiplicity = 1
  Basis Set: AUG-CC-PVTZ
    Blend: AUG-CC-PVTZ
  Basis Set: (AUG-CC-PVTZ AUX)
    Blend: AUG-CC-PVTZ-JKFIT + DEF2-UNIVERSAL-JKFIT
  @DF-RHF Final Energy:    -7.23638353448226
    Total Energy =                         -7.2363835344822558
  //            Monomer B HF           //
    Molecular point group: c1

    Geometry (in Angstrom), charge = 0, multiplicity = 1:

       Center              X                  Y                   Z               Mass
    ------------   -----------------  -----------------  -----------------  -----------------
      Gh(LI)          0.000000000000     0.000000000000     0.000000000000     7.016003436600
         O            2.783635000000     0.000000000000     0.000000000000    15.994914619570
         H            3.368640000000     0.763729000000     0.000000000000     1.007825032230
         H            3.368640000000    -0.763729000000     0.000000000000     1.007825032230
         O           -2.783635000000     0.000000000000     0.000000000000    15.994914619570
         H           -3.368638000000    -0.763729000000     0.000000000000     1.007825032230
         H           -3.368638000000     0.763729000000     0.000000000000     1.007825032230

  Charge       = 0
  Multiplicity = 1
  Basis Set: AUG-CC-PVTZ
    Blend: AUG-CC-PVTZ
  Basis Set: (AUG-CC-PVTZ AUX)
    Blend: AUG-CC-PVTZ-JKFIT + DEF2-UNIVERSAL-JKFIT

    Orbital Energies [Eh]
    ---------------------

    Doubly Occupied:

       1A    -20.561595     2A    -20.561594     3A     -1.344495
       4A     -1.344494     5A     -0.710137     6A     -0.710130
       7A     -0.576353     8A     -0.576155     9A     -0.503475
      10A     -0.503443

  @DF-RHF Final Energy:  -152.11966411853979

   => Energetics <=

    Nuclear Repulsion Energy =             27.4198548505945716
    One-Electron Energy =                -264.2952983184566733
    Two-Electron Energy =                  84.7557793493223528
    Total Energy =                       -152.1196641185397596
 Dipole X            :         -0.0000058            0.0000076            0.0000017
 Dipole Y            :         -0.0000000            0.0000000           -0.0000000
 Dipole Z            :         -0.0000000            0.0000000           -0.0000000
 Magnitude           :                                                    0.0000017

    SAPT Results
  --------------------------------------------------------------------------------------------------------
    Electrostatics                -47.88375439 [mEh]     -30.04750952 [kcal/mol]    -125.71877982 [kJ/mol]
      Elst10,r                    -51.26797438 [mEh]     -32.17113962 [kcal/mol]    -134.60404818 [kJ/mol]
      Elst12,r                      3.38421999 [mEh]       2.12363011 [kcal/mol]       8.88526836 [kJ/mol]

    Exchange                        0.81699379 [mEh]       0.51267134 [kcal/mol]       2.14501690 [kJ/mol]
      Exch10                        0.68095286 [mEh]       0.42730437 [kcal/mol]       1.78784148 [kJ/mol]
      Exch10(S^2)                   0.68082592 [mEh]       0.42722472 [kcal/mol]       1.78750821 [kJ/mol]
      Exch11(S^2)                  -0.00092834 [mEh]      -0.00058254 [kcal/mol]      -0.00243736 [kJ/mol]
      Exch12(S^2)                   0.13696927 [mEh]       0.08594952 [kcal/mol]       0.35961278 [kJ/mol]

    Induction                     -12.02694159 [mEh]      -7.54701979 [kcal/mol]     -31.57673080 [kJ/mol]
      Ind20,r                     -10.95238261 [mEh]      -6.87272385 [kcal/mol]     -28.75547658 [kJ/mol]
      Ind22                        -1.13057320 [mEh]      -0.70944539 [kcal/mol]      -2.96831953 [kJ/mol]
      Exch-Ind20,r                  0.69291930 [mEh]       0.43481343 [kcal/mol]       1.81925938 [kJ/mol]
      Exch-Ind22                    0.07152745 [mEh]       0.04488415 [kcal/mol]       0.18779529 [kJ/mol]
      delta HF,r (2)               -0.70843254 [mEh]      -0.44454813 [kcal/mol]      -1.85998937 [kJ/mol]

    Dispersion                     -0.13976010 [mEh]      -0.08770079 [kcal/mol]      -0.36694009 [kJ/mol]
      Disp20                       -0.12522771 [mEh]      -0.07858157 [kcal/mol]      -0.32878530 [kJ/mol]
      Disp21                       -0.00771300 [mEh]      -0.00483998 [kcal/mol]      -0.02025048 [kJ/mol]
      Disp22 (SDQ)                 -0.00366991 [mEh]      -0.00230291 [kcal/mol]      -0.00963536 [kJ/mol]
      Disp22 (T)                   -0.00780083 [mEh]      -0.00489510 [kcal/mol]      -0.02048108 [kJ/mol]
      Est. Disp22 (T)              -0.00955825 [mEh]      -0.00599789 [kcal/mol]      -0.02509517 [kJ/mol]
      Exch-Disp20                   0.00640877 [mEh]       0.00402156 [kcal/mol]       0.01682621 [kJ/mol]

  Total HF                        -61.55491736 [mEh]     -38.62629380 [kcal/mol]    -161.61241327 [kJ/mol]
  Total SAPT0                     -61.67373630 [mEh]     -38.70085381 [kcal/mol]    -161.92437235 [kJ/mol]
  Total SAPT2                     -59.21252113 [mEh]     -37.15641797 [kcal/mol]    -155.46245281 [kJ/mol]
  Total SAPT2+                    -59.23346229 [mEh]     -37.16955875 [kcal/mol]    -155.51743381 [kJ/mol]

  Special recipe for scaled SAPT0 (see Manual):
    Electrostatics sSAPT0         -51.26797438 [mEh]     -32.17113962 [kcal/mol]    -134.60404818 [kJ/mol]
    Exchange sSAPT0                 0.68095286 [mEh]       0.42730437 [kcal/mol]       1.78784148 [kJ/mol]
    Induction sSAPT0              -10.96750821 [mEh]      -6.88221530 [kcal/mol]     -28.79518883 [kJ/mol]
    Dispersion sSAPT0              -0.11881535 [mEh]      -0.07455776 [kcal/mol]      -0.31194967 [kJ/mol]
  Total sSAPT0                    -61.67334508 [mEh]     -38.70060832 [kcal/mol]    -161.92334520 [kJ/mol]
  --------------------------------------------------------------------------------------------------------

*** Psi4 exiting successfully. Buy a developer a beer!
