                               Psi4 1.9 release

  ==> Input File <==

--------------------------------------------------------------------------
MEMORY 60 GB

molecule dimer {
1 1
Li     0.000000     0.000000     0.000000
--
0 1
O      1.948545     0.000000     0.000000
H      2.533549     0.763729     0.000000
H      2.533549    -0.763729     0.000000
O     -1.948545     0.000000     0.000000
H     -2.533548    -0.763729     0.000000
H     -2.533548     0.763729     0.000000

units ang
no_reorient
no_com
symmetry c1
}

set {
basis        aug-cc-pVTZ
scf_type     df
}

energy("sapt2+")
--------------------------------------------------------------------------

  //              Dimer HF             //
    Molecular point group: c1
  Charge       = 1
  Multiplicity = 1
  Basis Set: AUG-CC-PVTZ
    Blend: AUG-CC-PVTZ
  Basis Set: (AUG-CC-PVTZ AUX)
    Blend: AUG-CC-PVTZ-JKFIT + DEF2-UNIVERSAL-JKFIT
  @DF-RHF Final Energy:  -159.46077610136527
    Total Energy =                       -159.4607761013652691
 Dipole X            :         -0.0000026            0.0000038            0.0000012
 Dipole Y            :         -0.0000000            0.0000000           -0.0000000
 Dipole Z            :         -0.0000000            0.0000000           -0.0000000
 Magnitude           :                                                    0.0000012
  //            Monomer A HF           //
    Molecular point group: c1
  Multiplicity = 1
  Basis Set: AUG-CC-PVTZ
    Blend: AUG-CC-PVTZ
  Basis Set: (AUG-CC-PVTZ AUX)
    Blend: AUG-CC-PVTZ-JKFIT + DEF2-UNIVERSAL-JKFIT
  @DF-RHF Final Energy:    -7.23638393694138
    Total Energy =                         -7.2363839369413769
  //            Monomer B HF           //
    Molecular point group: c1

    Geometry (in Angstrom), charge = 0, multiplicity = 1:

       Center              X                  Y                   Z               Mass
    ------------   -----------------  -----------------  -----------------  -----------------
      Gh(LI)          0.000000000000     0.000000000000     0.000000000000     7.016003436600
         O            1.948545000000     0.000000000000     0.000000000000    15.994914619570
         H            2.533549000000     0.763729000000     0.000000000000     1.007825032230
         H            2.533549000000    -0.763729000000     0.000000000000     1.007825032230
         O           -1.948545000000     0.000000000000     0.000000000000    15.994914619570
         H           -2.533548000000    -0.763729000000     0.000000000000     1.007825032230
         H           -2.533548000000     0.763729000000     0.000000000000     1.007825032230

  Charge       = 0
  Multiplicity = 1
  Basis Set: AUG-CC-PVTZ
    Blend: AUG-CC-PVTZ
  Basis Set: (AUG-CC-PVTZ AUX)
    Blend: AUG-CC-PVTZ-JKFIT + DEF2-UNIVERSAL-JKFIT

    Orbital Energies [Eh]
    ---------------------

    Doubly Occupied:

       1A    -20.556021     2A    -20.556020     3A     -1.339024
       4A     -1.338845     5A     -0.704744     6A     -0.704558
       7A     -0.572398     8A     -0.567382     9A     -0.498179
      10A     -0.497356

  @DF-RHF Final Energy:  -152.11811801358425

   => Energetics <=

    Nuclear Repulsion Energy =             31.1184724914409969
    One-Electron Energy =                -271.8041275186699295
    Two-Electron Energy =                  88.5675370136446816
    Total Energy =                       -152.1181180135842510
 Dipole X            :         -0.0000029            0.0000038            0.0000009
 Dipole Y            :         -0.0000000            0.0000000           -0.0000000
 Dipole Z            :         -0.0000000            0.0000000           -0.0000000
 Magnitude           :                                                    0.0000009

    SAPT Results
  --------------------------------------------------------------------------------------------------------
    Electrostatics                -89.12124779 [mEh]     -55.92442730 [kcal/mol]    -233.98780383 [kJ/mol]
      Elst10,r                    -96.13161733 [mEh]     -60.32350060 [kcal/mol]    -252.39352652 [kJ/mol]
      Elst12,r                      7.01036954 [mEh]       4.39907330 [kcal/mol]      18.40572269 [kJ/mol]

    Exchange                       24.16018623 [mEh]      15.16074574 [kcal/mol]      63.43256020 [kJ/mol]
      Exch10                       22.56198530 [mEh]      14.15785952 [kcal/mol]      59.23648424 [kJ/mol]
      Exch10(S^2)                  22.42704135 [mEh]      14.07318092 [kcal/mol]      58.88218897 [kJ/mol]
      Exch11(S^2)                  -0.13608930 [mEh]      -0.08539733 [kcal/mol]      -0.35730242 [kJ/mol]
      Exch12(S^2)                   1.73429023 [mEh]       1.08828355 [kcal/mol]       4.55337837 [kJ/mol]

    Induction                     -35.56371110 [mEh]     -22.31656564 [kcal/mol]     -93.37251063 [kJ/mol]
      Ind20,r                     -47.52350382 [mEh]     -29.82144887 [kcal/mol]    -124.77294209 [kJ/mol]
      Ind22                        -4.33044837 [mEh]      -2.71739738 [kcal/mol]     -11.36959062 [kJ/mol]
      Exch-Ind20,r                 16.14595949 [mEh]      10.13174254 [kcal/mol]      42.39121080 [kJ/mol]
      Exch-Ind22                    1.47125608 [mEh]       0.92322713 [kcal/mol]       3.86278230 [kJ/mol]
      delta HF,r (2)               -1.32697448 [mEh]      -0.83268906 [kcal/mol]      -3.48397102 [kJ/mol]

    Dispersion                     -1.38804386 [mEh]      -0.87101067 [kcal/mol]      -3.64430866 [kJ/mol]
      Disp20                       -1.35728201 [mEh]      -0.85170732 [kcal/mol]      -3.56354343 [kJ/mol]
      Disp21                       -0.07513094 [mEh]      -0.04714538 [kcal/mol]      -0.19725626 [kJ/mol]
      Disp22 (SDQ)                 -0.01945869 [mEh]      -0.01221051 [kcal/mol]      -0.05108878 [kJ/mol]
      Disp22 (T)                   -0.07885615 [mEh]      -0.04948298 [kcal/mol]      -0.20703679 [kJ/mol]
      Est. Disp22 (T)              -0.09141585 [mEh]      -0.05736431 [kcal/mol]      -0.24001227 [kJ/mol]
      Exch-Disp20                   0.15524362 [mEh]       0.09741684 [kcal/mol]       0.40759207 [kJ/mol]

  Total HF                       -106.27415084 [mEh]     -66.68803647 [kcal/mol]    -279.02274459 [kJ/mol]
  Total SAPT0                    -107.47618923 [mEh]     -67.44232695 [kcal/mol]    -282.17869594 [kJ/mol]
  Total SAPT2                    -101.72681105 [mEh]     -63.83453767 [kcal/mol]    -267.08370562 [kJ/mol]
  Total SAPT2+                   -101.91281653 [mEh]     -63.95125787 [kcal/mol]    -267.57206293 [kJ/mol]

  Special recipe for scaled SAPT0 (see Manual):
    Electrostatics sSAPT0         -96.13161733 [mEh]     -60.32350060 [kcal/mol]    -252.39352652 [kJ/mol]
    Exchange sSAPT0                22.56198530 [mEh]      14.15785952 [kcal/mol]      59.23648424 [kJ/mol]
    Induction sSAPT0              -32.41130997 [mEh]     -20.33840406 [kcal/mol]     -85.09588259 [kJ/mol]
    Dispersion sSAPT0              -1.19921918 [mEh]      -0.75252140 [kcal/mol]      -3.14854953 [kJ/mol]
  Total sSAPT0                   -107.18016118 [mEh]     -67.25656654 [kcal/mol]    -281.40147440 [kJ/mol]
  --------------------------------------------------------------------------------------------------------

*** Psi4 exiting successfully. Buy a developer a beer!
