                               Psi4 1.9 release

  ==> Input File <==

--------------------------------------------------------------------------
MEMORY 60 GB

molecule dimer {
1 1
Na     0.000000     0.000000     0.000000
--
0 1
O      2.235038     0.000000     0.000000
H      2.823996     0.759416     0.000000
H      2.823996    -0.759416     0.000000
O     -2.235038     0.000000     0.000000
H     -2.823996    -0.759416     0.000000
H     -2.823996     0.759416     0.000000

units ang
no_reorient
no_com
symmetry c1
}

set {
basis        aug-cc-pVTZ
scf_type     df
}

energy("sapt2+")
--------------------------------------------------------------------------

  //              Dimer HF             //
    Molecular point group: c1
  Charge       = 1
  Multiplicity = 1
  Basis Set: AUG-CC-PVTZ
    Blend: AUG-CC-PVTZ
  Basis Set: (AUG-CC-PVTZ AUX)
    Blend: AUG-CC-PVTZ-JKFIT + DEF2-UNIVERSAL-JKFIT
  @DF-RHF Final Energy:  -313.86955552085351
    Total Energy =                       -313.8695555208534529
 Dipole X            :          0.0000000           -0.0000000            0.0000000
 Dipole Y            :         -0.0000000            0.0000000           -0.0000000
 Dipole Z            :         -0.0000000            0.0000000           -0.0000000
 Magnitude           :                                                    0.0000000
  //            Monomer A HF           //
    Molecular point group: c1
  Multiplicity = 1
  Basis Set: AUG-CC-PVTZ
    Blend: AUG-CC-PVTZ
  Basis Set: (AUG-CC-PVTZ AUX)
    Blend: AUG-CC-PVTZ-JKFIT + DEF2-UNIVERSAL-JKFIT
  @DF-RHF Final Energy:  -161.67605806000870
    Total Energy =                       -161.6760580600086996
  //            Monomer B HF           //
    Molecular point group: c1

    Geometry (in Angstrom), charge = 0, multiplicity = 1:

       Center              X                  Y                   Z               Mass
    ------------   -----------------  -----------------  -----------------  -----------------
      Gh(NA)          0.000000000000     0.000000000000     0.000000000000    22.989769282000
         O            2.235038000000     0.000000000000     0.000000000000    15.994914619570
         H            2.823996000000     0.759416000000     0.000000000000     1.007825032230
         H            2.823996000000    -0.759416000000     0.000000000000     1.007825032230
         O           -2.235038000000     0.000000000000     0.000000000000    15.994914619570
         H           -2.823996000000    -0.759416000000     0.000000000000     1.007825032230
         H           -2.823996000000     0.759416000000     0.000000000000     1.007825032230

  Charge       = 0
  Multiplicity = 1
  Basis Set: AUG-CC-PVTZ
    Blend: AUG-CC-PVTZ
  Basis Set: (AUG-CC-PVTZ AUX)
    Blend: AUG-CC-PVTZ-JKFIT + DEF2-UNIVERSAL-JKFIT

    Orbital Energies [Eh]
    ---------------------

    Doubly Occupied:

       1A    -20.558632     2A    -20.558632     3A     -1.342437
       4A     -1.342402     5A     -0.706346     6A     -0.706295
       7A     -0.575149     8A     -0.573481     9A     -0.500749
      10A     -0.500476

  @DF-RHF Final Energy:  -152.11906168697871

   => Energetics <=

    Nuclear Repulsion Energy =             29.5720325170166092
    One-Electron Energy =                -268.6529917661508762
    Two-Electron Energy =                  86.9618975621555563
    Total Energy =                       -152.1190616869786822
 Dipole X            :          0.0000000           -0.0000000            0.0000000
 Dipole Y            :         -0.0000000            0.0000000           -0.0000000
 Dipole Z            :          0.0000000            0.0000000            0.0000000
 Magnitude           :                                                    0.0000000

    SAPT Results
  --------------------------------------------------------------------------------------------------------
    Electrostatics                -75.98506831 [mEh]     -47.68135023 [kcal/mol]    -199.49876935 [kJ/mol]
      Elst10,r                    -80.59204551 [mEh]     -50.57227207 [kcal/mol]    -211.59438633 [kJ/mol]
      Elst12,r                      4.60697720 [mEh]       2.89092184 [kcal/mol]      12.09561698 [kJ/mol]

    Exchange                       25.57325473 [mEh]      16.04745962 [kcal/mol]      67.14257105 [kJ/mol]
      Exch10                       23.53344156 [mEh]      14.76745753 [kcal/mol]      61.78704231 [kJ/mol]
      Exch10(S^2)                  23.48010668 [mEh]      14.73398939 [kcal/mol]      61.64701159 [kJ/mol]
      Exch11(S^2)                  -0.25518368 [mEh]      -0.16013018 [kcal/mol]      -0.66998466 [kJ/mol]
      Exch12(S^2)                   2.29499685 [mEh]       1.44013227 [kcal/mol]       6.02551340 [kJ/mol]

    Induction                     -19.62166858 [mEh]     -12.31278292 [kcal/mol]     -51.51668376 [kJ/mol]
      Ind20,r                     -41.74982371 [mEh]     -26.19840991 [kcal/mol]    -109.61414704 [kJ/mol]
      Ind22                        -4.79151862 [mEh]      -3.00672333 [kcal/mol]     -12.58013040 [kJ/mol]
      Exch-Ind20,r                 22.19288762 [mEh]      13.92624723 [kcal/mol]      58.26741841 [kJ/mol]
      Exch-Ind22                    2.54701996 [mEh]       1.59827915 [kcal/mol]       6.68719998 [kJ/mol]
      delta HF,r (2)                2.17976617 [mEh]       1.36782392 [kcal/mol]       5.72297530 [kJ/mol]

    Dispersion                     -1.38444087 [mEh]      -0.86874976 [kcal/mol]      -3.63484899 [kJ/mol]
      Disp20                       -1.42359809 [mEh]      -0.89332129 [kcal/mol]      -3.73765627 [kJ/mol]
      Disp21                       -0.05150405 [mEh]      -0.03231928 [kcal/mol]      -0.13522386 [kJ/mol]
      Disp22 (SDQ)                 -0.07988822 [mEh]      -0.05013062 [kcal/mol]      -0.20974649 [kJ/mol]
      Disp22 (T)                   -0.10595641 [mEh]      -0.06648865 [kcal/mol]      -0.27818851 [kJ/mol]
      Est. Disp22 (T)              -0.12995021 [mEh]      -0.08154499 [kcal/mol]      -0.34118424 [kJ/mol]
      Exch-Disp20                   0.30049971 [mEh]       0.18856641 [kcal/mol]       0.78896187 [kJ/mol]

  Total HF                        -74.43577387 [mEh]     -46.70915329 [kcal/mol]    -195.43109736 [kJ/mol]
  Total SAPT0                     -75.55887225 [mEh]     -47.41390817 [kcal/mol]    -198.37979176 [kJ/mol]
  Total SAPT2                     -71.15658054 [mEh]     -44.65142841 [kcal/mol]    -186.82157646 [kJ/mol]
  Total SAPT2+                    -71.41792302 [mEh]     -44.81542329 [kcal/mol]    -187.50773106 [kJ/mol]

  Special recipe for scaled SAPT0 (see Manual):
    Electrostatics sSAPT0         -80.59204551 [mEh]     -50.57227207 [kcal/mol]    -211.59438633 [kJ/mol]
    Exchange sSAPT0                23.53344156 [mEh]      14.76745753 [kcal/mol]      61.78704231 [kJ/mol]
    Induction sSAPT0              -17.22559321 [mEh]     -10.80922293 [kcal/mol]     -45.22578875 [kJ/mol]
    Dispersion sSAPT0              -1.12104598 [mEh]      -0.70346697 [kcal/mol]      -2.94330582 [kJ/mol]
  Total sSAPT0                    -75.40524314 [mEh]     -47.31750444 [kcal/mol]    -197.97643860 [kJ/mol]
  --------------------------------------------------------------------------------------------------------

*** Psi4 exiting successfully. Buy a developer a beer!
