                               Psi4 1.9 release

  ==> Input File <==

--------------------------------------------------------------------------
MEMORY 60 GB

molecule dimer {
1 1
Na     0.000000     0.000000     0.000000
--
0 1
O      2.123286     0.000000     0.000000
H      2.712244     0.759416     0.000000
H      2.712244    -0.759416     0.000000
O     -2.123286     0.000000     0.000000
H     -2.712244    -0.759416     0.000000
H     -2.712244     0.759416     0.000000

units ang
no_reorient
no_com
symmetry c1
}

set {
basis        aug-cc-pVTZ
scf_type     df
}

energy("sapt2+")
--------------------------------------------------------------------------

  //              Dimer HF             //
    Molecular point group: c1
  Charge       = 1
  Multiplicity = 1
  Basis Set: AUG-CC-PVTZ
    Blend: AUG-CC-PVTZ
  Basis Set: (AUG-CC-PVTZ AUX)
    Blend: AUG-CC-PVTZ-JKFIT + DEF2-UNIVERSAL-JKFIT
  @DF-RHF Final Energy:  -313.86703110477538
    Total Energy =                       -313.8670311047753785
 Dipole X            :         -0.0000000            0.0000000           -0.0000000
 Dipole Y            :         -0.0000000            0.0000000           -0.0000000
 Dipole Z            :         -0.0000000            0.0000000           -0.0000000
 Magnitude           :                                                    0.0000000
  //            Monomer A HF           //
    Molecular point group: c1
  Multiplicity = 1
  Basis Set: AUG-CC-PVTZ
    Blend: AUG-CC-PVTZ
  Basis Set: (AUG-CC-PVTZ AUX)
    Blend: AUG-CC-PVTZ-JKFIT + DEF2-UNIVERSAL-JKFIT
  @DF-RHF Final Energy:  -161.67606220414476
    Total Energy =                       -161.6760622041447562
  //            Monomer B HF           //
    Molecular point group: c1

    Geometry (in Angstrom), charge = 0, multiplicity = 1:

       Center              X                  Y                   Z               Mass
    ------------   -----------------  -----------------  -----------------  -----------------
      Gh(NA)          0.000000000000     0.000000000000     0.000000000000    22.989769282000
         O            2.123286000000     0.000000000000     0.000000000000    15.994914619570
         H            2.712244000000     0.759416000000     0.000000000000     1.007825032230
         H            2.712244000000    -0.759416000000     0.000000000000     1.007825032230
         O           -2.123286000000     0.000000000000     0.000000000000    15.994914619570
         H           -2.712244000000    -0.759416000000     0.000000000000     1.007825032230
         H           -2.712244000000     0.759416000000     0.000000000000     1.007825032230

  Charge       = 0
  Multiplicity = 1
  Basis Set: AUG-CC-PVTZ
    Blend: AUG-CC-PVTZ
  Basis Set: (AUG-CC-PVTZ AUX)
    Blend: AUG-CC-PVTZ-JKFIT + DEF2-UNIVERSAL-JKFIT

    Orbital Energies [Eh]
    ---------------------

    Doubly Occupied:

       1A    -20.557745     2A    -20.557744     3A     -1.341570
       4A     -1.341503     5A     -0.705493     6A     -0.705410
       7A     -0.574573     8A     -0.572010     9A     -0.499927
      10A     -0.499507

  @DF-RHF Final Energy:  -152.11880866476031

   => Energetics <=

    Nuclear Repulsion Energy =             30.1348333102021329
    One-Electron Energy =                -269.7963193574233287
    Two-Electron Energy =                  87.5426773824608944
    Total Energy =                       -152.1188086647603086
 Dipole X            :         -0.0000000            0.0000000           -0.0000000
 Dipole Y            :         -0.0000000            0.0000000           -0.0000000
 Dipole Z            :         -0.0000000            0.0000000           -0.0000000
 Magnitude           :                                                    0.0000000

    SAPT Results
  --------------------------------------------------------------------------------------------------------
    Electrostatics                -85.63051991 [mEh]     -53.73396249 [kcal/mol]    -224.82289906 [kJ/mol]
      Elst10,r                    -90.54893918 [mEh]     -56.82031718 [kcal/mol]    -237.73620707 [kJ/mol]
      Elst12,r                      4.91841927 [mEh]       3.08635469 [kcal/mol]      12.91330801 [kJ/mol]

    Exchange                       40.34322749 [mEh]      25.31575745 [kcal/mol]     105.92112918 [kJ/mol]
      Exch10                       37.63734740 [mEh]      23.61779206 [kcal/mol]      98.81684199 [kJ/mol]
      Exch10(S^2)                  37.50231351 [mEh]      23.53305702 [kcal/mol]      98.46231056 [kJ/mol]
      Exch11(S^2)                  -0.45136897 [mEh]      -0.28323830 [kcal/mol]      -1.18506906 [kJ/mol]
      Exch12(S^2)                   3.15724905 [mEh]       1.98120369 [kcal/mol]       8.28935624 [kJ/mol]

    Induction                     -21.72001835 [mEh]     -13.62951728 [kcal/mol]     -57.02590031 [kJ/mol]
      Ind20,r                     -56.86202434 [mEh]     -35.68145897 [kcal/mol]    -149.29122434 [kJ/mol]
      Ind22                        -6.31219364 [mEh]      -3.96096131 [kcal/mol]     -16.57266212 [kJ/mol]
      Exch-Ind20,r                 34.59918655 [mEh]      21.71131734 [kcal/mol]      90.84015177 [kJ/mol]
      Exch-Ind22                    3.84081938 [mEh]       2.41015055 [kcal/mol]      10.08406990 [kJ/mol]
      delta HF,r (2)                3.01419370 [mEh]       1.89143510 [kcal/mol]       7.91376447 [kJ/mol]

    Dispersion                     -1.86289744 [mEh]      -1.16898579 [kcal/mol]      -4.89103656 [kJ/mol]
      Disp20                       -2.02584366 [mEh]      -1.27123609 [kcal/mol]      -5.31885180 [kJ/mol]
      Disp21                       -0.04894686 [mEh]      -0.03071462 [kcal/mol]      -0.12850997 [kJ/mol]
      Disp22 (SDQ)                 -0.11180488 [mEh]      -0.07015862 [kcal/mol]      -0.29354368 [kJ/mol]
      Disp22 (T)                   -0.14775150 [mEh]      -0.09271547 [kcal/mol]      -0.38792152 [kJ/mol]
      Est. Disp22 (T)              -0.18224390 [mEh]      -0.11435978 [kcal/mol]      -0.47848130 [kJ/mol]
      Exch-Disp20                   0.50594187 [mEh]       0.31748331 [kcal/mol]       1.32835019 [kJ/mol]

  Total HF                        -72.16023587 [mEh]     -45.28123164 [kcal/mol]    -189.45667318 [kJ/mol]
  Total SAPT0                     -73.68013767 [mEh]     -46.23498441 [kcal/mol]    -193.44717479 [kJ/mol]
  Total SAPT2                     -68.52721257 [mEh]     -43.00147510 [kcal/mol]    -179.91817180 [kJ/mol]
  Total SAPT2+                    -68.87020821 [mEh]     -43.21670811 [kcal/mol]    -180.81870675 [kJ/mol]

  Special recipe for scaled SAPT0 (see Manual):
    Electrostatics sSAPT0         -90.54893918 [mEh]     -56.82031718 [kcal/mol]    -237.73620707 [kJ/mol]
    Exchange sSAPT0                37.63734740 [mEh]      23.61779206 [kcal/mol]      98.81684199 [kJ/mol]
    Induction sSAPT0              -18.87355478 [mEh]     -11.84333443 [kcal/mol]     -49.55251124 [kJ/mol]
    Dispersion sSAPT0              -1.51441689 [mEh]      -0.95031094 [kcal/mol]      -3.97610099 [kJ/mol]
  Total sSAPT0                    -73.29956345 [mEh]     -45.99617049 [kcal/mol]    -192.44797731 [kJ/mol]
  --------------------------------------------------------------------------------------------------------

*** Psi4 exiting successfully. Buy a developer a beer!
