                               Psi4 1.9 release

  ==> Input File <==

--------------------------------------------------------------------------
MEMORY 60 GB

molecule dimer {
1 1
Na     0.000000     0.000000     0.000000
--
0 1
O      2.346790     0.000000     0.000000
H      2.935748     0.759416     0.000000
H      2.935748    -0.759416     0.000000
O     -2.346790     0.000000     0.000000
H     -2.935748    -0.759416     0.000000
H     -2.935748     0.759416     0.000000

units ang
no_reorient
no_com
symmetry c1
}

set {
basis        aug-cc-pVTZ
scf_type     df
}

energy("sapt2+")
--------------------------------------------------------------------------

  //              Dimer HF             //
    Molecular point group: c1
  Charge       = 1
  Multiplicity = 1
  Basis Set: AUG-CC-PVTZ
    Blend: AUG-CC-PVTZ
  Basis Set: (AUG-CC-PVTZ AUX)
    Blend: AUG-CC-PVTZ-JKFIT + DEF2-UNIVERSAL-JKFIT
  @DF-RHF Final Energy:  -313.86878081328626
    Total Energy =                       -313.8687808132862074
 Dipole X            :          0.0000000            0.0000000            0.0000000
 Dipole Y            :          0.0000000            0.0000000            0.0000000
 Dipole Z            :         -0.0000000            0.0000000           -0.0000000
 Magnitude           :                                                    0.0000000
  //            Monomer A HF           //
    Molecular point group: c1
  Multiplicity = 1
  Basis Set: AUG-CC-PVTZ
    Blend: AUG-CC-PVTZ
  Basis Set: (AUG-CC-PVTZ AUX)
    Blend: AUG-CC-PVTZ-JKFIT + DEF2-UNIVERSAL-JKFIT
  @DF-RHF Final Energy:  -161.67605496177168
    Total Energy =                       -161.6760549617716833
  //            Monomer B HF           //
    Molecular point group: c1

    Geometry (in Angstrom), charge = 0, multiplicity = 1:

       Center              X                  Y                   Z               Mass
    ------------   -----------------  -----------------  -----------------  -----------------
      Gh(NA)          0.000000000000     0.000000000000     0.000000000000    22.989769282000
         O            2.346790000000     0.000000000000     0.000000000000    15.994914619570
         H            2.935748000000     0.759416000000     0.000000000000     1.007825032230
         H            2.935748000000    -0.759416000000     0.000000000000     1.007825032230
         O           -2.346790000000     0.000000000000     0.000000000000    15.994914619570
         H           -2.935748000000    -0.759416000000     0.000000000000     1.007825032230
         H           -2.935748000000     0.759416000000     0.000000000000     1.007825032230

  Charge       = 0
  Multiplicity = 1
  Basis Set: AUG-CC-PVTZ
    Blend: AUG-CC-PVTZ
  Basis Set: (AUG-CC-PVTZ AUX)
    Blend: AUG-CC-PVTZ-JKFIT + DEF2-UNIVERSAL-JKFIT

    Orbital Energies [Eh]
    ---------------------

    Doubly Occupied:

       1A    -20.559414     2A    -20.559413     3A     -1.343206
       4A     -1.343188     5A     -0.707102     6A     -0.707071
       7A     -0.575751     8A     -0.574665     9A     -0.501490
      10A     -0.501312

  @DF-RHF Final Energy:  -152.11926603164636

   => Energetics <=

    Nuclear Repulsion Energy =             29.0605129288751094
    One-Electron Energy =                -267.6143331671942178
    Two-Electron Energy =                  86.4345542066727290
    Total Energy =                       -152.1192660316463616
 Dipole X            :          0.0000000            0.0000000            0.0000000
 Dipole Y            :          0.0000000            0.0000000            0.0000000
 Dipole Z            :         -0.0000000            0.0000000           -0.0000000
 Magnitude           :                                                    0.0000000

    SAPT Results
  --------------------------------------------------------------------------------------------------------
    Electrostatics                -68.24571544 [mEh]     -42.82483298 [kcal/mol]    -179.17910121 [kJ/mol]
      Elst10,r                    -72.54363493 [mEh]     -45.52181818 [kcal/mol]    -190.46328727 [kJ/mol]
      Elst12,r                      4.29791949 [mEh]       2.69698520 [kcal/mol]      11.28418606 [kJ/mol]

    Exchange                       16.19703815 [mEh]      10.16379488 [kcal/mol]      42.52531780 [kJ/mol]
      Exch10                       14.69516947 [mEh]       9.22135806 [kcal/mol]      38.58216212 [kJ/mol]
      Exch10(S^2)                  14.67421255 [mEh]       9.20820740 [kcal/mol]      38.52713975 [kJ/mol]
      Exch11(S^2)                  -0.14576730 [mEh]      -0.09147036 [kcal/mol]      -0.38271199 [kJ/mol]
      Exch12(S^2)                   1.64763598 [mEh]       1.03390719 [kcal/mol]       4.32586766 [kJ/mol]

    Induction                     -17.61861926 [mEh]     -11.05585050 [kcal/mol]     -46.25767850 [kJ/mol]
      Ind20,r                     -31.32872849 [mEh]     -19.65907393 [kcal/mol]     -82.25356531 [kJ/mol]
      Ind22                        -3.67613500 [mEh]      -2.30680954 [kcal/mol]      -9.65169112 [kJ/mol]
      Exch-Ind20,r                 14.22243189 [mEh]       8.92471075 [kcal/mol]      37.34098978 [kJ/mol]
      Exch-Ind22                    1.66887015 [mEh]       1.04723183 [kcal/mol]       4.38161797 [kJ/mol]
      delta HF,r (2)                1.49494219 [mEh]       0.93809039 [kcal/mol]       3.92497018 [kJ/mol]

    Dispersion                     -1.04843949 [mEh]      -0.65790571 [kcal/mol]      -2.75267750 [kJ/mol]
      Disp20                       -1.02802176 [mEh]      -0.64509340 [kcal/mol]      -2.69907077 [kJ/mol]
      Disp21                       -0.04762124 [mEh]      -0.02988278 [kcal/mol]      -0.12502955 [kJ/mol]
      Disp22 (SDQ)                 -0.05865593 [mEh]      -0.03680715 [kcal/mol]      -0.15400113 [kJ/mol]
      Disp22 (T)                   -0.07845466 [mEh]      -0.04923104 [kcal/mol]      -0.20598267 [kJ/mol]
      Est. Disp22 (T)              -0.09508075 [mEh]      -0.05966407 [kcal/mol]      -0.24963446 [kJ/mol]
      Exch-Disp20                   0.18094020 [mEh]       0.11354169 [kcal/mol]       0.47505842 [kJ/mol]

  Total HF                        -73.45981987 [mEh]     -46.09673291 [kcal/mol]    -192.86873049 [kJ/mol]
  Total SAPT0                     -74.30690144 [mEh]     -46.62828462 [kcal/mol]    -195.09274284 [kJ/mol]
  Total SAPT2                     -70.51437813 [mEh]     -44.24844031 [kcal/mol]    -185.13547426 [kJ/mol]
  Total SAPT2+                    -70.71573605 [mEh]     -44.37479431 [kcal/mol]    -185.66413941 [kJ/mol]

  Special recipe for scaled SAPT0 (see Manual):
    Electrostatics sSAPT0         -72.54363493 [mEh]     -45.52181818 [kcal/mol]    -190.46328727 [kJ/mol]
    Exchange sSAPT0                14.69516947 [mEh]       9.22135806 [kcal/mol]      38.58216212 [kJ/mol]
    Induction sSAPT0              -15.55033222 [mEh]      -9.75798079 [kcal/mol]     -40.82739162 [kJ/mol]
    Dispersion sSAPT0              -0.84630523 [mEh]      -0.53106455 [kcal/mol]      -2.22197408 [kJ/mol]
  Total sSAPT0                    -74.24510291 [mEh]     -46.58950546 [kcal/mol]    -194.93049085 [kJ/mol]
  --------------------------------------------------------------------------------------------------------

*** Psi4 exiting successfully. Buy a developer a beer!
