                               Psi4 1.9 release

  ==> Input File <==

--------------------------------------------------------------------------
MEMORY 60 GB

molecule dimer {
1 1
Na     0.000000     0.000000     0.000000
--
0 1
O      2.011534     0.000000     0.000000
H      2.600492     0.759416     0.000000
H      2.600492    -0.759416     0.000000
O     -2.011534     0.000000     0.000000
H     -2.600492    -0.759416     0.000000
H     -2.600492     0.759416     0.000000

units ang
no_reorient
no_com
symmetry c1
}

set {
basis        aug-cc-pVTZ
scf_type     df
}

energy("sapt2+")
--------------------------------------------------------------------------

  //              Dimer HF             //
    Molecular point group: c1
  Charge       = 1
  Multiplicity = 1
  Basis Set: AUG-CC-PVTZ
    Blend: AUG-CC-PVTZ
  Basis Set: (AUG-CC-PVTZ AUX)
    Blend: AUG-CC-PVTZ-JKFIT + DEF2-UNIVERSAL-JKFIT
  @DF-RHF Final Energy:  -313.85888188066656
    Total Energy =                       -313.8588818806665586
 Dipole X            :          0.0000000           -0.0000000            0.0000000
 Dipole Y            :         -0.0000000            0.0000000           -0.0000000
 Dipole Z            :          0.0000000            0.0000000            0.0000000
 Magnitude           :                                                    0.0000000
  //            Monomer A HF           //
    Molecular point group: c1
  Multiplicity = 1
  Basis Set: AUG-CC-PVTZ
    Blend: AUG-CC-PVTZ
  Basis Set: (AUG-CC-PVTZ AUX)
    Blend: AUG-CC-PVTZ-JKFIT + DEF2-UNIVERSAL-JKFIT
  @DF-RHF Final Energy:  -161.67606758921181
    Total Energy =                       -161.6760675892118115
  //            Monomer B HF           //
    Molecular point group: c1

    Geometry (in Angstrom), charge = 0, multiplicity = 1:

       Center              X                  Y                   Z               Mass
    ------------   -----------------  -----------------  -----------------  -----------------
      Gh(NA)          0.000000000000     0.000000000000     0.000000000000    22.989769282000
         O            2.011534000000     0.000000000000     0.000000000000    15.994914619570
         H            2.600492000000     0.759416000000     0.000000000000     1.007825032230
         H            2.600492000000    -0.759416000000     0.000000000000     1.007825032230
         O           -2.011534000000     0.000000000000     0.000000000000    15.994914619570
         H           -2.600492000000    -0.759416000000     0.000000000000     1.007825032230
         H           -2.600492000000     0.759416000000     0.000000000000     1.007825032230

  Charge       = 0
  Multiplicity = 1
  Basis Set: AUG-CC-PVTZ
    Blend: AUG-CC-PVTZ
  Basis Set: (AUG-CC-PVTZ AUX)
    Blend: AUG-CC-PVTZ-JKFIT + DEF2-UNIVERSAL-JKFIT

    Orbital Energies [Eh]
    ---------------------

    Doubly Occupied:

       1A    -20.556730     2A    -20.556729     3A     -1.340592
       4A     -1.340466     5A     -0.704530     6A     -0.704391
       7A     -0.574081     8A     -0.570152     9A     -0.499013
      10A     -0.498365

  @DF-RHF Final Energy:  -152.11849247030889

   => Energetics <=

    Nuclear Repulsion Energy =             30.7570639399752110
    One-Electron Energy =                -271.0610175502611128
    Two-Electron Energy =                  88.1854611399770079
    Total Energy =                       -152.1184924703088939
 Dipole X            :          0.0000000           -0.0000000            0.0000000
 Dipole Y            :         -0.0000000            0.0000000           -0.0000000
 Dipole Z            :          0.0000000            0.0000000            0.0000000
 Magnitude           :                                                    0.0000000

    SAPT Results
  --------------------------------------------------------------------------------------------------------
    Electrostatics                -98.01306943 [mEh]     -61.50412962 [kcal/mol]    -257.33327834 [kJ/mol]
      Elst10,r                   -103.22443529 [mEh]     -64.77431107 [kcal/mol]    -271.01571751 [kJ/mol]
      Elst12,r                      5.21136585 [mEh]       3.27018144 [kcal/mol]      13.68243916 [kJ/mol]

    Exchange                       63.61913281 [mEh]      39.92160855 [kcal/mol]     167.03201018 [kJ/mol]
      Exch10                       60.13863700 [mEh]      37.73756446 [kcal/mol]     157.89396970 [kJ/mol]
      Exch10(S^2)                  59.79806029 [mEh]      37.52384935 [kcal/mol]     156.99978566 [kJ/mol]
      Exch11(S^2)                  -0.80977823 [mEh]      -0.50814351 [kcal/mol]      -2.12607246 [kJ/mol]
      Exch12(S^2)                   4.29027404 [mEh]       2.69218761 [kcal/mol]      11.26411294 [kJ/mol]

    Induction                     -23.91771022 [mEh]     -15.00858975 [kcal/mol]     -62.79593953 [kJ/mol]
      Ind20,r                     -79.11494826 [mEh]     -49.64537955 [kcal/mol]    -207.71626803 [kJ/mol]
      Ind22                        -8.39952055 [mEh]      -5.27077872 [kcal/mol]     -22.05293817 [kJ/mol]
      Exch-Ind20,r                 53.85617841 [mEh]      33.79526217 [kcal/mol]     141.39937694 [kJ/mol]
      Exch-Ind22                    5.71783319 [mEh]       3.58799450 [kcal/mol]      15.01216898 [kJ/mol]
      delta HF,r (2)                4.02274698 [mEh]       2.52431184 [kcal/mol]      10.56172075 [kJ/mol]

    Dispersion                     -2.55201869 [mEh]      -1.60141590 [kcal/mol]      -6.70032414 [kJ/mol]
      Disp20                       -2.96343509 [mEh]      -1.85958360 [kcal/mol]      -7.78049777 [kJ/mol]
      Disp21                       -0.03109602 [mEh]      -0.01951305 [kcal/mol]      -0.08164260 [kJ/mol]
      Disp22 (SDQ)                 -0.16107727 [mEh]      -0.10107752 [kcal/mol]      -0.42290833 [kJ/mol]
      Disp22 (T)                   -0.22063799 [mEh]      -0.13845243 [kcal/mol]      -0.57928496 [kJ/mol]
      Est. Disp22 (T)              -0.26065262 [mEh]      -0.16356199 [kcal/mol]      -0.68434335 [kJ/mol]
      Exch-Disp20                   0.86424232 [mEh]       0.54232024 [kcal/mol]       2.26906790 [kJ/mol]

  Total HF                        -64.32182115 [mEh]     -40.36255214 [kcal/mol]    -168.87691815 [kJ/mol]
  Total SAPT0                     -66.42101392 [mEh]     -41.67981549 [kcal/mol]    -174.38834802 [kJ/mol]
  Total SAPT2                     -60.41083961 [mEh]     -37.90837418 [kcal/mol]    -158.60863756 [kJ/mol]
  Total SAPT2+                    -60.86366553 [mEh]     -38.19252673 [kcal/mol]    -159.79753183 [kJ/mol]

  Special recipe for scaled SAPT0 (see Manual):
    Electrostatics sSAPT0        -103.22443529 [mEh]     -64.77431107 [kcal/mol]    -271.01571751 [kJ/mol]
    Exchange sSAPT0                60.13863700 [mEh]      37.73756446 [kcal/mol]     157.89396970 [kJ/mol]
    Induction sSAPT0              -20.31056683 [mEh]     -12.74507310 [kcal/mol]     -53.32538586 [kJ/mol]
    Dispersion sSAPT0              -2.08434177 [mEh]      -1.30794421 [kcal/mol]      -5.47243857 [kJ/mol]
  Total sSAPT0                    -65.48070688 [mEh]     -41.08976392 [kcal/mol]    -171.91957223 [kJ/mol]
  --------------------------------------------------------------------------------------------------------

*** Psi4 exiting successfully. Buy a developer a beer!
