                               Psi4 1.9 release

  ==> Input File <==

--------------------------------------------------------------------------
MEMORY 60 GB

molecule dimer {
1 1
Na     0.000000     0.000000     0.000000
--
0 1
O      3.352557     0.000000     0.000000
H      3.941515     0.759416     0.000000
H      3.941515    -0.759416     0.000000
O     -3.352557     0.000000     0.000000
H     -3.941515    -0.759416     0.000000
H     -3.941515     0.759416     0.000000

units ang
no_reorient
no_com
symmetry c1
}

set {
basis        aug-cc-pVTZ
scf_type     df
}

energy("sapt2+")
--------------------------------------------------------------------------

  //              Dimer HF             //
    Molecular point group: c1
  Charge       = 1
  Multiplicity = 1
  Basis Set: AUG-CC-PVTZ
    Blend: AUG-CC-PVTZ
  Basis Set: (AUG-CC-PVTZ AUX)
    Blend: AUG-CC-PVTZ-JKFIT + DEF2-UNIVERSAL-JKFIT
  @DF-RHF Final Energy:  -313.83741540079728
    Total Energy =                       -313.8374154007972265
 Dipole X            :         -0.0000000            0.0000000           -0.0000000
 Dipole Y            :          0.0000000            0.0000000            0.0000000
 Dipole Z            :          0.0000000            0.0000000            0.0000000
 Magnitude           :                                                    0.0000000
  //            Monomer A HF           //
    Molecular point group: c1
  Multiplicity = 1
  Basis Set: AUG-CC-PVTZ
    Blend: AUG-CC-PVTZ
  Basis Set: (AUG-CC-PVTZ AUX)
    Blend: AUG-CC-PVTZ-JKFIT + DEF2-UNIVERSAL-JKFIT
  @DF-RHF Final Energy:  -161.67604011054880
    Total Energy =                       -161.6760401105487972
  //            Monomer B HF           //
    Molecular point group: c1

    Geometry (in Angstrom), charge = 0, multiplicity = 1:

       Center              X                  Y                   Z               Mass
    ------------   -----------------  -----------------  -----------------  -----------------
      Gh(NA)          0.000000000000     0.000000000000     0.000000000000    22.989769282000
         O            3.352557000000     0.000000000000     0.000000000000    15.994914619570
         H            3.941515000000     0.759416000000     0.000000000000     1.007825032230
         H            3.941515000000    -0.759416000000     0.000000000000     1.007825032230
         O           -3.352557000000     0.000000000000     0.000000000000    15.994914619570
         H           -3.941515000000    -0.759416000000     0.000000000000     1.007825032230
         H           -3.941515000000     0.759416000000     0.000000000000     1.007825032230

  Charge       = 0
  Multiplicity = 1
  Basis Set: AUG-CC-PVTZ
    Blend: AUG-CC-PVTZ
  Basis Set: (AUG-CC-PVTZ AUX)
    Blend: AUG-CC-PVTZ-JKFIT + DEF2-UNIVERSAL-JKFIT

    Orbital Energies [Eh]
    ---------------------

    Doubly Occupied:

       1A    -20.563557     2A    -20.563557     3A     -1.347333
       4A     -1.347332     5A     -0.711182     6A     -0.711181
       7A     -0.579795     8A     -0.579775     9A     -0.505617
      10A     -0.505615

  @DF-RHF Final Energy:  -152.12010974052453

   => Energetics <=

    Nuclear Repulsion Energy =             25.9432504160498851
    One-Electron Energy =                -261.2968324690685336
    Two-Electron Energy =                  83.2334723124941291
    Total Energy =                       -152.1201097405245264
 Dipole X            :         -0.0000000            0.0000000           -0.0000000
 Dipole Y            :          0.0000000            0.0000000            0.0000000
 Dipole Z            :         -0.0000000            0.0000000           -0.0000000
 Magnitude           :                                                    0.0000000

    SAPT Results
  --------------------------------------------------------------------------------------------------------
    Electrostatics                -33.99744432 [mEh]     -21.33371839 [kcal/mol]     -89.26027776 [kJ/mol]
      Elst10,r                    -36.34544206 [mEh]     -22.80710922 [kcal/mol]     -95.42494499 [kJ/mol]
      Elst12,r                      2.34799774 [mEh]       1.47339083 [kcal/mol]       6.16466723 [kJ/mol]

    Exchange                        0.27052782 [mEh]       0.16975877 [kcal/mol]       0.71027068 [kJ/mol]
      Exch10                        0.21504086 [mEh]       0.13494018 [kcal/mol]       0.56458971 [kJ/mol]
      Exch10(S^2)                   0.21503624 [mEh]       0.13493728 [kcal/mol]       0.56457757 [kJ/mol]
      Exch11(S^2)                  -0.00118684 [mEh]      -0.00074475 [kcal/mol]      -0.00311605 [kJ/mol]
      Exch12(S^2)                   0.05667379 [mEh]       0.03556334 [kcal/mol]       0.14879702 [kJ/mol]

    Induction                      -5.67829228 [mEh]      -3.56318220 [kcal/mol]     -14.90835433 [kJ/mol]
      Ind20,r                      -5.21255427 [mEh]      -3.27092719 [kcal/mol]     -13.68555936 [kJ/mol]
      Ind22                        -0.57083072 [mEh]      -0.35820169 [kcal/mol]      -1.49871586 [kJ/mol]
      Exch-Ind20,r                  0.25282419 [mEh]       0.15864957 [kcal/mol]       0.66378981 [kJ/mol]
      Exch-Ind22                    0.02768697 [mEh]       0.01737383 [kcal/mol]       0.07269212 [kJ/mol]
      delta HF,r (2)               -0.17541844 [mEh]      -0.11007673 [kcal/mol]      -0.46056105 [kJ/mol]

    Dispersion                     -0.12349422 [mEh]      -0.07749379 [kcal/mol]      -0.32423402 [kJ/mol]
      Disp20                       -0.10236320 [mEh]      -0.06423388 [kcal/mol]      -0.26875453 [kJ/mol]
      Disp21                       -0.00696584 [mEh]      -0.00437113 [kcal/mol]      -0.01828881 [kJ/mol]
      Disp22 (SDQ)                 -0.00669703 [mEh]      -0.00420245 [kcal/mol]      -0.01758306 [kJ/mol]
      Disp22 (T)                   -0.00892358 [mEh]      -0.00559963 [kcal/mol]      -0.02342887 [kJ/mol]
      Est. Disp22 (T)              -0.01023630 [mEh]      -0.00642337 [kcal/mol]      -0.02687539 [kJ/mol]
      Exch-Disp20                   0.00276815 [mEh]       0.00173704 [kcal/mol]       0.00726778 [kJ/mol]

  Total HF                        -41.26554972 [mEh]     -25.89452339 [kcal/mol]    -108.34268587 [kJ/mol]
  Total SAPT0                     -41.36514477 [mEh]     -25.95702023 [kcal/mol]    -108.60417263 [kJ/mol]
  Total SAPT2                     -39.50480383 [mEh]     -24.78963866 [kcal/mol]    -103.71984816 [kJ/mol]
  Total SAPT2+                    -39.52870300 [mEh]     -24.80463562 [kcal/mol]    -103.78259542 [kJ/mol]

  Special recipe for scaled SAPT0 (see Manual):
    Electrostatics sSAPT0         -36.34544206 [mEh]     -22.80710922 [kcal/mol]     -95.42494499 [kJ/mol]
    Exchange sSAPT0                 0.21504086 [mEh]       0.13494018 [kcal/mol]       0.56458971 [kJ/mol]
    Induction sSAPT0               -5.13513222 [mEh]      -3.22234412 [kcal/mol]     -13.48228779 [kJ/mol]
    Dispersion sSAPT0              -0.09959487 [mEh]      -0.06249672 [kcal/mol]      -0.26148629 [kJ/mol]
  Total sSAPT0                    -41.36512829 [mEh]     -25.95700989 [kcal/mol]    -108.60412936 [kJ/mol]
  --------------------------------------------------------------------------------------------------------

*** Psi4 exiting successfully. Buy a developer a beer!
