                               Psi4 1.9 release

  ==> Input File <==

--------------------------------------------------------------------------
MEMORY 60 GB

molecule dimer {
1 1
Na     0.000000     0.000000     0.000000
--
0 1
O      2.682046     0.000000     0.000000
H      3.271004     0.759416     0.000000
H      3.271004    -0.759416     0.000000
O     -2.682046     0.000000     0.000000
H     -3.271004    -0.759416     0.000000
H     -3.271004     0.759416     0.000000

units ang
no_reorient
no_com
symmetry c1
}

set {
basis        aug-cc-pVTZ
scf_type     df
}

energy("sapt2+")
--------------------------------------------------------------------------

  //              Dimer HF             //
    Molecular point group: c1
  Charge       = 1
  Multiplicity = 1
  Basis Set: AUG-CC-PVTZ
    Blend: AUG-CC-PVTZ
  Basis Set: (AUG-CC-PVTZ AUX)
    Blend: AUG-CC-PVTZ-JKFIT + DEF2-UNIVERSAL-JKFIT
  @DF-RHF Final Energy:  -313.85864351952642
    Total Energy =                       -313.8586435195264244
 Dipole X            :          0.0000000            0.0000000            0.0000000
 Dipole Y            :         -0.0000000            0.0000000           -0.0000000
 Dipole Z            :          0.0000000            0.0000000            0.0000000
 Magnitude           :                                                    0.0000000
  //            Monomer A HF           //
    Molecular point group: c1
  Multiplicity = 1
  Basis Set: AUG-CC-PVTZ
    Blend: AUG-CC-PVTZ
  Basis Set: (AUG-CC-PVTZ AUX)
    Blend: AUG-CC-PVTZ-JKFIT + DEF2-UNIVERSAL-JKFIT
  @DF-RHF Final Energy:  -161.67604780306581
    Total Energy =                       -161.6760478030657850
  //            Monomer B HF           //
    Molecular point group: c1

    Geometry (in Angstrom), charge = 0, multiplicity = 1:

       Center              X                  Y                   Z               Mass
    ------------   -----------------  -----------------  -----------------  -----------------
      Gh(NA)          0.000000000000     0.000000000000     0.000000000000    22.989769282000
         O            2.682046000000     0.000000000000     0.000000000000    15.994914619570
         H            3.271004000000     0.759416000000     0.000000000000     1.007825032230
         H            3.271004000000    -0.759416000000     0.000000000000     1.007825032230
         O           -2.682046000000     0.000000000000     0.000000000000    15.994914619570
         H           -3.271004000000    -0.759416000000     0.000000000000     1.007825032230
         H           -3.271004000000     0.759416000000     0.000000000000     1.007825032230

  Charge       = 0
  Multiplicity = 1
  Basis Set: AUG-CC-PVTZ
    Blend: AUG-CC-PVTZ
  Basis Set: (AUG-CC-PVTZ AUX)
    Blend: AUG-CC-PVTZ-JKFIT + DEF2-UNIVERSAL-JKFIT

    Orbital Energies [Eh]
    ---------------------

    Doubly Occupied:

       1A    -20.561271     2A    -20.561271     3A     -1.345046
       4A     -1.345044     5A     -0.708915     6A     -0.708906
       7A     -0.577436     8A     -0.577136     9A     -0.503303
      10A     -0.503255

  @DF-RHF Final Energy:  -152.11967807754311

   => Energetics <=

    Nuclear Repulsion Energy =             27.7718530550677905
    One-Electron Energy =                -264.9998963769432407
    Two-Electron Energy =                  85.1083652443323331
    Total Energy =                       -152.1196780775431137
 Dipole X            :          0.0000000            0.0000000            0.0000000
 Dipole Y            :         -0.0000000            0.0000000           -0.0000000
 Dipole Z            :          0.0000000            0.0000000            0.0000000
 Magnitude           :                                                    0.0000000

    SAPT Results
  --------------------------------------------------------------------------------------------------------
    Electrostatics                -51.98338924 [mEh]     -32.62006923 [kcal/mol]    -136.48236965 [kJ/mol]
      Elst10,r                    -55.46624326 [mEh]     -34.80559312 [kcal/mol]    -145.62660163 [kJ/mol]
      Elst12,r                      3.48285402 [mEh]       2.18552389 [kcal/mol]       9.14423198 [kJ/mol]

    Exchange                        4.10286864 [mEh]       2.57458894 [kcal/mol]      10.77208014 [kJ/mol]
      Exch10                        3.56045119 [mEh]       2.23421685 [kcal/mol]       9.34796332 [kJ/mol]
      Exch10(S^2)                   3.55920782 [mEh]       2.23343663 [kcal/mol]       9.34469884 [kJ/mol]
      Exch11(S^2)                  -0.02803224 [mEh]      -0.01759049 [kcal/mol]      -0.07359863 [kJ/mol]
      Exch12(S^2)                   0.57044969 [mEh]       0.35796258 [kcal/mol]       1.49771545 [kJ/mol]

    Induction                     -12.34661333 [mEh]      -7.74761683 [kcal/mol]     -32.41602883 [kJ/mol]
      Ind20,r                     -14.99371178 [mEh]      -9.40869619 [kcal/mol]     -39.36598485 [kJ/mol]
      Ind22                        -1.77556966 [mEh]      -1.11418678 [kcal/mol]      -4.66175749 [kJ/mol]
      Exch-Ind20,r                  3.72234101 [mEh]       2.33580425 [kcal/mol]       9.77300497 [kJ/mol]
      Exch-Ind22                    0.44080317 [mEh]       0.27660817 [kcal/mol]       1.15732857 [kJ/mol]
      delta HF,r (2)                0.25952392 [mEh]       0.16285372 [kcal/mol]       0.68137997 [kJ/mol]

    Dispersion                     -0.49420513 [mEh]      -0.31011840 [kcal/mol]      -1.29753540 [kJ/mol]
      Disp20                       -0.43947610 [mEh]      -0.27577542 [kcal/mol]      -1.15384434 [kJ/mol]
      Disp21                       -0.02853557 [mEh]      -0.01790634 [kcal/mol]      -0.07492014 [kJ/mol]
      Disp22 (SDQ)                 -0.02649068 [mEh]      -0.01662315 [kcal/mol]      -0.06955127 [kJ/mol]
      Disp22 (T)                   -0.03484895 [mEh]      -0.02186804 [kcal/mol]      -0.09149589 [kJ/mol]
      Est. Disp22 (T)              -0.04190941 [mEh]      -0.02629855 [kcal/mol]      -0.11003314 [kJ/mol]
      Exch-Disp20                   0.04220663 [mEh]       0.02648506 [kcal/mol]       0.11081349 [kJ/mol]

  Total HF                        -62.91763892 [mEh]     -39.48141449 [kcal/mol]    -165.19023822 [kJ/mol]
  Total SAPT0                     -63.31490839 [mEh]     -39.73070484 [kcal/mol]    -166.23326907 [kJ/mol]
  Total SAPT2                     -60.62440340 [mEh]     -38.04238747 [kcal/mol]    -159.16934919 [kJ/mol]
  Total SAPT2+                    -60.72133906 [mEh]     -38.10321552 [kcal/mol]    -159.42385373 [kJ/mol]

  Special recipe for scaled SAPT0 (see Manual):
    Electrostatics sSAPT0         -55.46624326 [mEh]     -34.80559312 [kcal/mol]    -145.62660163 [kJ/mol]
    Exchange sSAPT0                 3.56045119 [mEh]       2.23421685 [kcal/mol]       9.34796332 [kJ/mol]
    Induction sSAPT0              -11.00794439 [mEh]      -6.90758939 [kcal/mol]     -28.90135403 [kJ/mol]
    Dispersion sSAPT0              -0.39722522 [mEh]      -0.24926259 [kcal/mol]      -1.04291467 [kJ/mol]
  Total sSAPT0                    -63.31096169 [mEh]     -39.72822825 [kcal/mol]    -166.22290701 [kJ/mol]
  --------------------------------------------------------------------------------------------------------

*** Psi4 exiting successfully. Buy a developer a beer!
