                               Psi4 1.9 release

  ==> Input File <==

--------------------------------------------------------------------------
MEMORY 60 GB

molecule dimer {
1 1
Na     0.000000     0.000000     0.000000
--
0 1
O      2.905549     0.000000     0.000000
H      3.494507     0.759416     0.000000
H      3.494507    -0.759416     0.000000
O     -2.905549     0.000000     0.000000
H     -3.494507    -0.759416     0.000000
H     -3.494507     0.759416     0.000000

units ang
no_reorient
no_com
symmetry c1
}

set {
basis        aug-cc-pVTZ
scf_type     df
}

energy("sapt2+")
--------------------------------------------------------------------------

  //              Dimer HF             //
    Molecular point group: c1
  Charge       = 1
  Multiplicity = 1
  Basis Set: AUG-CC-PVTZ
    Blend: AUG-CC-PVTZ
  Basis Set: (AUG-CC-PVTZ AUX)
    Blend: AUG-CC-PVTZ-JKFIT + DEF2-UNIVERSAL-JKFIT
  @DF-RHF Final Energy:  -313.85069303963473
    Total Energy =                       -313.8506930396347343
 Dipole X            :          0.0000000            0.0000000            0.0000000
 Dipole Y            :         -0.0000000            0.0000000           -0.0000000
 Dipole Z            :          0.0000000            0.0000000            0.0000000
 Magnitude           :                                                    0.0000000
  //            Monomer A HF           //
    Molecular point group: c1
  Multiplicity = 1
  Basis Set: AUG-CC-PVTZ
    Blend: AUG-CC-PVTZ
  Basis Set: (AUG-CC-PVTZ AUX)
    Blend: AUG-CC-PVTZ-JKFIT + DEF2-UNIVERSAL-JKFIT
  @DF-RHF Final Energy:  -161.67604465262207
    Total Energy =                       -161.6760446526220676
  //            Monomer B HF           //
    Molecular point group: c1

    Geometry (in Angstrom), charge = 0, multiplicity = 1:

       Center              X                  Y                   Z               Mass
    ------------   -----------------  -----------------  -----------------  -----------------
      Gh(NA)          0.000000000000     0.000000000000     0.000000000000    22.989769282000
         O            2.905549000000     0.000000000000     0.000000000000    15.994914619570
         H            3.494507000000     0.759416000000     0.000000000000     1.007825032230
         H            3.494507000000    -0.759416000000     0.000000000000     1.007825032230
         O           -2.905549000000     0.000000000000     0.000000000000    15.994914619570
         H           -3.494507000000    -0.759416000000     0.000000000000     1.007825032230
         H           -3.494507000000     0.759416000000     0.000000000000     1.007825032230

  Charge       = 0
  Multiplicity = 1
  Basis Set: AUG-CC-PVTZ
    Blend: AUG-CC-PVTZ
  Basis Set: (AUG-CC-PVTZ AUX)
    Blend: AUG-CC-PVTZ-JKFIT + DEF2-UNIVERSAL-JKFIT

    Orbital Energies [Eh]
    ---------------------

    Doubly Occupied:

       1A    -20.562200     2A    -20.562200     3A     -1.345972
       4A     -1.345972     5A     -0.709831     6A     -0.709827
       7A     -0.578368     8A     -0.578243     9A     -0.504234
      10A     -0.504215

  @DF-RHF Final Energy:  -152.11985706299990

   => Energetics <=

    Nuclear Repulsion Energy =             27.0719881582225668
    One-Electron Energy =                -263.5815699769771072
    Two-Electron Energy =                  84.3897247557546564
    Total Energy =                       -152.1198570629998983
 Dipole X            :          0.0000000            0.0000000            0.0000000
 Dipole Y            :         -0.0000000            0.0000000           -0.0000000
 Dipole Z            :          0.0000000            0.0000000            0.0000000
 Magnitude           :                                                    0.0000000

    SAPT Results
  --------------------------------------------------------------------------------------------------------
    Electrostatics                -44.56044964 [mEh]     -27.96210430 [kcal/mol]    -116.99344440 [kJ/mol]
      Elst10,r                    -47.60028689 [mEh]     -29.86963098 [kcal/mol]    -124.97453600 [kJ/mol]
      Elst12,r                      3.03983725 [mEh]       1.90752667 [kcal/mol]       7.98109160 [kJ/mol]

    Exchange                        1.64555303 [mEh]       1.03260012 [kcal/mol]       4.32039889 [kJ/mol]
      Exch10                        1.38563319 [mEh]       0.86949795 [kcal/mol]       3.63797943 [kJ/mol]
      Exch10(S^2)                   1.38544452 [mEh]       0.86937956 [kcal/mol]       3.63748409 [kJ/mol]
      Exch11(S^2)                  -0.00949490 [mEh]      -0.00595814 [kcal/mol]      -0.02492885 [kJ/mol]
      Exch12(S^2)                   0.26941475 [mEh]       0.16906031 [kcal/mol]       0.70734832 [kJ/mol]

    Induction                      -9.56180885 [mEh]      -6.00012564 [kcal/mol]     -25.10452568 [kJ/mol]
      Ind20,r                     -10.03215154 [mEh]      -6.29527013 [kcal/mol]     -26.33941023 [kJ/mol]
      Ind22                        -1.16067567 [mEh]      -0.72833498 [kcal/mol]      -3.04735355 [kJ/mol]
      Exch-Ind20,r                  1.51723273 [mEh]       0.95207791 [kcal/mol]       3.98349398 [kJ/mol]
      Exch-Ind22                    0.17553713 [mEh]       0.11015121 [kcal/mol]       0.46087268 [kJ/mol]
      delta HF,r (2)               -0.06175150 [mEh]      -0.03874965 [kcal/mol]      -0.16212855 [kJ/mol]

    Dispersion                     -0.30839665 [mEh]      -0.19352182 [kcal/mol]      -0.80969531 [kJ/mol]
      Disp20                       -0.26434498 [mEh]      -0.16587898 [kcal/mol]      -0.69403765 [kJ/mol]
      Disp21                       -0.01833766 [mEh]      -0.01150705 [kcal/mol]      -0.04814551 [kJ/mol]
      Disp22 (SDQ)                 -0.01653488 [mEh]      -0.01037580 [kcal/mol]      -0.04341233 [kJ/mol]
      Disp22 (T)                   -0.02215536 [mEh]      -0.01390270 [kcal/mol]      -0.05816889 [kJ/mol]
      Est. Disp22 (T)              -0.02585471 [mEh]      -0.01622408 [kcal/mol]      -0.06788154 [kJ/mol]
      Exch-Disp20                   0.01667558 [mEh]       0.01046408 [kcal/mol]       0.04378173 [kJ/mol]

  Total HF                        -54.79132401 [mEh]     -34.38207490 [kcal/mol]    -143.85460138 [kJ/mol]
  Total SAPT0                     -55.03899341 [mEh]     -34.53748979 [kcal/mol]    -144.50485730 [kJ/mol]
  Total SAPT2                     -52.72437485 [mEh]     -33.08504472 [kcal/mol]    -138.42782711 [kJ/mol]
  Total SAPT2+                    -52.78510211 [mEh]     -33.12315165 [kcal/mol]    -138.58726649 [kJ/mol]

  Special recipe for scaled SAPT0 (see Manual):
    Electrostatics sSAPT0         -47.60028689 [mEh]     -29.86963098 [kcal/mol]    -124.97453600 [kJ/mol]
    Exchange sSAPT0                 1.38563319 [mEh]       0.86949795 [kcal/mol]       3.63797943 [kJ/mol]
    Induction sSAPT0               -8.57605039 [mEh]      -5.38155287 [kcal/mol]     -22.51641720 [kJ/mol]
    Dispersion sSAPT0              -0.24766259 [mEh]      -0.15541062 [kcal/mol]      -0.65023803 [kJ/mol]
  Total sSAPT0                    -55.03836668 [mEh]     -34.53709651 [kcal/mol]    -144.50321181 [kJ/mol]
  --------------------------------------------------------------------------------------------------------

*** Psi4 exiting successfully. Buy a developer a beer!
