                               Psi4 1.9 release

  ==> Input File <==

--------------------------------------------------------------------------
MEMORY 60 GB

molecule dimer {
1 1
Na     0.000000     0.000000     0.000000
--
0 1
O      3.129053     0.000000     0.000000
H      3.718011     0.759416     0.000000
H      3.718011    -0.759416     0.000000
O     -3.129053     0.000000     0.000000
H     -3.718011    -0.759416     0.000000
H     -3.718011     0.759416     0.000000

units ang
no_reorient
no_com
symmetry c1
}

set {
basis        aug-cc-pVTZ
scf_type     df
}

energy("sapt2+")
--------------------------------------------------------------------------

  //              Dimer HF             //
    Molecular point group: c1
  Charge       = 1
  Multiplicity = 1
  Basis Set: AUG-CC-PVTZ
    Blend: AUG-CC-PVTZ
  Basis Set: (AUG-CC-PVTZ AUX)
    Blend: AUG-CC-PVTZ-JKFIT + DEF2-UNIVERSAL-JKFIT
  @DF-RHF Final Energy:  -313.84352561070494
    Total Energy =                       -313.8435256107049440
 Dipole X            :         -0.0000000            0.0000000           -0.0000000
 Dipole Y            :         -0.0000000            0.0000000           -0.0000000
 Dipole Z            :          0.0000000            0.0000000            0.0000000
 Magnitude           :                                                    0.0000000
  //            Monomer A HF           //
    Molecular point group: c1
  Multiplicity = 1
  Basis Set: AUG-CC-PVTZ
    Blend: AUG-CC-PVTZ
  Basis Set: (AUG-CC-PVTZ AUX)
    Blend: AUG-CC-PVTZ-JKFIT + DEF2-UNIVERSAL-JKFIT
  @DF-RHF Final Energy:  -161.67604303532357
    Total Energy =                       -161.6760430353235733
  //            Monomer B HF           //
    Molecular point group: c1

    Geometry (in Angstrom), charge = 0, multiplicity = 1:

       Center              X                  Y                   Z               Mass
    ------------   -----------------  -----------------  -----------------  -----------------
      Gh(NA)          0.000000000000     0.000000000000     0.000000000000    22.989769282000
         O            3.129053000000     0.000000000000     0.000000000000    15.994914619570
         H            3.718011000000     0.759416000000     0.000000000000     1.007825032230
         H            3.718011000000    -0.759416000000     0.000000000000     1.007825032230
         O           -3.129053000000     0.000000000000     0.000000000000    15.994914619570
         H           -3.718011000000    -0.759416000000     0.000000000000     1.007825032230
         H           -3.718011000000     0.759416000000     0.000000000000     1.007825032230

  Charge       = 0
  Multiplicity = 1
  Basis Set: AUG-CC-PVTZ
    Blend: AUG-CC-PVTZ
  Basis Set: (AUG-CC-PVTZ AUX)
    Blend: AUG-CC-PVTZ-JKFIT + DEF2-UNIVERSAL-JKFIT

    Orbital Energies [Eh]
    ---------------------

    Doubly Occupied:

       1A    -20.562948     2A    -20.562948     3A     -1.346721
       4A     -1.346720     5A     -0.710574     6A     -0.710572
       7A     -0.579146     8A     -0.579096     9A     -0.504993
      10A     -0.504987

  @DF-RHF Final Energy:  -152.11999686967243

   => Energetics <=

    Nuclear Repulsion Energy =             26.4686928033722495
    One-Electron Energy =                -262.3599683755144838
    Two-Electron Energy =                  83.7712787024698002
    Total Energy =                       -152.1199968696724341
 Dipole X            :         -0.0000000            0.0000000           -0.0000000
 Dipole Y            :         -0.0000000            0.0000000           -0.0000000
 Dipole Z            :         -0.0000000            0.0000000           -0.0000000
 Magnitude           :                                                    0.0000000

    SAPT Results
  --------------------------------------------------------------------------------------------------------
    Electrostatics                -38.72695168 [mEh]     -24.30152907 [kcal/mol]    -101.67759764 [kJ/mol]
      Elst10,r                    -41.39142458 [mEh]     -25.97351106 [kcal/mol]    -108.67317026 [kJ/mol]
      Elst12,r                      2.66447290 [mEh]       1.67198198 [kcal/mol]       6.99557262 [kJ/mol]

    Exchange                        0.66409669 [mEh]       0.41672696 [kcal/mol]       1.74358561 [kJ/mol]
      Exch10                        0.54293655 [mEh]       0.34069783 [kcal/mol]       1.42547973 [kJ/mol]
      Exch10(S^2)                   0.54290746 [mEh]       0.34067958 [kcal/mol]       1.42540335 [kJ/mol]
      Exch11(S^2)                  -0.00329556 [mEh]      -0.00206800 [kcal/mol]      -0.00865249 [kJ/mol]
      Exch12(S^2)                   0.12445570 [mEh]       0.07809713 [kcal/mol]       0.32675838 [kJ/mol]

    Induction                      -7.36420199 [mEh]      -4.62110652 [kcal/mol]     -19.33470966 [kJ/mol]
      Ind20,r                      -7.08672632 [mEh]      -4.44698790 [kcal/mol]     -18.60619739 [kJ/mol]
      Ind22                        -0.79647819 [mEh]      -0.49979761 [kcal/mol]      -2.09115320 [kJ/mol]
      Exch-Ind20,r                  0.61832720 [mEh]       0.38800618 [kcal/mol]       1.62341784 [kJ/mol]
      Exch-Ind22                    0.06949388 [mEh]       0.04360807 [kcal/mol]       0.18245616 [kJ/mol]
      delta HF,r (2)               -0.16881856 [mEh]      -0.10593525 [kcal/mol]      -0.44323308 [kJ/mol]

    Dispersion                     -0.19396119 [mEh]      -0.12171249 [kcal/mol]      -0.50924504 [kJ/mol]
      Disp20                       -0.16269731 [mEh]      -0.10209410 [kcal/mol]      -0.42716172 [kJ/mol]
      Disp21                       -0.01137251 [mEh]      -0.00713636 [kcal/mol]      -0.02985852 [kJ/mol]
      Disp22 (SDQ)                 -0.01046906 [mEh]      -0.00656943 [kcal/mol]      -0.02748650 [kJ/mol]
      Disp22 (T)                   -0.01400317 [mEh]      -0.00878712 [kcal/mol]      -0.03676532 [kJ/mol]
      Est. Disp22 (T)              -0.01616451 [mEh]      -0.01014338 [kcal/mol]      -0.04243992 [kJ/mol]
      Exch-Disp20                   0.00674219 [mEh]       0.00423079 [kcal/mol]       0.01770162 [kJ/mol]

  Total HF                        -47.48570571 [mEh]     -29.79773020 [kcal/mol]    -124.67370316 [kJ/mol]
  Total SAPT0                     -47.64166083 [mEh]     -29.89559351 [kcal/mol]    -125.08316327 [kJ/mol]
  Total SAPT2                     -45.58301210 [mEh]     -28.60377194 [kcal/mol]    -119.67818179 [kJ/mol]
  Total SAPT2+                    -45.62101818 [mEh]     -28.62762111 [kcal/mol]    -119.77796673 [kJ/mol]

  Special recipe for scaled SAPT0 (see Manual):
    Electrostatics sSAPT0         -41.39142458 [mEh]     -25.97351106 [kcal/mol]    -108.67317026 [kJ/mol]
    Exchange sSAPT0                 0.54293655 [mEh]       0.34069783 [kcal/mol]       1.42547973 [kJ/mol]
    Induction sSAPT0               -6.63711829 [mEh]      -4.16485460 [kcal/mol]     -17.42575166 [kJ/mol]
    Dispersion sSAPT0              -0.15595403 [mEh]      -0.09786263 [kcal/mol]      -0.40945726 [kJ/mol]
  Total sSAPT0                    -47.64156035 [mEh]     -29.89553046 [kcal/mol]    -125.08289946 [kJ/mol]
  --------------------------------------------------------------------------------------------------------

*** Psi4 exiting successfully. Buy a developer a beer!
