                               Psi4 1.9 release

  ==> Input File <==

--------------------------------------------------------------------------
MEMORY 60 GB

molecule dimer {
1 1
Na     0.000000     0.000000     0.000000
--
0 1
O      4.470076     0.000000     0.000000
H      5.059034     0.759416     0.000000
H      5.059034    -0.759416     0.000000
O     -4.470076     0.000000     0.000000
H     -5.059034    -0.759416     0.000000
H     -5.059034     0.759416     0.000000

units ang
no_reorient
no_com
symmetry c1
}

set {
basis        aug-cc-pVTZ
scf_type     df
}

energy("sapt2+")
--------------------------------------------------------------------------

  //              Dimer HF             //
    Molecular point group: c1
  Charge       = 1
  Multiplicity = 1
  Basis Set: AUG-CC-PVTZ
    Blend: AUG-CC-PVTZ
  Basis Set: (AUG-CC-PVTZ AUX)
    Blend: AUG-CC-PVTZ-JKFIT + DEF2-UNIVERSAL-JKFIT
  @DF-RHF Final Energy:  -313.81901589019481
    Total Energy =                       -313.8190158901948053
 Dipole X            :          0.0000000           -0.0000000            0.0000000
 Dipole Y            :          0.0000000            0.0000000            0.0000000
 Dipole Z            :         -0.0000000            0.0000000           -0.0000000
 Magnitude           :                                                    0.0000000
  //            Monomer A HF           //
    Molecular point group: c1
  Multiplicity = 1
  Basis Set: AUG-CC-PVTZ
    Blend: AUG-CC-PVTZ
  Basis Set: (AUG-CC-PVTZ AUX)
    Blend: AUG-CC-PVTZ-JKFIT + DEF2-UNIVERSAL-JKFIT
  @DF-RHF Final Energy:  -161.67602826262407
    Total Energy =                       -161.6760282626240723
  //            Monomer B HF           //
    Molecular point group: c1

    Geometry (in Angstrom), charge = 0, multiplicity = 1:

       Center              X                  Y                   Z               Mass
    ------------   -----------------  -----------------  -----------------  -----------------
      Gh(NA)          0.000000000000     0.000000000000     0.000000000000    22.989769282000
         O            4.470076000000     0.000000000000     0.000000000000    15.994914619570
         H            5.059034000000     0.759416000000     0.000000000000     1.007825032230
         H            5.059034000000    -0.759416000000     0.000000000000     1.007825032230
         O           -4.470076000000     0.000000000000     0.000000000000    15.994914619570
         H           -5.059034000000    -0.759416000000     0.000000000000     1.007825032230
         H           -5.059034000000     0.759416000000     0.000000000000     1.007825032230

  Charge       = 0
  Multiplicity = 1
  Basis Set: AUG-CC-PVTZ
    Blend: AUG-CC-PVTZ
  Basis Set: (AUG-CC-PVTZ AUX)
    Blend: AUG-CC-PVTZ-JKFIT + DEF2-UNIVERSAL-JKFIT

    Orbital Energies [Eh]
    ---------------------

    Doubly Occupied:

       1A    -20.565394     2A    -20.565394     3A     -1.349184
       4A     -1.349184     5A     -0.713027     6A     -0.713027
       7A     -0.581777     8A     -0.581777     9A     -0.507506
      10A     -0.507506

  @DF-RHF Final Energy:  -152.12041478863992

   => Energetics <=

    Nuclear Repulsion Energy =             24.0848044916912407
    One-Electron Energy =                -257.5428892645340397
    Two-Electron Energy =                  81.3376699842028756
    Total Energy =                       -152.1204147886399198
 Dipole X            :          0.0000000           -0.0000000            0.0000000
 Dipole Y            :          0.0000000            0.0000000            0.0000000
 Dipole Z            :          0.0000000            0.0000000            0.0000000
 Magnitude           :                                                    0.0000000

    SAPT Results
  --------------------------------------------------------------------------------------------------------
    Electrostatics                -19.61369835 [mEh]     -12.30778153 [kcal/mol]     -51.49575791 [kJ/mol]
      Elst10,r                    -20.97128128 [mEh]     -13.15967768 [kcal/mol]     -55.06009141 [kJ/mol]
      Elst12,r                      1.35758293 [mEh]       0.85189615 [kcal/mol]       3.56433350 [kJ/mol]

    Exchange                        0.00338756 [mEh]       0.00212573 [kcal/mol]       0.00889404 [kJ/mol]
      Exch10                        0.00245864 [mEh]       0.00154282 [kcal/mol]       0.00645515 [kJ/mol]
      Exch10(S^2)                   0.00245864 [mEh]       0.00154282 [kcal/mol]       0.00645515 [kJ/mol]
      Exch11(S^2)                  -0.00001178 [mEh]      -0.00000740 [kcal/mol]      -0.00003094 [kJ/mol]
      Exch12(S^2)                   0.00094071 [mEh]       0.00059030 [kcal/mol]       0.00246983 [kJ/mol]

    Induction                      -1.76661747 [mEh]      -1.10856920 [kcal/mol]      -4.63825353 [kJ/mol]
      Ind20,r                      -1.57058643 [mEh]      -0.98555787 [kcal/mol]      -4.12357412 [kJ/mol]
      Ind22                        -0.16293807 [mEh]      -0.10224518 [kcal/mol]      -0.42779385 [kJ/mol]
      Exch-Ind20,r                  0.00324734 [mEh]       0.00203774 [kcal/mol]       0.00852590 [kJ/mol]
      Exch-Ind22                    0.00033689 [mEh]       0.00021140 [kcal/mol]       0.00088451 [kJ/mol]
      delta HF,r (2)               -0.03667720 [mEh]      -0.02301529 [kcal/mol]      -0.09629597 [kJ/mol]

    Dispersion                     -0.01845825 [mEh]      -0.01158272 [kcal/mol]      -0.04846212 [kJ/mol]
      Disp20                       -0.01518597 [mEh]      -0.00952934 [kcal/mol]      -0.03987076 [kJ/mol]
      Disp21                       -0.00076250 [mEh]      -0.00047848 [kcal/mol]      -0.00200195 [kJ/mol]
      Disp22 (SDQ)                 -0.00095876 [mEh]      -0.00060163 [kcal/mol]      -0.00251721 [kJ/mol]
      Disp22 (T)                   -0.00148482 [mEh]      -0.00093174 [kcal/mol]      -0.00389840 [kJ/mol]
      Est. Disp22 (T)              -0.00158326 [mEh]      -0.00099351 [kcal/mol]      -0.00415685 [kJ/mol]
      Exch-Disp20                   0.00003225 [mEh]       0.00002023 [kcal/mol]       0.00008466 [kJ/mol]

  Total HF                        -22.57283893 [mEh]     -14.16467028 [kcal/mol]     -59.26498045 [kJ/mol]
  Total SAPT0                     -22.58799265 [mEh]     -14.17417938 [kcal/mol]     -59.30476654 [kJ/mol]
  Total SAPT2                     -21.39208198 [mEh]     -13.42373411 [kcal/mol]     -56.16490350 [kJ/mol]
  Total SAPT2+                    -21.39538650 [mEh]     -13.42580773 [kcal/mol]     -56.17357952 [kJ/mol]

  Special recipe for scaled SAPT0 (see Manual):
    Electrostatics sSAPT0         -20.97128128 [mEh]     -13.15967768 [kcal/mol]     -55.06009141 [kJ/mol]
    Exchange sSAPT0                 0.00245864 [mEh]       0.00154282 [kcal/mol]       0.00645515 [kJ/mol]
    Induction sSAPT0               -1.60401629 [mEh]      -1.00653542 [kcal/mol]      -4.21134419 [kJ/mol]
    Dispersion sSAPT0              -0.01515372 [mEh]      -0.00950911 [kcal/mol]      -0.03978610 [kJ/mol]
  Total sSAPT0                    -22.58799265 [mEh]     -14.17417938 [kcal/mol]     -59.30476654 [kJ/mol]
  --------------------------------------------------------------------------------------------------------

*** Psi4 exiting successfully. Buy a developer a beer!
