                               Psi4 1.9 release

  ==> Input File <==

--------------------------------------------------------------------------
MEMORY 60 GB

molecule dimer {
1 1
Na     0.000000     0.000000     0.000000
--
0 1
O      2.458542     0.000000     0.000000
H      3.047500     0.759416     0.000000
H      3.047500    -0.759416     0.000000
O     -2.458542     0.000000     0.000000
H     -3.047500    -0.759416     0.000000
H     -3.047500     0.759416     0.000000

units ang
no_reorient
no_com
symmetry c1
}

set {
basis        aug-cc-pVTZ
scf_type     df
}

energy("sapt2+")
--------------------------------------------------------------------------

  //              Dimer HF             //
    Molecular point group: c1
  Charge       = 1
  Multiplicity = 1
  Basis Set: AUG-CC-PVTZ
    Blend: AUG-CC-PVTZ
  Basis Set: (AUG-CC-PVTZ AUX)
    Blend: AUG-CC-PVTZ-JKFIT + DEF2-UNIVERSAL-JKFIT
  @DF-RHF Final Energy:  -313.86616249894274
    Total Energy =                       -313.8661624989426855
 Dipole X            :          0.0000000            0.0000000            0.0000000
 Dipole Y            :         -0.0000000            0.0000000           -0.0000000
 Dipole Z            :          0.0000000            0.0000000            0.0000000
 Magnitude           :                                                    0.0000000
  //            Monomer A HF           //
    Molecular point group: c1
  Multiplicity = 1
  Basis Set: AUG-CC-PVTZ
    Blend: AUG-CC-PVTZ
  Basis Set: (AUG-CC-PVTZ AUX)
    Blend: AUG-CC-PVTZ-JKFIT + DEF2-UNIVERSAL-JKFIT
  @DF-RHF Final Energy:  -161.67605249253816
    Total Energy =                       -161.6760524925381617
  //            Monomer B HF           //
    Molecular point group: c1

    Geometry (in Angstrom), charge = 0, multiplicity = 1:

       Center              X                  Y                   Z               Mass
    ------------   -----------------  -----------------  -----------------  -----------------
      Gh(NA)          0.000000000000     0.000000000000     0.000000000000    22.989769282000
         O            2.458542000000     0.000000000000     0.000000000000    15.994914619570
         H            3.047500000000     0.759416000000     0.000000000000     1.007825032230
         H            3.047500000000    -0.759416000000     0.000000000000     1.007825032230
         O           -2.458542000000     0.000000000000     0.000000000000    15.994914619570
         H           -3.047500000000    -0.759416000000     0.000000000000     1.007825032230
         H           -3.047500000000     0.759416000000     0.000000000000     1.007825032230

  Charge       = 0
  Multiplicity = 1
  Basis Set: AUG-CC-PVTZ
    Blend: AUG-CC-PVTZ
  Basis Set: (AUG-CC-PVTZ AUX)
    Blend: AUG-CC-PVTZ-JKFIT + DEF2-UNIVERSAL-JKFIT

    Orbital Energies [Eh]
    ---------------------

    Doubly Occupied:

       1A    -20.560106     2A    -20.560106     3A     -1.343890
       4A     -1.343881     5A     -0.707776     6A     -0.707755
       7A     -0.576345     8A     -0.575637     9A     -0.502158
      10A     -0.502042

  @DF-RHF Final Energy:  -152.11943123973089

   => Energetics <=

    Nuclear Repulsion Energy =             28.5935545490234659
    One-Electron Energy =                -266.6665788847369640
    Two-Electron Energy =                  85.9535930959826544
    Total Energy =                       -152.1194312397308579
 Dipole X            :          0.0000000            0.0000000            0.0000000
 Dipole Y            :         -0.0000000            0.0000000           -0.0000000
 Dipole Z            :          0.0000000            0.0000000            0.0000000
 Magnitude           :                                                    0.0000000

    SAPT Results
  --------------------------------------------------------------------------------------------------------
    Electrostatics                -61.88251641 [mEh]     -38.83186531 [kcal/mol]    -162.47252446 [kJ/mol]
      Elst10,r                    -65.88747450 [mEh]     -41.34501445 [kcal/mol]    -172.98754046 [kJ/mol]
      Elst12,r                      4.00495809 [mEh]       2.51314914 [kcal/mol]      10.51501601 [kJ/mol]

    Exchange                       10.25102347 [mEh]       6.43261434 [kcal/mol]      26.91405840 [kJ/mol]
      Exch10                        9.16567102 [mEh]       5.75154540 [kcal/mol]      24.06446595 [kJ/mol]
      Exch10(S^2)                   9.15747478 [mEh]       5.74640218 [kcal/mol]      24.04294671 [kJ/mol]
      Exch11(S^2)                  -0.08383300 [mEh]      -0.05260600 [kcal/mol]      -0.22010351 [kJ/mol]
      Exch12(S^2)                   1.16918544 [mEh]       0.73367494 [kcal/mol]       3.06969596 [kJ/mol]

    Induction                     -15.72752442 [mEh]      -9.86917057 [kcal/mol]     -41.29260967 [kJ/mol]
      Ind20,r                     -24.01882594 [mEh]     -15.07204083 [kcal/mol]     -63.06141882 [kJ/mol]
      Ind22                        -2.85177603 [mEh]      -1.78951648 [kcal/mol]      -7.48733694 [kJ/mol]
      Exch-Ind20,r                  9.10643404 [mEh]       5.71437363 [kcal/mol]      23.90893928 [kJ/mol]
      Exch-Ind22                    1.08121481 [mEh]       0.67847254 [kcal/mol]       2.83872909 [kJ/mol]
      delta HF,r (2)                0.95542870 [mEh]       0.59954056 [kcal/mol]       2.50847771 [kJ/mol]

    Dispersion                     -0.80685948 [mEh]      -0.50631197 [kcal/mol]      -2.11840928 [kJ/mol]
      Disp20                       -0.76073810 [mEh]      -0.47737036 [kcal/mol]      -1.99731759 [kJ/mol]
      Disp21                       -0.04142304 [mEh]      -0.02599335 [kcal/mol]      -0.10875619 [kJ/mol]
      Disp22 (SDQ)                 -0.04415772 [mEh]      -0.02770939 [kcal/mol]      -0.11593609 [kJ/mol]
      Disp22 (T)                   -0.05686850 [mEh]      -0.03568552 [kcal/mol]      -0.14930822 [kJ/mol]
      Est. Disp22 (T)              -0.07081325 [mEh]      -0.04443598 [kcal/mol]      -0.18592015 [kJ/mol]
      Exch-Disp20                   0.11027263 [mEh]       0.06919712 [kcal/mol]       0.28952075 [kJ/mol]

  Total HF                        -70.67876667 [mEh]     -44.35159568 [kcal/mol]    -185.56707634 [kJ/mol]
  Total SAPT0                     -71.32923214 [mEh]     -44.75976892 [kcal/mol]    -187.27487318 [kJ/mol]
  Total SAPT2                     -68.00948283 [mEh]     -42.67659478 [kcal/mol]    -178.55887257 [kJ/mol]
  Total SAPT2+                    -68.16587685 [mEh]     -42.77473351 [kcal/mol]    -178.96948500 [kJ/mol]

  Special recipe for scaled SAPT0 (see Manual):
    Electrostatics sSAPT0         -65.88747450 [mEh]     -41.34501445 [kcal/mol]    -172.98754046 [kJ/mol]
    Exchange sSAPT0                 9.16567102 [mEh]       5.75154540 [kcal/mol]      24.06446595 [kJ/mol]
    Induction sSAPT0              -13.93248961 [mEh]      -8.74276923 [kcal/mol]     -36.57974644 [kJ/mol]
    Dispersion sSAPT0              -0.65016911 [mEh]      -0.40798727 [kcal/mol]      -1.70701876 [kJ/mol]
  Total sSAPT0                    -71.30446220 [mEh]     -44.74422555 [kcal/mol]    -187.20983971 [kJ/mol]
  --------------------------------------------------------------------------------------------------------

*** Psi4 exiting successfully. Buy a developer a beer!
