                               Psi4 1.9 release

  ==> Input File <==

--------------------------------------------------------------------------
MEMORY 60 GB

molecule dimer {
1 1
K      0.000000     0.000000     0.000000
--
0 1
O      2.272676     0.000000     0.000000
H      2.865846     0.755912     0.000000
H      2.865846    -0.755912     0.000000
O     -2.272676     0.000000     0.000000
H     -2.865846    -0.755912     0.000000
H     -2.865846     0.755912     0.000000

units ang
no_reorient
no_com
symmetry c1
}

set {
basis        aug-cc-pVTZ
scf_type     df
}

energy("sapt2+")
--------------------------------------------------------------------------

  //              Dimer HF             //
    Molecular point group: c1
  Charge       = 1
  Multiplicity = 1
  Basis Set: AUG-CC-PVTZ
    Blend: AUG-CC-PVTZ
  Basis Set: (AUG-CC-PVTZ AUX)
    Blend: AUG-CC-PVTZ-JKFIT + DEF2-UNIVERSAL-JKFIT
  @DF-RHF Final Energy:  -751.16387364002276
    Total Energy =                       -751.1638736400227572
 Dipole X            :         -0.0000000            0.0000000           -0.0000000
 Dipole Y            :         -0.0000000            0.0000000           -0.0000000
 Dipole Z            :         -0.0000000            0.0000000           -0.0000000
 Magnitude           :                                                    0.0000000
  //            Monomer A HF           //
    Molecular point group: c1
  Multiplicity = 1
  Basis Set: AUG-CC-PVTZ
    Blend: AUG-CC-PVTZ
  Basis Set: (AUG-CC-PVTZ AUX)
    Blend: AUG-CC-PVTZ-JKFIT + DEF2-UNIVERSAL-JKFIT
  @DF-RHF Final Energy:  -599.01751198499574
    Total Energy =                       -599.0175119849957355
  //            Monomer B HF           //
    Molecular point group: c1

    Geometry (in Angstrom), charge = 0, multiplicity = 1:

       Center              X                  Y                   Z               Mass
    ------------   -----------------  -----------------  -----------------  -----------------
      Gh(K)           0.000000000000     0.000000000000     0.000000000000    38.963706486400
         O            2.272676000000     0.000000000000     0.000000000000    15.994914619570
         H            2.865846000000     0.755912000000     0.000000000000     1.007825032230
         H            2.865846000000    -0.755912000000     0.000000000000     1.007825032230
         O           -2.272676000000     0.000000000000     0.000000000000    15.994914619570
         H           -2.865846000000    -0.755912000000     0.000000000000     1.007825032230
         H           -2.865846000000     0.755912000000     0.000000000000     1.007825032230

  Charge       = 0
  Multiplicity = 1
  Basis Set: AUG-CC-PVTZ
    Blend: AUG-CC-PVTZ
  Basis Set: (AUG-CC-PVTZ AUX)
    Blend: AUG-CC-PVTZ-JKFIT + DEF2-UNIVERSAL-JKFIT

    Orbital Energies [Eh]
    ---------------------

    Doubly Occupied:

       1A    -20.559214     2A    -20.559214     3A     -1.343288
       4A     -1.343260     5A     -0.705450     6A     -0.705408
       7A     -0.576659     8A     -0.575233     9A     -0.501215
      10A     -0.500989

  @DF-RHF Final Energy:  -152.11898491888181

   => Energetics <=

    Nuclear Repulsion Energy =             29.3980113208338238
    One-Electron Energy =                -268.2941317543056812
    Two-Electron Energy =                  86.7771355145900287
    Total Energy =                       -152.1189849188818357
 Dipole X            :         -0.0000000            0.0000000           -0.0000000
 Dipole Y            :         -0.0000000            0.0000000           -0.0000000
 Dipole Z            :         -0.0000000            0.0000000           -0.0000000
 Magnitude           :                                                    0.0000000

    SAPT Results
  --------------------------------------------------------------------------------------------------------
    Electrostatics                -94.07454441 [mEh]     -59.03266786 [kcal/mol]    -246.99268232 [kJ/mol]
      Elst10,r                    -96.66540273 [mEh]     -60.65845600 [kcal/mol]    -253.79497991 [kJ/mol]
      Elst12,r                      2.59085832 [mEh]       1.62578814 [kcal/mol]       6.80229759 [kJ/mol]

    Exchange                       93.70243269 [mEh]      58.79916423 [kcal/mol]     246.01570314 [kJ/mol]
      Exch10                       89.02862612 [mEh]      55.86630633 [kcal/mol]     233.74462567 [kJ/mol]
      Exch10(S^2)                  87.46198430 [mEh]      54.88322374 [kcal/mol]     229.63140815 [kJ/mol]
      Exch11(S^2)                  -0.02311709 [mEh]      -0.01450619 [kcal/mol]      -0.06069391 [kJ/mol]
      Exch12(S^2)                   4.69692366 [mEh]       2.94736410 [kcal/mol]      12.33177138 [kJ/mol]

    Induction                     -22.19375970 [mEh]     -13.92679447 [kcal/mol]     -58.26970806 [kJ/mol]
      Ind20,r                     -88.48452180 [mEh]     -55.52487571 [kcal/mol]    -232.31607999 [kJ/mol]
      Ind22                       -11.49122838 [mEh]      -7.21085468 [kcal/mol]     -30.17021596 [kJ/mol]
      Exch-Ind20,r                 69.58981992 [mEh]      43.66827128 [kcal/mol]     182.70804703 [kJ/mol]
      Exch-Ind22                    9.03742821 [mEh]       5.67107182 [kcal/mol]      23.72776451 [kJ/mol]
      delta HF,r (2)               -0.84525765 [mEh]      -0.53040718 [kcal/mol]      -2.21922365 [kJ/mol]

    Dispersion                    -10.82826478 [mEh]      -6.79483873 [kcal/mol]     -28.42960526 [kJ/mol]
      Disp20                      -14.17497474 [mEh]      -8.89493094 [kcal/mol]     -37.21639105 [kJ/mol]
      Disp21                        1.81101246 [mEh]       1.13642748 [kcal/mol]       4.75481257 [kJ/mol]
      Disp22 (SDQ)                 -0.06809001 [mEh]      -0.04272713 [kcal/mol]      -0.17877030 [kJ/mol]
      Disp22 (T)                   -1.28269309 [mEh]      -0.80490207 [kcal/mol]      -3.36771025 [kJ/mol]
      Est. Disp22 (T)              -1.41301903 [mEh]      -0.88668283 [kcal/mol]      -3.70988095 [kJ/mol]
      Exch-Disp20                   3.01680654 [mEh]       1.89307468 [kcal/mol]       7.92062447 [kJ/mol]

  Total HF                        -27.37673615 [mEh]     -17.17916129 [kcal/mol]     -71.87761085 [kJ/mol]
  Total SAPT0                     -38.53490435 [mEh]     -24.18101755 [kcal/mol]    -101.17337743 [kJ/mol]
  Total SAPT2                     -33.72403962 [mEh]     -21.16215436 [kcal/mol]     -88.54245383 [kJ/mol]
  Total SAPT2+                    -33.39413620 [mEh]     -20.95513683 [kcal/mol]     -87.67629250 [kJ/mol]

  Special recipe for scaled SAPT0 (see Manual):
    Electrostatics sSAPT0         -96.66540273 [mEh]     -60.65845600 [kcal/mol]    -253.79497991 [kJ/mol]
    Exchange sSAPT0                89.02862612 [mEh]      55.86630633 [kcal/mol]     233.74462567 [kJ/mol]
    Induction sSAPT0              -15.93304323 [mEh]      -9.99813557 [kcal/mol]     -41.83219923 [kJ/mol]
    Dispersion sSAPT0             -10.99313358 [mEh]      -6.89829547 [kcal/mol]     -28.86246823 [kJ/mol]
  Total sSAPT0                    -34.56295342 [mEh]     -21.68858071 [kcal/mol]     -90.74502170 [kJ/mol]
  --------------------------------------------------------------------------------------------------------

*** Psi4 exiting successfully. Buy a developer a beer!
