                               Psi4 1.9 release

  ==> Input File <==

--------------------------------------------------------------------------
MEMORY 60 GB

molecule dimer {
1 1
K      0.000000     0.000000     0.000000
--
0 1
O      5.050390     0.000000     0.000000
H      5.643561     0.755912     0.000000
H      5.643561    -0.755912     0.000000
O     -5.050390     0.000000     0.000000
H     -5.643561    -0.755912     0.000000
H     -5.643561     0.755912     0.000000

units ang
no_reorient
no_com
symmetry c1
}

set {
basis        aug-cc-pVTZ
scf_type     df
}

energy("sapt2+")
--------------------------------------------------------------------------

  //              Dimer HF             //
    Molecular point group: c1
  Charge       = 1
  Multiplicity = 1
  Basis Set: AUG-CC-PVTZ
    Blend: AUG-CC-PVTZ
  Basis Set: (AUG-CC-PVTZ AUX)
    Blend: AUG-CC-PVTZ-JKFIT + DEF2-UNIVERSAL-JKFIT
  @DF-RHF Final Energy:  -751.15547080492547
    Total Energy =                       -751.1554708049254714
 Dipole X            :          0.0000000           -0.0000000            0.0000000
 Dipole Y            :         -0.0000000            0.0000000           -0.0000000
 Dipole Z            :         -0.0000000            0.0000000           -0.0000000
 Magnitude           :                                                    0.0000000
  //            Monomer A HF           //
    Molecular point group: c1
  Multiplicity = 1
  Basis Set: AUG-CC-PVTZ
    Blend: AUG-CC-PVTZ
  Basis Set: (AUG-CC-PVTZ AUX)
    Blend: AUG-CC-PVTZ-JKFIT + DEF2-UNIVERSAL-JKFIT
  @DF-RHF Final Energy:  -599.01750641928356
    Total Energy =                       -599.0175064192835634
  //            Monomer B HF           //
    Molecular point group: c1

    Geometry (in Angstrom), charge = 0, multiplicity = 1:

       Center              X                  Y                   Z               Mass
    ------------   -----------------  -----------------  -----------------  -----------------
      Gh(K)           0.000000000000     0.000000000000     0.000000000000    38.963706486400
         O            5.050390000000     0.000000000000     0.000000000000    15.994914619570
         H            5.643561000000     0.755912000000     0.000000000000     1.007825032230
         H            5.643561000000    -0.755912000000     0.000000000000     1.007825032230
         O           -5.050390000000     0.000000000000     0.000000000000    15.994914619570
         H           -5.643561000000    -0.755912000000     0.000000000000     1.007825032230
         H           -5.643561000000     0.755912000000     0.000000000000     1.007825032230

  Charge       = 0
  Multiplicity = 1
  Basis Set: AUG-CC-PVTZ
    Blend: AUG-CC-PVTZ
  Basis Set: (AUG-CC-PVTZ AUX)
    Blend: AUG-CC-PVTZ-JKFIT + DEF2-UNIVERSAL-JKFIT

    Orbital Energies [Eh]
    ---------------------

    Doubly Occupied:

       1A    -20.566172     2A    -20.566172     3A     -1.350269
       4A     -1.350269     5A     -0.712377     6A     -0.712377
       7A     -0.583648     8A     -0.583648     9A     -0.508248
      10A     -0.508248

  @DF-RHF Final Energy:  -152.12040640389350

   => Energetics <=

    Nuclear Repulsion Energy =             23.4426632241114383
    One-Electron Energy =                -256.2432814071374310
    Two-Electron Energy =                  80.6802117791324775
    Total Energy =                       -152.1204064038935257
 Dipole X            :          0.0000000           -0.0000000            0.0000000
 Dipole Y            :         -0.0000000            0.0000000           -0.0000000
 Dipole Z            :         -0.0000000            0.0000000           -0.0000000
 Magnitude           :                                                    0.0000000

    SAPT Results
  --------------------------------------------------------------------------------------------------------
    Electrostatics                -15.53681619 [mEh]      -9.74949935 [kcal/mol]     -40.79190528 [kJ/mol]
      Elst10,r                    -16.58766608 [mEh]     -10.40891761 [kcal/mol]     -43.55091128 [kJ/mol]
      Elst12,r                      1.05084989 [mEh]       0.65941826 [kcal/mol]       2.75900600 [kJ/mol]

    Exchange                        0.00207883 [mEh]       0.00130449 [kcal/mol]       0.00545798 [kJ/mol]
      Exch10                        0.00158346 [mEh]       0.00099364 [kcal/mol]       0.00415738 [kJ/mol]
      Exch10(S^2)                   0.00158346 [mEh]       0.00099364 [kcal/mol]       0.00415737 [kJ/mol]
      Exch11(S^2)                   0.00001058 [mEh]       0.00000664 [kcal/mol]       0.00002777 [kJ/mol]
      Exch12(S^2)                   0.00048480 [mEh]       0.00030421 [kcal/mol]       0.00127284 [kJ/mol]

    Induction                      -1.07386421 [mEh]      -0.67385997 [kcal/mol]      -2.81943010 [kJ/mol]
      Ind20,r                      -0.96005627 [mEh]      -0.60244440 [kcal/mol]      -2.52062739 [kJ/mol]
      Ind22                        -0.10210362 [mEh]      -0.06407099 [kcal/mol]      -0.26807303 [kJ/mol]
      Exch-Ind20,r                  0.00130271 [mEh]       0.00081746 [kcal/mol]       0.00342025 [kJ/mol]
      Exch-Ind22                    0.00013854 [mEh]       0.00008694 [kcal/mol]       0.00036375 [kJ/mol]
      delta HF,r (2)               -0.01314557 [mEh]      -0.00824897 [kcal/mol]      -0.03451369 [kJ/mol]

    Dispersion                     -0.08117065 [mEh]      -0.05093535 [kcal/mol]      -0.21311351 [kJ/mol]
      Disp20                       -0.08506017 [mEh]      -0.05337606 [kcal/mol]      -0.22332544 [kJ/mol]
      Disp21                        0.01493343 [mEh]       0.00937087 [kcal/mol]       0.03920770 [kJ/mol]
      Disp22 (SDQ)                 -0.00118305 [mEh]      -0.00074238 [kcal/mol]      -0.00310611 [kJ/mol]
      Disp22 (T)                   -0.00969976 [mEh]      -0.00608669 [kcal/mol]      -0.02546671 [kJ/mol]
      Est. Disp22 (T)              -0.00993948 [mEh]      -0.00623712 [kcal/mol]      -0.02609609 [kJ/mol]
      Exch-Disp20                   0.00007862 [mEh]       0.00004934 [kcal/mol]       0.00020642 [kJ/mol]

  Total HF                        -17.55798175 [mEh]     -11.01779989 [kcal/mol]     -46.09847473 [kJ/mol]
  Total SAPT0                     -17.64296329 [mEh]     -11.07112661 [kcal/mol]     -46.32159375 [kJ/mol]
  Total SAPT2                     -16.69358311 [mEh]     -10.47538155 [kcal/mol]     -43.82899642 [kJ/mol]
  Total SAPT2+                    -16.68977222 [mEh]     -10.47299018 [kcal/mol]     -43.81899092 [kJ/mol]

  Special recipe for scaled SAPT0 (see Manual):
    Electrostatics sSAPT0         -16.58766608 [mEh]     -10.40891761 [kcal/mol]     -43.55091128 [kJ/mol]
    Exchange sSAPT0                 0.00158346 [mEh]       0.00099364 [kcal/mol]       0.00415738 [kJ/mol]
    Induction sSAPT0               -0.97189913 [mEh]      -0.60987591 [kcal/mol]      -2.55172082 [kJ/mol]
    Dispersion sSAPT0              -0.08498155 [mEh]      -0.05332673 [kcal/mol]      -0.22311902 [kJ/mol]
  Total sSAPT0                    -17.64296329 [mEh]     -11.07112661 [kcal/mol]     -46.32159375 [kJ/mol]
  --------------------------------------------------------------------------------------------------------

*** Psi4 exiting successfully. Buy a developer a beer!
