                               Psi4 1.9 release

  ==> Input File <==

--------------------------------------------------------------------------
MEMORY 60 GB

molecule dimer {
1 1
K      0.000000     0.000000     0.000000
--
0 1
O      3.030234     0.000000     0.000000
H      3.623405     0.755912     0.000000
H      3.623405    -0.755912     0.000000
O     -3.030234     0.000000     0.000000
H     -3.623405    -0.755912     0.000000
H     -3.623405     0.755912     0.000000

units ang
no_reorient
no_com
symmetry c1
}

set {
basis        aug-cc-pVTZ
scf_type     df
}

energy("sapt2+")
--------------------------------------------------------------------------

  //              Dimer HF             //
    Molecular point group: c1
  Charge       = 1
  Multiplicity = 1
  Basis Set: AUG-CC-PVTZ
    Blend: AUG-CC-PVTZ
  Basis Set: (AUG-CC-PVTZ AUX)
    Blend: AUG-CC-PVTZ-JKFIT + DEF2-UNIVERSAL-JKFIT
  @DF-RHF Final Energy:  -751.18477575732607
    Total Energy =                       -751.1847757573260651
 Dipole X            :         -0.0000000            0.0000000           -0.0000000
 Dipole Y            :         -0.0000000            0.0000000           -0.0000000
 Dipole Z            :          0.0000000            0.0000000            0.0000000
 Magnitude           :                                                    0.0000000
  //            Monomer A HF           //
    Molecular point group: c1
  Multiplicity = 1
  Basis Set: AUG-CC-PVTZ
    Blend: AUG-CC-PVTZ
  Basis Set: (AUG-CC-PVTZ AUX)
    Blend: AUG-CC-PVTZ-JKFIT + DEF2-UNIVERSAL-JKFIT
  @DF-RHF Final Energy:  -599.01750955929663
    Total Energy =                       -599.0175095592966272
  //            Monomer B HF           //
    Molecular point group: c1

    Geometry (in Angstrom), charge = 0, multiplicity = 1:

       Center              X                  Y                   Z               Mass
    ------------   -----------------  -----------------  -----------------  -----------------
      Gh(K)           0.000000000000     0.000000000000     0.000000000000    38.963706486400
         O            3.030234000000     0.000000000000     0.000000000000    15.994914619570
         H            3.623405000000     0.755912000000     0.000000000000     1.007825032230
         H            3.623405000000    -0.755912000000     0.000000000000     1.007825032230
         O           -3.030234000000     0.000000000000     0.000000000000    15.994914619570
         H           -3.623405000000    -0.755912000000     0.000000000000     1.007825032230
         H           -3.623405000000     0.755912000000     0.000000000000     1.007825032230

  Charge       = 0
  Multiplicity = 1
  Basis Set: AUG-CC-PVTZ
    Blend: AUG-CC-PVTZ
  Basis Set: (AUG-CC-PVTZ AUX)
    Blend: AUG-CC-PVTZ-JKFIT + DEF2-UNIVERSAL-JKFIT

    Orbital Energies [Eh]
    ---------------------

    Doubly Occupied:

       1A    -20.562877     2A    -20.562877     3A     -1.346955
       4A     -1.346955     5A     -0.709077     6A     -0.709074
       7A     -0.580117     8A     -0.580043     9A     -0.504871
      10A     -0.504861

  @DF-RHF Final Energy:  -152.11985691601726

   => Energetics <=

    Nuclear Repulsion Energy =             26.7294829022314282
    One-Electron Energy =                -262.8832667612691125
    Two-Electron Energy =                  84.0339269430204467
    Total Energy =                       -152.1198569160172269
 Dipole X            :         -0.0000000            0.0000000           -0.0000000
 Dipole Y            :         -0.0000000            0.0000000           -0.0000000
 Dipole Z            :          0.0000000            0.0000000            0.0000000
 Magnitude           :                                                    0.0000000

    SAPT Results
  --------------------------------------------------------------------------------------------------------
    Electrostatics                -42.33263094 [mEh]     -26.56412697 [kcal/mol]    -111.14430723 [kJ/mol]
      Elst10,r                    -44.83311576 [mEh]     -28.13320488 [kcal/mol]    -117.70932921 [kJ/mol]
      Elst12,r                      2.50048482 [mEh]       1.56907791 [kcal/mol]       6.56502198 [kJ/mol]

    Exchange                        5.20817741 [mEh]       3.26818067 [kcal/mol]      13.67406791 [kJ/mol]
      Exch10                        4.54153794 [mEh]       2.84985808 [kcal/mol]      11.92380621 [kJ/mol]
      Exch10(S^2)                   4.53617524 [mEh]       2.84649294 [kcal/mol]      11.90972645 [kJ/mol]
      Exch11(S^2)                   0.01691554 [mEh]       0.01061466 [kcal/mol]       0.04441175 [kJ/mol]
      Exch12(S^2)                   0.64972393 [mEh]       0.40770792 [kcal/mol]       1.70584995 [kJ/mol]

    Induction                      -8.11513244 [mEh]      -5.09232249 [kcal/mol]     -21.30627729 [kJ/mol]
      Ind20,r                     -10.37436683 [mEh]      -6.51001347 [kcal/mol]     -27.23789637 [kJ/mol]
      Ind22                        -1.48127016 [mEh]      -0.92951106 [kcal/mol]      -3.88907428 [kJ/mol]
      Exch-Ind20,r                  3.38868196 [mEh]       2.12643004 [kcal/mol]       8.89698327 [kJ/mol]
      Exch-Ind22                    0.48384191 [mEh]       0.30361538 [kcal/mol]       1.27032676 [kJ/mol]
      delta HF,r (2)               -0.13201932 [mEh]      -0.08284337 [kcal/mol]      -0.34661668 [kJ/mol]

    Dispersion                     -2.05872196 [mEh]      -1.29186753 [kcal/mol]      -5.40517376 [kJ/mol]
      Disp20                       -2.24663058 [mEh]      -1.40978197 [kcal/mol]      -5.89852777 [kJ/mol]
      Disp21                        0.28739373 [mEh]       0.18034229 [kcal/mol]       0.75455214 [kJ/mol]
      Disp22 (SDQ)                 -0.02097133 [mEh]      -0.01315971 [kcal/mol]      -0.05506022 [kJ/mol]
      Disp22 (T)                   -0.22475775 [mEh]      -0.14103762 [kcal/mol]      -0.59010140 [kJ/mol]
      Est. Disp22 (T)              -0.24590504 [mEh]      -0.15430774 [kcal/mol]      -0.64562358 [kJ/mol]
      Exch-Disp20                   0.16739125 [mEh]       0.10503960 [kcal/mol]       0.43948567 [kJ/mol]

  Total HF                        -47.40928201 [mEh]     -29.74977361 [kcal/mol]    -124.47305277 [kJ/mol]
  Total SAPT0                     -49.48852134 [mEh]     -31.05451598 [kcal/mol]    -129.93209487 [kJ/mol]
  Total SAPT2                     -47.31882530 [mEh]     -29.69301116 [kcal/mol]    -124.23555870 [kJ/mol]
  Total SAPT2+                    -47.29830793 [mEh]     -29.68013632 [kcal/mol]    -124.18169037 [kJ/mol]

  Special recipe for scaled SAPT0 (see Manual):
    Electrostatics sSAPT0         -44.83311576 [mEh]     -28.13320488 [kcal/mol]    -117.70932921 [kJ/mol]
    Exchange sSAPT0                 4.54153794 [mEh]       2.84985808 [kcal/mol]      11.92380621 [kJ/mol]
    Induction sSAPT0               -7.10567160 [mEh]      -4.45887625 [kcal/mol]     -18.65593823 [kJ/mol]
    Dispersion sSAPT0              -2.07864495 [mEh]      -1.30436940 [kcal/mol]      -5.45748157 [kJ/mol]
  Total sSAPT0                    -49.47589438 [mEh]     -31.04659244 [kcal/mol]    -129.89894279 [kJ/mol]
  --------------------------------------------------------------------------------------------------------

*** Psi4 exiting successfully. Buy a developer a beer!
